Title
81383
    1CHL1    C3    1   0.926   3.243  10.063 -0.5390  0.2060 -0.9321
    1CHL1    H3    2   1.003   3.320  10.041 -0.3682 -0.3049 -2.1508
    1CHL1    O3    3   0.883   3.276  10.189  0.0898  0.3737  0.1816
    1CHL1   H3'    4   0.862   3.194  10.235 -2.2149  0.0791 -1.3057
    1CHL1    C4    5   0.806   3.254   9.966  0.3043 -0.2121 -0.5340
    1CHL1   H4A    6   0.731   3.175   9.990  0.3255 -0.4950 -1.3986
    1CHL1   H4B    7   0.759   3.353   9.986  0.4717 -0.4389  1.0426
    1CHL1    C5    8   0.858   3.220   9.825  1.1961  0.5960  0.1308
    1CHL1    C6    9   0.846   3.317   9.732  0.0481  0.1732 -0.5639
    1CHL1    H6   10   0.797   3.413   9.751 -2.4456 -1.4273  1.3457
    1CHL1    C7   11   0.869   3.289   9.587  0.5187 -0.4942  0.1788
    1CHL1   H7A   12   0.778   3.327   9.535  1.4024  0.0135 -0.9978
    1CHL1   H7B   13   0.955   3.348   9.551 -0.0740  0.8493  0.9134
    1CHL1    C8   14   0.896   3.135   9.553  0.1259 -0.1460  0.1106
    1CHL1    H8   15   0.795   3.090   9.545 -0.2973  0.3733  2.2918
    1CHL1   C14   16   0.974   3.129   9.422 -1.0723  0.0856  0.7141
    1CHL1   H14   17   1.077   3.166   9.441 -1.6515  1.8627  0.5145
    1CHL1   C15   18   0.915   3.208   9.308 -0.9225  0.2155 -0.2337
    1CHL1  H15A   19   0.806   3.187   9.305 -0.9535  0.5159 -1.3183
    1CHL1  H15B   20   0.940   3.316   9.322 -0.3002 -0.0080  0.4542
    1CHL1   C16   21   0.988   3.145   9.187 -0.4857  0.3643 -0.7534
    1CHL1  H16A   22   0.911   3.117   9.113  0.8564 -2.4421 -1.1251
    1CHL1  H16B   23   1.065   3.205   9.134 -1.8439  1.2451 -1.7656
    1CHL1   C17   24   1.058   3.015   9.247  0.2402 -0.1847  0.0245
    1CHL1   H17   25   1.157   3.045   9.287  0.9864 -0.6219 -1.4486
    1CHL1   C13   26   0.985   2.984   9.377  0.8515 -0.7280  0.0471
    1CHL1   C18   27   0.857   2.904   9.346  0.1065 -0.0009  0.2935
    1CHL1  H18A   28   0.880   2.802   9.308 -0.3376 -0.5696  1.5126
    1CHL1  H18B   29   0.806   2.885   9.443 -1.2593  0.6009 -0.2918
    1CHL1  H18C   30   0.784   2.946   9.274  0.1779 -1.4558 -0.6562
    1CHL1   C12   31   1.061   2.908   9.493  0.1941  0.4188 -0.1999
    1CHL1  H12A   32   1.066   2.801   9.461 -0.0461  0.4791 -0.4444
    1CHL1  H12B   33   1.166   2.945   9.498 -0.8572  3.5211  0.0336
    1CHL1   C11   34   0.997   2.913   9.630  0.3727 -0.8927  0.3604
    1CHL1  H11A   35   0.902   2.856   9.628 -0.1500 -0.0314  0.5163
    1CHL1  H11B   36   1.072   2.876   9.703  0.5034  0.4284  0.9167
    1CHL1    C9   37   0.968   3.061   9.666 -0.0636  0.2100 -0.5155
    1CHL1    H9   38   1.067   3.105   9.689  0.4061 -1.7678  1.3622
    1CHL1   C10   39   0.907   3.079   9.806 -0.7459 -0.0489  0.5796
    1CHL1   C19   40   0.783   2.983   9.828 -0.3190 -0.4754 -0.2582
    1CHL1  H19A   41   0.826   2.882   9.817  2.5932  0.7415 -0.4886
    1CHL1  H19B   42   0.735   3.003   9.926 -0.6546  0.0545 -0.5254
    1CHL1  H19C   43   0.708   3.005   9.749 -0.2713 -0.0222 -0.1814
    1CHL1    C1   44   1.014   3.049   9.919  0.0021 -0.6991  0.0178
    1CHL1   H1A   45   1.037   2.942   9.901  2.7140 -0.3907  1.3770
    1CHL1   H1B   46   1.095   3.121   9.893 -0.0072 -0.7886 -0.2682
    1CHL1    C2   47   0.981   3.097  10.064  0.1315 -0.4856 -0.0728
    1CHL1   H2A   48   1.075   3.100  10.122  0.2933  3.4510 -0.4010
    1CHL1   H2B   49   0.903   3.029  10.106 -0.0062  0.2405  0.8718
    1CHL1   C20   50   1.081   2.909   9.141 -0.2681 -0.1950 -0.4412
    1CHL1   H20   51   0.985   2.859   9.119 -1.8977  0.6848  4.1007
    1CHL1   C21   52   1.166   2.792   9.193  0.3095  0.4459 -0.0480
    1CHL1  H21A   53   1.266   2.837   9.210  0.9730 -1.6180  1.7557
    1CHL1  H21B   54   1.182   2.725   9.106  2.8302  0.3307  0.4585
    1CHL1  H21C   55   1.133   2.740   9.286  0.2667 -1.2946 -1.0171
    1CHL1   C22   56   1.134   2.965   8.998  0.7437  0.2127 -0.4360
    1CHL1  H22A   57   1.043   3.014   8.957 -0.6421 -0.9875  1.0851
    1CHL1  H22B   58   1.228   3.023   9.009  0.7884 -0.0009  0.3903
    1CHL1   C23   59   1.164   2.856   8.889 -0.6263 -0.2463  0.7225
    1CHL1  H23A   60   1.256   2.797   8.911  0.8614  1.4893 -0.6254
    1CHL1  H23B   61   1.075   2.789   8.888 -0.8821  0.0908  0.8237
    1CHL1   C24   62   1.192   2.913   8.753  0.2579 -0.3764  0.2527
    1CHL1  H24A   63   1.116   2.992   8.737 -1.6956 -2.0364  1.1876
    1CHL1  H24B   64   1.294   2.955   8.770  0.8647 -1.0775 -1.5071
    1CHL1   C25   65   1.212   2.806   8.636 -0.3253  0.0231 -0.2911
    1CHL1   H25   66   1.276   2.857   8.561  1.1033 -0.3264  0.6788
    1CHL1   C26   67   1.294   2.679   8.672 -0.1834  0.7556  0.2183
    1CHL1  H26A   68   1.242   2.621   8.752 -0.0658 -0.7783 -0.8096
    1CHL1  H26B   69   1.301   2.601   8.594  2.7999  1.5732 -0.3695
    1CHL1  H26C   70   1.395   2.709   8.707 -0.2697 -0.8918  1.9654
    1CHL1   C27   71   1.077   2.769   8.577 -0.2465 -0.0144 -0.1804
    1CHL1  H27A   72   1.079   2.685   8.505 -1.5241 -1.5557  1.5171
    1CHL1  H27B   73   1.017   2.738   8.666  0.2264 -1.0530 -0.2132
    1CHL1  H27C   74   1.028   2.859   8.536  0.7203  1.0668  1.0213
    2CHL1    C3   75   1.865   1.427  10.073  0.0657 -0.0159  0.4376
    2CHL1    H3   76   1.760   1.421  10.107 -1.0726  1.6707 -2.6517
    2CHL1    O3   77   1.942   1.463  10.181  0.8293  0.3975  0.0127
    2CHL1   H3'   78   1.951   1.385  10.237  1.8996  0.9216  0.5669
    2CHL1    C4   79   1.910   1.290  10.020  0.1357  0.0616 -0.1414
    2CHL1   H4A   80   2.020   1.296  10.003  0.5352 -3.1425  0.9878
    2CHL1   H4B   81   1.894   1.225  10.109  0.5253  0.0603 -0.0702
    2CHL1    C5   82   1.840   1.245   9.893  0.2283  0.9750  1.0856
    2CHL1    C6   83   1.774   1.129   9.884 -0.1142  0.0683  0.7355
    2CHL1    H6   84   1.769   1.058   9.968 -2.3393  0.1428  0.7008
    2CHL1    C7   85   1.715   1.086   9.753  0.1484 -0.7435 -0.1108
    2CHL1   H7A   86   1.745   0.986   9.714  2.6249  0.7850 -2.3476
    2CHL1   H7B   87   1.605   1.099   9.761  0.4281  0.8375  1.3474
    2CHL1    C8   88   1.741   1.177   9.627 -0.1610 -0.2412  0.6028
    2CHL1    H8   89   1.841   1.154   9.586  1.1995  1.9171  2.5433
    2CHL1   C14   90   1.632   1.167   9.521 -0.1361  0.4207 -0.0312
    2CHL1   H14   91   1.537   1.203   9.567 -0.1287  0.6577 -0.2019
    2CHL1   C15   92   1.603   1.019   9.476  0.0919  0.2975  0.6212
    2CHL1  H15A   93   1.680   0.941   9.494 -0.5802 -0.4857  0.1235
    2CHL1  H15B   94   1.518   0.980   9.536  0.3200 -1.4484 -0.1572
    2CHL1   C16   95   1.555   1.024   9.338 -0.3753  0.3082 -0.0560
    2CHL1  H16A   96   1.632   0.964   9.282 -1.5160 -0.5925 -0.6837
    2CHL1  H16B   97   1.456   0.976   9.329 -0.5101  0.1939  2.0099
    2CHL1   C17   98   1.540   1.172   9.307  0.5436  1.0300  0.2498
    2CHL1   H17   99   1.440   1.196   9.348 -0.9835  0.5103 -3.0444
    2CHL1   C13  100   1.648   1.248   9.399  0.1079  0.0964  0.9498
    2CHL1   C18  101   1.789   1.214   9.343  0.4074 -0.8960 -0.2108
    2CHL1  H18A  102   1.875   1.245   9.407  0.1871  0.8865 -0.7417
    2CHL1  H18B  103   1.805   1.105   9.327  1.5116 -0.4888 -2.0549
    2CHL1  H18C  104   1.796   1.260   9.242 -3.6947  0.6553  0.0992
    2CHL1   C12  105   1.618   1.400   9.442  0.0994  0.5929 -0.4535
    2CHL1  H12A  106   1.643   1.471   9.361  1.4803  0.4769 -0.1321
    2CHL1  H12B  107   1.513   1.411   9.479  0.5943  1.4869  0.7199
    2CHL1   C11  108   1.728   1.426   9.553 -0.4832  0.5814  0.1252
    2CHL1  H11A  109   1.832   1.409   9.518 -1.2066 -3.1438 -0.5035
    2CHL1  H11B  110   1.716   1.532   9.581 -0.2653  0.6352  0.0116
    2CHL1    C9  111   1.728   1.322   9.671 -0.4994  0.5242 -0.6041
    2CHL1    H9  112   1.632   1.332   9.725 -0.4025 -3.0376  0.3651
    2CHL1   C10  113   1.834   1.354   9.783  0.4110 -0.0489  0.4918
    2CHL1   C19  114   1.982   1.370   9.729 -0.0827 -0.1693  0.1482
    2CHL1  H19A  115   2.023   1.278   9.681  1.8808  0.0608  1.3426
    2CHL1  H19B  116   1.978   1.450   9.652 -1.2590  2.9333  3.3211
    2CHL1  H19C  117   2.047   1.405   9.812 -0.2723  2.1224 -0.6522
    2CHL1    C1  118   1.792   1.493   9.843  0.2174 -0.0901  0.6220
    2CHL1   H1A  119   1.805   1.565   9.759 -2.8644  0.0529  0.2333
    2CHL1   H1B  120   1.682   1.490   9.858 -0.2052  1.9339 -1.6179
    2CHL1    C2  121   1.868   1.540   9.967  0.6805  0.2791  0.5130
    2CHL1   H2A  122   1.825   1.636  10.006 -0.1336  0.7806 -1.5582
    2CHL1   H2B  123   1.974   1.561   9.940  0.8305  1.0592  1.6659
    2CHL1   C20  124   1.534   1.213   9.157  0.0699  0.2586 -0.1049
    2CHL1   H20  125   1.640   1.225   9.125  0.5024 -0.4971  1.0232
    2CHL1   C21  126   1.459   1.338   9.136 -0.3112 -0.2302  0.7050
    2CHL1  H21A  127   1.477   1.419   9.210 -2.9679  2.7427 -1.7127
    2CHL1  H21B  128   1.360   1.308   9.175 -1.9903  2.1877 -1.4895
    2CHL1  H21C  129   1.456   1.370   9.029  0.1638  0.8310  0.9960
    2CHL1   C22  130   1.487   1.101   9.051  0.0136  0.2997 -0.5629
    2CHL1  H22A  131   1.529   1.006   9.091  0.0031  0.2634 -0.6386
    2CHL1  H22B  132   1.377   1.090   9.060 -0.1850  1.8702 -0.9438
    2CHL1   C23  133   1.544   1.116   8.914  0.0432  0.0699  0.0052
    2CHL1  H23A  134   1.519   1.213   8.865  0.8559 -0.1492 -0.8502
    2CHL1  H23B  135   1.655   1.115   8.915  0.0721  0.7269 -0.9437
    2CHL1   C24  136   1.493   1.000   8.830  0.5428 -0.5920 -0.2863
    2CHL1  H24A  137   1.530   0.909   8.882  0.1704 -0.3236  0.4457
    2CHL1  H24B  138   1.384   0.992   8.847  0.3864 -1.5939 -1.6721
    2CHL1   C25  139   1.509   1.014   8.677  0.2001 -0.0786 -0.7253
    2CHL1   H25  140   1.614   1.027   8.642  0.7480 -0.1690  0.8394
    2CHL1   C26  141   1.466   0.878   8.614  0.2325  0.0541  0.0100
    2CHL1  H26A  142   1.539   0.798   8.639 -1.5032 -1.6101 -0.0910
    2CHL1  H26B  143   1.363   0.852   8.644  1.1980 -1.0068  2.4979
    2CHL1  H26C  144   1.475   0.893   8.504  2.9753 -0.0440  0.1818
    2CHL1   C27  145   1.430   1.129   8.609  0.3551  0.1520  0.9001
    2CHL1  H27A  146   1.463   1.231   8.640  0.5875  0.3729 -0.0468
    2CHL1  H27B  147   1.413   1.117   8.500  2.8350  3.0571  0.1148
    2CHL1  H27C  148   1.325   1.130   8.643  0.1660  1.0268  0.3160
    3CHL1    C3  149   2.261   1.057  10.445 -0.7924  0.1618 -0.2509
    3CHL1    H3  150   2.169   1.117  10.437  0.4058  1.9844 -0.6904
    3CHL1    O3  151   2.293   1.070  10.587 -0.0871  0.7100  0.1332
    3CHL1   H3'  152   2.296   1.166  10.597 -0.6867  0.5215  2.3510
    3CHL1    C4  153   2.225   0.917  10.414  0.4602  0.5226  0.5528
    3CHL1   H4A  154   2.314   0.851  10.422 -0.2964 -0.3870  1.6291
    3CHL1   H4B  155   2.143   0.879  10.478  0.0267 -1.4690 -1.1259
    3CHL1    C5  156   2.188   0.900  10.264 -0.0219  0.3803  0.0657
    3CHL1    C6  157   2.075   0.852  10.223  0.1945  0.4669 -0.2567
    3CHL1    H6  158   2.008   0.807  10.299 -0.6142  1.0760 -0.6055
    3CHL1    C7  159   2.026   0.846  10.078 -0.3967  0.1838 -0.4031
    3CHL1   H7A  160   1.960   0.759  10.058  0.0511 -0.1071 -0.6198
    3CHL1   H7B  161   1.965   0.935  10.053 -1.9625 -0.1212  2.1806
    3CHL1    C8  162   2.147   0.855   9.981  0.2343  0.2318  0.3002
    3CHL1    H8  163   2.208   0.762   9.979  2.0653  1.4246 -1.7390
    3CHL1   C14  164   2.102   0.885   9.838 -0.3977 -0.7713 -0.6123
    3CHL1   H14  165   2.040   0.977   9.840 -1.0625 -1.2349  0.7925
    3CHL1   C15  166   2.002   0.780   9.775  0.3342 -0.2336  0.4565
    3CHL1  H15A  167   2.062   0.687   9.773  1.2737  0.3990 -2.2907
    3CHL1  H15B  168   1.903   0.764   9.822  0.5508 -1.9735  0.3602
    3CHL1   C16  169   1.992   0.820   9.627 -0.5768 -0.2033  0.3454
    3CHL1  H16A  170   2.005   0.732   9.560  0.1363  0.4419 -0.3748
    3CHL1  H16B  171   1.891   0.860   9.605 -0.0586  0.6421 -0.5156
    3CHL1   C17  172   2.115   0.919   9.607 -0.7821  0.2434  0.3142
    3CHL1   H17  173   2.073   1.020   9.624 -0.3651  0.0573  2.6286
    3CHL1   C13  174   2.209   0.912   9.731  0.1705 -0.1948  0.8082
    3CHL1   C18  175   2.286   0.784   9.714 -0.2544 -0.0057  0.2249
    3CHL1  H18A  176   2.220   0.715   9.656 -0.0853 -0.3329  0.4203
    3CHL1  H18B  177   2.379   0.804   9.658  0.1927 -1.9223  0.2319
    3CHL1  H18C  178   2.314   0.740   9.812  0.4940  1.1597  0.5392
    3CHL1   C12  179   2.292   1.038   9.774 -0.5272 -0.3420 -0.0351
    3CHL1  H12A  180   2.374   1.050   9.700 -1.4756 -0.6254 -1.1514
    3CHL1  H12B  181   2.222   1.124   9.771 -3.3073 -2.5050  0.5897
    3CHL1   C11  182   2.346   1.015   9.914 -0.0680  0.3420 -0.8257
    3CHL1  H11A  183   2.430   0.942   9.914 -2.2561 -2.3610  2.6756
    3CHL1  H11B  184   2.388   1.113   9.946  0.1729  0.1895 -0.6655
    3CHL1    C9  185   2.240   0.966  10.019 -0.9107 -0.1004 -0.4281
    3CHL1    H9  186   2.177   1.058  10.019  2.6199  2.4574 -0.3762
    3CHL1   C10  187   2.288   0.954  10.167 -0.7260 -0.3031 -0.2552
    3CHL1   C19  188   2.409   0.851  10.167  0.0479  0.0191 -0.0451
    3CHL1  H19A  189   2.386   0.762  10.106  0.4805  0.8247 -1.4089
    3CHL1  H19B  190   2.501   0.899  10.128  0.5654 -2.1446 -1.5539
    3CHL1  H19C  191   2.440   0.824  10.270 -0.2726  1.7436  0.5197
    3CHL1    C1  192   2.337   1.091  10.213 -0.3046 -0.4060  0.0432
    3CHL1   H1A  193   2.424   1.120  10.150 -0.6443  0.3385 -0.0815
    3CHL1   H1B  194   2.257   1.165  10.191 -0.8476 -0.6808  1.0483
    3CHL1    C2  195   2.375   1.104  10.364 -0.3130 -0.1571  0.2948
    3CHL1   H2A  196   2.404   1.210  10.382  1.3313 -0.6991  0.9817
    3CHL1   H2B  197   2.468   1.046  10.385 -0.7093 -0.1762  2.0252
    3CHL1   C20  198   2.172   0.919   9.460 -0.1708 -0.1355  0.8693
    3CHL1   H20  199   2.234   0.830   9.440 -1.4413 -0.8576  0.0745
    3CHL1   C21  200   2.264   1.040   9.448  0.2049  0.2245 -0.3912
    3CHL1  H21A  201   2.361   1.018   9.497 -0.7657 -1.6743  0.7647
    3CHL1  H21B  202   2.213   1.126   9.497 -0.0431  0.2037 -0.6162
    3CHL1  H21C  203   2.284   1.060   9.341 -0.5897 -0.1260 -0.6097
    3CHL1   C22  204   2.068   0.927   9.350  0.2081  0.5845 -0.4705
    3CHL1  H22A  205   1.996   0.843   9.356 -0.2867  0.8521 -2.5457
    3CHL1  H22B  206   2.010   1.021   9.352  0.2066  0.5625  1.8549
    3CHL1   C23  207   2.113   0.918   9.205  0.2310 -0.1544  0.1334
    3CHL1  H23A  208   2.185   1.001   9.187 -0.0750  0.1908  0.4785
    3CHL1  H23B  209   2.152   0.816   9.187 -1.6502 -0.6162 -1.5306
    3CHL1   C24  210   1.995   0.923   9.104  1.0622 -0.4410 -0.3934
    3CHL1  H24A  211   1.937   0.828   9.109  1.3908 -0.6147  0.1707
    3CHL1  H24B  212   1.929   1.008   9.131  0.1160 -1.0725 -0.6599
    3CHL1   C25  213   2.044   0.948   8.959  0.1052  0.1483 -0.9462
    3CHL1   H25  214   2.147   0.906   8.962 -1.1956 -3.1385 -0.8086
    3CHL1   C26  215   1.959   0.858   8.861 -0.2896  0.0877 -0.1777
    3CHL1  H26A  216   1.853   0.882   8.880 -0.3935 -1.5525  1.5466
    3CHL1  H26B  217   1.981   0.884   8.755  1.5426  1.7163  0.5498
    3CHL1  H26C  218   1.988   0.752   8.878  1.9897  0.4726 -1.4345
    3CHL1   C27  219   2.040   1.098   8.925  0.7352  0.5678  0.1987
    3CHL1  H27A  220   1.940   1.147   8.918 -0.2145 -1.2251  0.8589
    3CHL1  H27B  221   2.088   1.166   8.999  0.6611  0.0333  0.7414
    3CHL1  H27C  222   2.102   1.124   8.837 -1.4229 -0.3351 -1.6511
    4CHL1    C3  223   1.933   2.741  10.463  0.6763  0.0872  0.1138
    4CHL1    H3  224   1.946   2.844  10.422  1.0133 -0.1403 -0.3522
    4CHL1    O3  225   1.968   2.759  10.604  0.0879 -0.3243  0.1215
    4CHL1   H3'  226   1.898   2.812  10.642 -0.7080  0.3524 -2.2087
    4CHL1    C4  227   1.796   2.686  10.463  0.1049  0.4287  0.2693
    4CHL1   H4A  228   1.803   2.594  10.525  1.2305 -0.6636 -1.4089
    4CHL1   H4B  229   1.725   2.748  10.521 -0.6394  0.8974 -1.1083
    4CHL1    C5  230   1.744   2.661  10.326  0.1852 -0.3064 -0.2895
    4CHL1    C6  231   1.637   2.732  10.293 -0.5235  0.4105  0.4792
    4CHL1    H6  232   1.595   2.809  10.360 -1.8205  0.4493 -0.3544
    4CHL1    C7  233   1.579   2.727  10.154 -0.5226  0.7600 -0.1476
    4CHL1   H7A  234   1.470   2.709  10.164 -0.4698  1.0239  0.9793
    4CHL1   H7B  235   1.591   2.833  10.120 -1.4805  1.6192  2.0882
    4CHL1    C8  236   1.641   2.625  10.063 -0.0079  0.0948  0.3913
    4CHL1    H8  237   1.601   2.525  10.089  2.0728 -0.7749  0.4036
    4CHL1   C14  238   1.607   2.653   9.915 -0.3244  0.0750  0.2885
    4CHL1   H14  239   1.659   2.752   9.905 -0.4371  0.2272  1.2060
    4CHL1   C15  240   1.461   2.691   9.873 -0.5138 -0.2636 -0.3833
    4CHL1  H15A  241   1.386   2.625   9.922 -1.4614  1.0166 -0.0653
    4CHL1  H15B  242   1.427   2.790   9.912  1.4334  0.8550 -1.4622
    4CHL1   C16  243   1.458   2.687   9.718  0.1181  0.1344 -0.2044
    4CHL1  H16A  244   1.394   2.598   9.701  2.3506 -1.3478 -1.2059
    4CHL1  H16B  245   1.426   2.781   9.668  0.7589 -0.4896 -1.8251
    4CHL1   C17  246   1.608   2.636   9.683  0.0113 -0.1790  0.1279
    4CHL1   H17  247   1.671   2.727   9.674  1.4349 -1.3391 -1.8614
    4CHL1   C13  248   1.661   2.561   9.805  0.5236  0.5030  0.0187
    4CHL1   C18  249   1.596   2.423   9.822  0.6213 -0.0274 -0.2468
    4CHL1  H18A  250   1.642   2.347   9.756 -2.0474  1.5014 -4.0706
    4CHL1  H18B  251   1.624   2.379   9.920 -2.0981 -1.4153 -0.0290
    4CHL1  H18C  252   1.488   2.416   9.796  0.6817  0.1206 -0.5447
    4CHL1   C12  253   1.809   2.555   9.824 -0.1570  0.5782 -0.5387
    4CHL1  H12A  254   1.848   2.473   9.760  2.2992 -0.7111  2.4768
    4CHL1  H12B  255   1.851   2.655   9.802  2.2284  0.1574  1.9207
    4CHL1   C11  256   1.853   2.520   9.971  0.1564  0.9333 -0.8095
    4CHL1  H11A  257   1.823   2.415   9.993 -1.2075  1.4235 -0.2549
    4CHL1  H11B  258   1.963   2.518   9.984  0.2173  0.4033 -1.4033
    4CHL1    C9  259   1.791   2.618  10.075  0.5828  0.8758 -0.3005
    4CHL1    H9  260   1.830   2.717  10.045  0.8280  0.8542 -0.0568
    4CHL1   C10  261   1.831   2.584  10.220 -0.2475 -0.1419  0.0368
    4CHL1   C19  262   1.811   2.430  10.254  0.3052 -0.1475  0.2067
    4CHL1  H19A  263   1.821   2.407  10.362  1.7134  1.0674  0.3512
    4CHL1  H19B  264   1.709   2.395  10.225  0.0425 -0.1549  1.1338
    4CHL1  H19C  265   1.882   2.365  10.199  0.2496 -0.8959  1.0274
    4CHL1    C1  266   1.986   2.616  10.241  0.0014  0.1577 -0.5140
    4CHL1   H1A  267   2.050   2.537  10.195  0.4520  0.2814 -0.1108
    4CHL1   H1B  268   2.009   2.708  10.183  3.1428  0.2493  0.7512
    4CHL1    C2  269   2.028   2.644  10.384 -0.4421 -0.3188  0.1232
    4CHL1   H2A  270   2.131   2.682  10.397 -0.2948 -0.5323 -0.3732
    4CHL1   H2B  271   2.025   2.546  10.436 -1.5409  0.5701  1.7818
    4CHL1   C20  272   1.618   2.562   9.547 -0.9253  1.2048 -0.1754
    4CHL1   H20  273   1.546   2.479   9.544  0.1452  0.2678 -0.3395
    4CHL1   C21  274   1.756   2.500   9.517  0.7847  0.2809  0.1931
    4CHL1  H21A  275   1.754   2.469   9.411  2.1070  2.3303 -0.4571
    4CHL1  H21B  276   1.773   2.410   9.580  2.7490  0.4240 -0.1325
    4CHL1  H21C  277   1.836   2.575   9.533  1.4133 -0.0839 -1.1730
    4CHL1   C22  278   1.589   2.648   9.416  0.3745 -0.3360 -0.2094
    4CHL1  H22A  279   1.607   2.584   9.326  0.1987 -0.1334 -0.3894
    4CHL1  H22B  280   1.481   2.671   9.409 -0.0095 -1.1986  2.5073
    4CHL1   C23  281   1.683   2.773   9.391 -0.9230  0.1178 -0.4244
    4CHL1  H23A  282   1.678   2.848   9.472 -2.2202 -0.0767 -0.3056
    4CHL1  H23B  283   1.786   2.734   9.402  0.0172  2.1929 -1.5972
    4CHL1   C24  284   1.656   2.846   9.263 -0.4887  0.0215  0.1216
    4CHL1  H24A  285   1.661   2.783   9.172  0.8522 -0.1827  0.3364
    4CHL1  H24B  286   1.554   2.889   9.274 -0.0020  0.8780  1.3465
    4CHL1   C25  287   1.748   2.965   9.239 -0.2131  0.0288 -0.0682
    4CHL1   H25  288   1.850   2.935   9.269 -1.8314 -2.5144  3.2556
    4CHL1   C26  289   1.753   3.011   9.087  0.6529  0.1016  0.5493
    4CHL1  H26A  290   1.800   2.939   9.017 -0.1435  1.8233 -1.8525
    4CHL1  H26B  291   1.646   3.031   9.064  0.4742 -0.3235  0.9854
    4CHL1  H26C  292   1.798   3.112   9.081  1.2202 -0.2152 -0.6437
    4CHL1   C27  293   1.704   3.083   9.332  0.0593  0.4966  0.1716
    4CHL1  H27A  294   1.693   3.044   9.436 -0.4345 -1.1068 -0.4767
    4CHL1  H27B  295   1.760   3.179   9.331  0.0565  0.4889 -1.2714
    4CHL1  H27C  296   1.601   3.106   9.298 -0.3076 -2.3764 -0.7425
    5CHL1    C3  297   2.812   0.745  10.107 -0.2012  0.5051 -0.0082
    5CHL1    H3  298   2.703   0.726  10.117  0.5632 -3.0491  2.2535
    5CHL1    O3  299   2.877   0.731  10.233 -0.3051  0.3106  0.3508
    5CHL1   H3'  300   2.918   0.644  10.226 -0.5153  0.3562 -1.7012
    5CHL1    C4  301   2.873   0.663   9.990  0.0300  0.5534 -0.7208
    5CHL1   H4A  302   2.981   0.683  10.010  0.1451 -0.7468  0.0598
    5CHL1   H4B  303   2.855   0.557  10.019 -0.0132  1.0762  1.2411
    5CHL1    C5  304   2.825   0.698   9.849 -0.4363  0.0852 -0.1627
    5CHL1    C6  305   2.755   0.614   9.773 -0.2161  0.2800 -0.5814
    5CHL1    H6  306   2.740   0.510   9.807  1.5966  0.9169  2.3346
    5CHL1    C7  307   2.701   0.646   9.638 -0.1849 -0.4339 -0.2169
    5CHL1   H7A  308   2.743   0.562   9.579 -0.0125 -0.6532  0.2242
    5CHL1   H7B  309   2.591   0.629   9.626 -0.5515  2.1292 -0.8793
    5CHL1    C8  310   2.750   0.773   9.575  0.1651 -0.3496  1.5141
    5CHL1    H8  311   2.856   0.774   9.542 -0.7441  1.4069 -1.5503
    5CHL1   C14  312   2.662   0.808   9.457 -0.4014 -1.0560  0.2583
    5CHL1   H14  313   2.561   0.828   9.500 -0.6812 -2.6279  0.3783
    5CHL1   C15  314   2.634   0.698   9.359 -0.3604 -0.0135  0.1296
    5CHL1  H15A  315   2.722   0.638   9.325 -0.2429  0.1854  0.0819
    5CHL1  H15B  316   2.567   0.624   9.408 -0.0392 -0.2238  0.2477
    5CHL1   C16  317   2.560   0.775   9.251  0.6138  0.7043 -0.3499
    5CHL1  H16A  318   2.614   0.749   9.158 -0.2797 -0.0569 -0.6550
    5CHL1  H16B  319   2.452   0.754   9.242  0.3295 -0.2279  3.8622
    5CHL1   C17  320   2.585   0.926   9.270  0.0635  1.1364 -0.6261
    5CHL1   H17  321   2.499   0.981   9.314  0.1049  2.2440 -1.8598
    5CHL1   C13  322   2.690   0.939   9.383 -0.6165 -0.0239  0.2704
    5CHL1   C18  323   2.836   0.930   9.326 -0.6751  0.5853  0.2996
    5CHL1  H18A  324   2.918   0.930   9.401 -0.6497  0.7312  0.2721
    5CHL1  H18B  325   2.836   0.832   9.273  1.0754  1.2265 -0.9288
    5CHL1  H18C  326   2.862   1.015   9.260 -2.2494 -1.2171 -2.7417
    5CHL1   C12  327   2.675   1.050   9.487  0.1188 -0.4007  0.5268
    5CHL1  H12A  328   2.703   1.152   9.453 -0.3700 -0.1760  0.7915
    5CHL1  H12B  329   2.572   1.049   9.527  0.0697  1.4355  0.4703
    5CHL1   C11  330   2.770   1.023   9.616 -0.0098  0.0568  0.4220
    5CHL1  H11A  331   2.878   1.040   9.593 -0.6909  2.1384 -1.4455
    5CHL1  H11B  332   2.740   1.097   9.692 -0.1578 -0.4954  0.9010
    5CHL1    C9  333   2.747   0.884   9.677  0.4670  0.3714 -0.5220
    5CHL1    H9  334   2.645   0.890   9.721  0.3272 -1.8658 -0.4910
    5CHL1   C10  335   2.825   0.852   9.809 -0.6197  0.4237 -0.6148
    5CHL1   C19  336   2.972   0.889   9.790 -0.0354 -0.4088  0.0117
    5CHL1  H19A  337   3.046   0.846   9.861 -1.3031 -0.5786  1.2487
    5CHL1  H19B  338   3.007   0.852   9.691 -1.7282  2.1001 -1.5986
    5CHL1  H19C  339   2.985   0.999   9.779  0.7540 -0.4884  0.1206
    5CHL1    C1  340   2.770   0.926   9.933  0.3536  0.1307  0.1459
    5CHL1   H1A  341   2.790   1.034   9.919 -1.3910  0.5413  0.6691
    5CHL1   H1B  342   2.661   0.910   9.946 -0.1791  0.9856 -2.7858
    5CHL1    C2  343   2.833   0.892  10.073 -0.3636  0.3201  0.1547
    5CHL1   H2A  344   2.782   0.946  10.156 -0.6140  0.1146  0.1323
    5CHL1   H2B  345   2.941   0.915  10.058 -0.7505 -0.3526 -4.0501
    5CHL1   C20  346   2.612   0.999   9.148  0.0339 -0.0955 -0.1981
    5CHL1   H20  347   2.702   0.956   9.100  1.2985  1.4088  0.7495
    5CHL1   C21  348   2.626   1.145   9.180  0.0876 -0.1548 -1.1521
    5CHL1  H21A  349   2.633   1.209   9.089  0.6337 -0.5709 -1.4053
    5CHL1  H21B  350   2.723   1.157   9.232  0.1364  0.6260 -1.4074
    5CHL1  H21C  351   2.554   1.178   9.258  1.7987  1.1485 -0.0824
    5CHL1   C22  352   2.493   0.973   9.051 -0.4021  0.4073  0.8334
    5CHL1  H22A  353   2.511   0.869   9.017  0.2514  0.5059  0.8701
    5CHL1  H22B  354   2.395   0.981   9.104 -1.4965  0.3935 -1.1469
    5CHL1   C23  355   2.484   1.057   8.931  0.3427 -0.5731 -0.4125
    5CHL1  H23A  356   2.418   1.143   8.958  1.5168  0.4925 -0.8949
    5CHL1  H23B  357   2.579   1.108   8.903  1.0511 -1.8458 -0.3762
    5CHL1   C24  358   2.427   0.986   8.812  0.1303  0.4827 -0.9202
    5CHL1  H24A  359   2.495   0.908   8.770 -0.7515  0.1048 -1.6745
    5CHL1  H24B  360   2.328   0.944   8.838 -0.2369  0.9228 -1.5839
    5CHL1   C25  361   2.405   1.085   8.688 -0.2853 -0.0414 -0.6592
    5CHL1   H25  362   2.347   1.174   8.720 -2.6783 -1.7789 -0.0534
    5CHL1   C26  363   2.544   1.136   8.646 -0.7743 -0.0724  0.0167
    5CHL1  H26A  364   2.574   1.207   8.726  0.6302 -0.5316 -0.0805
    5CHL1  H26B  365   2.622   1.057   8.643  0.7918  1.4602 -2.0724
    5CHL1  H26C  366   2.540   1.199   8.554 -0.7458 -1.9227 -1.2836
    5CHL1   C27  367   2.326   1.013   8.578 -0.7693 -0.7183 -0.8909
    5CHL1  H27A  368   2.226   0.990   8.621 -0.6685  1.8428  0.8150
    5CHL1  H27B  369   2.316   1.081   8.490 -1.4118 -0.9920 -1.0299
    5CHL1  H27C  370   2.382   0.924   8.542  0.9797  1.0929 -2.7930
    6CHL1    C3  371   1.214   4.767  10.297 -0.0811  0.6138  0.4918
    6CHL1    H3  372   1.112   4.747  10.259  0.5089 -0.0574 -0.7730
    6CHL1    O3  373   1.202   4.743  10.437 -0.3716  0.1878 -0.4997
    6CHL1   H3'  374   1.267   4.795  10.484  0.5533 -0.8525 -0.5945
    6CHL1    C4  375   1.331   4.687  10.236 -0.0094  0.0406  1.2347
    6CHL1   H4A  376   1.430   4.701  10.285  2.0537 -1.6829 -2.2560
    6CHL1   H4B  377   1.314   4.579  10.254  0.7053 -0.0801  1.1903
    6CHL1    C5  378   1.330   4.719  10.091  0.4600 -0.0698 -0.3623
    6CHL1    C6  379   1.301   4.619  10.001  0.4797 -0.7284  0.3066
    6CHL1    H6  380   1.283   4.514  10.027 -1.7935 -0.4600 -0.0518
    6CHL1    C7  381   1.325   4.639   9.858  0.2592 -0.8380 -0.6072
    6CHL1   H7A  382   1.390   4.553   9.831 -0.7530 -1.3053 -1.6170
    6CHL1   H7B  383   1.224   4.627   9.812 -1.2211  1.4012  1.9122
    6CHL1    C8  384   1.383   4.774   9.817 -0.3371 -0.1968 -0.1092
    6CHL1    H8  385   1.491   4.763   9.843 -1.0633  0.0136  3.2335
    6CHL1   C14  386   1.370   4.794   9.664  0.9527 -0.1570  0.3740
    6CHL1   H14  387   1.259   4.795   9.652  0.9944 -1.9526 -0.4646
    6CHL1   C15  388   1.425   4.691   9.566 -0.3605 -0.8132 -0.3124
    6CHL1  H15A  389   1.523   4.658   9.608 -1.3431  0.7400  3.4275
    6CHL1  H15B  390   1.357   4.604   9.554  0.4164 -1.4975  0.1441
    6CHL1   C16  391   1.453   4.763   9.437 -0.3563  0.3179 -0.1077
    6CHL1  H16A  392   1.563   4.755   9.423 -0.5566 -0.4021 -1.3324
    6CHL1  H16B  393   1.396   4.709   9.359 -0.0699 -2.8421  1.7551
    6CHL1   C17  394   1.399   4.905   9.463  0.7159  0.2884  0.5966
    6CHL1   H17  395   1.293   4.886   9.439  1.4132 -0.7710 -1.7071
    6CHL1   C13  396   1.418   4.930   9.612  0.4228 -0.6910 -0.1554
    6CHL1   C18  397   1.561   4.947   9.657 -0.0681 -0.1205 -0.1032
    6CHL1  H18A  398   1.622   4.865   9.614  0.7856 -0.8019  2.3363
    6CHL1  H18B  399   1.598   5.047   9.624  2.2423 -1.2777 -1.1425
    6CHL1  H18C  400   1.556   4.943   9.768  0.6445 -0.9507 -0.1019
    6CHL1   C12  401   1.327   5.037   9.675  0.3307 -0.1984 -0.5895
    6CHL1  H12A  402   1.371   5.135   9.646 -0.1051 -0.0499 -0.7647
    6CHL1  H12B  403   1.225   5.033   9.629  0.6134  0.8256 -1.3110
    6CHL1   C11  404   1.334   5.031   9.832  0.7399 -0.3319 -0.0975
    6CHL1  H11A  405   1.423   5.085   9.869  0.3542  0.0276  0.3089
    6CHL1  H11B  406   1.249   5.084   9.879 -2.5249 -3.1404 -2.5740
    6CHL1    C9  407   1.321   4.890   9.897 -0.6949  0.0039  0.1967
    6CHL1    H9  408   1.217   4.859   9.875 -0.0140 -1.0804 -1.6441
    6CHL1   C10  409   1.350   4.867  10.051 -0.1219 -0.3525 -0.6330
    6CHL1   C19  410   1.494   4.921  10.087  0.1172  0.4175  0.6417
    6CHL1  H19A  411   1.514   4.904  10.195 -1.5577 -1.1219  0.7255
    6CHL1  H19B  412   1.575   4.870  10.031  0.4440  0.9090  0.6598
    6CHL1  H19C  413   1.506   5.028  10.058 -1.0976  0.6584  0.9996
    6CHL1    C1  414   1.249   4.953  10.129 -0.2635 -0.1044 -0.4068
    6CHL1   H1A  415   1.244   5.062  10.109 -2.4293 -0.0965  0.1096
    6CHL1   H1B  416   1.149   4.921  10.094 -0.7317  0.2292  0.6175
    6CHL1    C2  417   1.238   4.915  10.284  0.6705 -1.0910  0.7443
    6CHL1   H2A  418   1.147   4.959  10.331  1.7499  1.7966  0.2917
    6CHL1   H2B  419   1.324   4.962  10.337  0.1592 -0.4288  0.9955
    6CHL1   C20  420   1.444   5.018   9.373  0.5177 -0.2953  0.1297
    6CHL1   H20  421   1.534   5.068   9.414 -0.0198  0.5580  0.2777
    6CHL1   C21  422   1.326   5.115   9.360  0.1223  0.1097 -0.2568
    6CHL1  H21A  423   1.346   5.203   9.295  1.7140 -1.0637 -1.3902
    6CHL1  H21B  424   1.292   5.158   9.456 -1.8280  0.4322 -1.0660
    6CHL1  H21C  425   1.241   5.053   9.323  1.2279 -0.7738 -1.3940
    6CHL1   C22  426   1.489   4.970   9.230  0.2476  0.6427  0.4813
    6CHL1  H22A  427   1.588   4.919   9.227 -0.0196  0.1685 -0.3832
    6CHL1  H22B  428   1.413   4.901   9.187  1.1166  0.1661 -0.3052
    6CHL1   C23  429   1.512   5.090   9.129  0.3392 -0.6436  0.1868
    6CHL1  H23A  430   1.419   5.148   9.114  1.1631  0.6902  0.0997
    6CHL1  H23B  431   1.570   5.164   9.189 -1.8358  1.4634 -0.2458
    6CHL1   C24  432   1.571   5.038   8.999  0.2682 -0.4576  0.0972
    6CHL1  H24A  433   1.669   4.987   9.015  0.2329 -0.5952 -0.1280
    6CHL1  H24B  434   1.506   4.965   8.945  2.8110 -1.5628 -1.5723
    6CHL1   C25  435   1.601   5.149   8.892 -0.4054 -0.3244  0.2664
    6CHL1   H25  436   1.683   5.214   8.929  1.6759 -1.9003 -1.4609
    6CHL1   C26  437   1.665   5.074   8.771  0.3429  0.7905  0.3253
    6CHL1  H26A  438   1.710   5.150   8.704  1.5450 -0.5080 -0.3521
    6CHL1  H26B  439   1.732   4.998   8.817  0.5224  0.2712 -0.7886
    6CHL1  H26C  440   1.591   5.022   8.708  0.9650  0.2722  0.0171
    6CHL1   C27  441   1.484   5.245   8.854  0.0649 -0.1280 -0.0833
    6CHL1  H27A  442   1.525   5.330   8.796 -1.7024  1.5283  1.0283
    6CHL1  H27B  443   1.402   5.189   8.806  0.1319 -2.6257  2.5185
    6CHL1  H27C  444   1.435   5.293   8.942 -0.7679 -1.1188  0.0002
    7CHL1    C3  445   3.839   1.243  10.516  1.0540 -0.1530 -0.2726
    7CHL1    H3  446   3.924   1.174  10.533  0.0596 -1.5950 -1.0231
    7CHL1    O3  447   3.776   1.293  10.632  0.0465  0.3197 -1.0930
    7CHL1   H3'  448   3.767   1.209  10.679  1.6621 -0.1414 -1.5554
    7CHL1    C4  449   3.907   1.363  10.451 -0.3775  0.5466  0.6211
    7CHL1   H4A  450   3.833   1.444  10.436  1.5660  2.0661 -1.1450
    7CHL1   H4B  451   3.989   1.394  10.520  0.2881 -0.3982  0.2612
    7CHL1    C5  452   3.965   1.330  10.317 -0.3070 -0.5492 -0.3017
    7CHL1    C6  453   4.097   1.362  10.293  0.1076 -0.6869  0.1587
    7CHL1    H6  454   4.152   1.399  10.381  0.8664 -0.3154 -0.4667
    7CHL1    C7  455   4.152   1.350  10.155  0.2773 -0.3535 -0.3671
    7CHL1   H7A  456   4.200   1.441  10.113 -0.4625 -0.6000 -1.8091
    7CHL1   H7B  457   4.233   1.274  10.152  1.7324  1.1427  0.0079
    7CHL1    C8  458   4.041   1.311  10.050 -0.5333  0.4471  0.2775
    7CHL1    H8  459   3.991   1.406  10.021  0.9630  0.7171 -1.5328
    7CHL1   C14  460   4.104   1.263   9.923  0.1457 -0.2083  0.0667
    7CHL1   H14  461   4.156   1.166   9.941 -0.6587 -0.6863 -0.1903
    7CHL1   C15  462   4.221   1.348   9.857 -0.5280  0.1719  0.4882
    7CHL1  H15A  463   4.192   1.454   9.841  0.0056 -0.1268 -2.7527
    7CHL1  H15B  464   4.309   1.348   9.925 -0.2795 -1.1955  0.1879
    7CHL1   C16  465   4.240   1.283   9.721  0.0804  0.3135  0.8486
    7CHL1  H16A  466   4.250   1.359   9.640  0.3342 -0.3979  0.2067
    7CHL1  H16B  467   4.333   1.221   9.719 -1.2904 -1.7682  0.4853
    7CHL1   C17  468   4.116   1.189   9.696 -0.1982 -0.1392  0.2506
    7CHL1   H17  469   4.145   1.082   9.707  3.8422  0.8095 -0.4541
    7CHL1   C13  470   4.010   1.228   9.805 -0.5462 -0.3452  0.4345
    7CHL1   C18  471   3.930   1.359   9.768 -0.1283 -0.0797 -0.6176
    7CHL1  H18A  472   4.006   1.431   9.732  1.5862 -1.5696 -0.0232
    7CHL1  H18B  473   3.865   1.344   9.679 -0.9284 -0.8478  0.0870
    7CHL1  H18C  474   3.875   1.403   9.854 -1.5761 -0.8398 -1.1383
    7CHL1   C12  475   3.925   1.116   9.853 -0.0817 -0.0363  0.2659
    7CHL1  H12A  476   3.841   1.102   9.782 -2.2452  1.8029  2.3656
    7CHL1  H12B  477   3.982   1.021   9.868  2.4156  1.6753  2.2010
    7CHL1   C11  478   3.855   1.146   9.985 -0.3814 -0.9417  1.2935
    7CHL1  H11A  479   3.760   1.203   9.970 -0.3802 -1.5445 -1.0584
    7CHL1  H11B  480   3.832   1.044  10.022  1.3515 -2.2526 -1.1688
    7CHL1    C9  481   3.948   1.208  10.096 -0.0301 -0.2930  0.1795
    7CHL1    H9  482   4.004   1.118  10.129  0.4086 -0.6692 -1.5254
    7CHL1   C10  483   3.870   1.262  10.221  0.1783 -0.7163 -0.4004
    7CHL1   C19  484   3.764   1.356  10.165  0.2837  0.0338 -0.4971
    7CHL1  H19A  485   3.780   1.407  10.068 -0.9158  2.4207  0.5281
    7CHL1  H19B  486   3.672   1.294  10.171  0.8693 -0.6045  4.1576
    7CHL1  H19C  487   3.742   1.439  10.234 -2.2193 -2.9747  2.5191
    7CHL1    C1  488   3.806   1.138  10.294 -0.1427 -0.5884 -0.4310
    7CHL1   H1A  489   3.726   1.093  10.231  1.5775 -1.7178 -1.8427
    7CHL1   H1B  490   3.882   1.060  10.313 -0.0543 -0.1315  1.1948
    7CHL1    C2  491   3.736   1.182  10.425 -0.3885  0.3610 -1.1989
    7CHL1   H2A  492   3.688   1.096  10.476 -0.9154 -0.2079 -2.6204
    7CHL1   H2B  493   3.658   1.260  10.406 -1.7488 -0.6399  0.1585
    7CHL1   C20  494   4.060   1.193   9.551  0.1135 -0.4752 -0.5813
    7CHL1   H20  495   4.026   1.299   9.538  2.0102 -0.0544 -2.3589
    7CHL1   C21  496   3.939   1.099   9.530  0.2101  0.0973  0.8998
    7CHL1  H21A  497   3.955   0.996   9.569  2.0811 -0.4341 -1.1990
    7CHL1  H21B  498   3.918   1.106   9.421  1.1233  1.7315  0.8147
    7CHL1  H21C  499   3.850   1.137   9.585  0.2058  0.8344  0.3913
    7CHL1   C22  500   4.166   1.157   9.454 -0.3623 -0.0922 -0.6971
    7CHL1  H22A  501   4.269   1.185   9.486 -1.1785  0.6119  1.4066
    7CHL1  H22B  502   4.164   1.048   9.434  0.3997 -0.2289 -0.0435
    7CHL1   C23  503   4.156   1.235   9.324  0.3561 -0.1188  0.0968
    7CHL1  H23A  504   4.052   1.237   9.285  0.0369 -0.9268  0.8825
    7CHL1  H23B  505   4.175   1.343   9.340 -0.8308  0.2860 -1.1408
    7CHL1   C24  506   4.256   1.197   9.220  0.7242 -0.0163  0.2780
    7CHL1  H24A  507   4.349   1.256   9.237  0.1925  0.7377  0.5693
    7CHL1  H24B  508   4.282   1.089   9.228 -2.0598 -0.8198 -0.8842
    7CHL1   C25  509   4.212   1.226   9.074 -0.0307 -0.1660 -0.1672
    7CHL1   H25  510   4.104   1.200   9.070  0.1608 -1.0877  0.4661
    7CHL1   C26  511   4.222   1.377   9.048  0.1577 -0.3014 -0.8069
    7CHL1  H26A  512   4.327   1.409   9.069  0.2176  0.1218 -1.7204
    7CHL1  H26B  513   4.199   1.419   8.948  0.0355  1.3770 -0.1044
    7CHL1  H26C  514   4.164   1.430   9.127 -0.9099 -0.4328 -1.4995
    7CHL1   C27  515   4.283   1.148   8.964 -0.1046 -0.4171 -0.1568
    7CHL1  H27A  516   4.305   1.041   8.986  1.0756 -0.5582 -1.9665
    7CHL1  H27B  517   4.218   1.150   8.874  1.0796 -1.5919 -1.0542
    7CHL1  H27C  518   4.385   1.187   8.944 -0.4135  1.0954  1.1259
    8CHL1    C3  519   4.212   2.675  10.230 -0.1659  0.0788  0.8820
    8CHL1    H3  520   4.313   2.633  10.208  1.0618  1.9692  2.6558
    8CHL1    O3  521   4.200   2.697  10.369 -0.2569  0.5293 -0.4726
    8CHL1   H3'  522   4.104   2.698  10.374 -0.2693 -2.0672  0.7189
    8CHL1    C4  523   4.170   2.802  10.149  0.2422  0.3681 -0.6598
    8CHL1   H4A  524   4.061   2.808  10.170  0.3177 -1.9978  0.5723
    8CHL1   H4B  525   4.208   2.893  10.201 -0.0716 -0.7872  1.6700
    8CHL1    C5  526   4.186   2.783  10.000  0.1048  0.3622  0.4386
    8CHL1    C6  527   4.275   2.855   9.928  0.4852 -0.1339  0.4669
    8CHL1    H6  528   4.325   2.941   9.976 -1.8324  0.8232  1.2274
    8CHL1    C7  529   4.292   2.845   9.777  0.5801  0.0341  0.7444
    8CHL1   H7A  530   4.294   2.945   9.728  0.1195  0.4659  1.6020
    8CHL1   H7B  531   4.385   2.792   9.749 -1.6802 -4.2685  0.9824
    8CHL1    C8  532   4.179   2.760   9.709 -0.0277 -0.0849  0.8424
    8CHL1    H8  533   4.084   2.818   9.716 -1.1608 -1.6517 -1.3541
    8CHL1   C14  534   4.206   2.717   9.565 -0.5120  0.1629 -0.6735
    8CHL1   H14  535   4.296   2.654   9.579  1.4266  2.7501 -1.0133
    8CHL1   C15  536   4.242   2.830   9.463 -0.1969 -0.1561  0.0671
    8CHL1  H15A  537   4.174   2.918   9.463  0.7328  0.5804  0.6015
    8CHL1  H15B  538   4.346   2.867   9.481 -0.0634 -0.3273 -0.3635
    8CHL1   C16  539   4.245   2.758   9.327 -0.0208 -0.1054 -0.0950
    8CHL1  H16A  540   4.201   2.820   9.246 -2.4528  1.9422  2.7138
    8CHL1  H16B  541   4.345   2.722   9.293  0.2992  0.0912  0.6469
    8CHL1   C17  542   4.156   2.629   9.353  0.2637  0.0321 -0.2954
    8CHL1   H17  543   4.231   2.546   9.345 -1.0229 -1.0419 -1.4919
    8CHL1   C13  544   4.100   2.630   9.496  0.3998 -0.2765  0.2112
    8CHL1   C18  545   3.969   2.713   9.499  0.0815  0.4790 -0.9063
    8CHL1  H18A  546   3.876   2.661   9.464  0.1742  1.3378 -2.4857
    8CHL1  H18B  547   3.933   2.747   9.598  0.8951 -3.4718  0.8525
    8CHL1  H18C  548   3.974   2.806   9.438  0.4782  1.3631  0.4634
    8CHL1   C12  549   4.092   2.498   9.574 -0.0878 -0.1947 -0.8036
    8CHL1  H12A  550   4.013   2.430   9.536 -0.6904 -0.4418  0.8159
    8CHL1  H12B  551   4.192   2.450   9.566  0.1547  0.2767 -0.6060
    8CHL1   C11  552   4.065   2.519   9.731  0.0338 -0.1229  0.5662
    8CHL1  H11A  553   3.957   2.544   9.730 -0.2648 -1.3735 -1.6101
    8CHL1  H11B  554   4.084   2.423   9.785  1.1811 -0.8094 -1.0109
    8CHL1    C9  555   4.151   2.630   9.796  0.2502  0.2014  1.1598
    8CHL1    H9  556   4.256   2.593   9.797  0.2894  0.1438 -1.0163
    8CHL1   C10  557   4.111   2.659   9.944  0.2096 -0.4692 -0.2666
    8CHL1   C19  558   3.959   2.697   9.955 -0.1887  0.1643 -0.0466
    8CHL1  H19A  559   3.939   2.795   9.905  3.1399  2.1275  2.2527
    8CHL1  H19B  560   3.902   2.616   9.904  0.7760  1.0121 -2.5366
    8CHL1  H19C  561   3.925   2.712  10.060 -0.3234 -2.0306  0.2284
    8CHL1    C1  562   4.135   2.534  10.033  0.3490 -0.6005 -0.2890
    8CHL1   H1A  563   4.064   2.451  10.013 -0.7608  0.2113  0.1795
    8CHL1   H1B  564   4.243   2.508  10.025  0.3852 -0.1330 -1.2674
    8CHL1    C2  565   4.118   2.563  10.186 -0.0471  0.4075 -0.6618
    8CHL1   H2A  566   4.136   2.472  10.248 -1.6442 -0.3409 -1.2533
    8CHL1   H2B  567   4.016   2.604  10.203  0.1280  1.0144 -1.0670
    8CHL1   C20  568   4.048   2.599   9.243 -0.3163 -0.4873 -0.1052
    8CHL1   H20  569   3.957   2.663   9.252 -1.8269 -2.7898  1.5064
    8CHL1   C21  570   3.991   2.463   9.270 -0.3384 -0.0714 -0.0949
    8CHL1  H21A  571   4.071   2.386   9.266 -0.7535 -0.5048 -0.1404
    8CHL1  H21B  572   3.916   2.422   9.199  0.2730  0.8416 -1.2876
    8CHL1  H21C  573   3.939   2.453   9.368  2.0923 -0.6432  1.2052
    8CHL1   C22  574   4.086   2.610   9.097 -0.3022 -0.1373 -0.2862
    8CHL1  H22A  575   3.996   2.603   9.033  0.9513  1.2104 -2.2514
    8CHL1  H22B  576   4.121   2.715   9.095  2.0895 -0.8289  2.2176
    8CHL1   C23  577   4.194   2.515   9.043 -0.0069 -0.6350 -0.4018
    8CHL1  H23A  578   4.291   2.538   9.092 -0.7503 -1.2618  1.4323
    8CHL1  H23B  579   4.174   2.415   9.087  2.8593 -0.9380  0.2926
    8CHL1   C24  580   4.194   2.518   8.899  0.5118 -0.1519 -0.2923
    8CHL1  H24A  581   4.287   2.463   8.874 -0.5652 -1.3444 -1.8232
    8CHL1  H24B  582   4.107   2.463   8.856 -0.4245  0.1915  1.1410
    8CHL1   C25  583   4.198   2.659   8.822 -0.9068  0.1215 -1.1461
    8CHL1   H25  584   4.107   2.711   8.859 -0.4866  0.1261 -0.1285
    8CHL1   C26  585   4.325   2.729   8.864  0.1285 -0.7996 -0.6425
    8CHL1  H26A  586   4.326   2.759   8.971 -0.9794  0.4477 -0.9720
    8CHL1  H26B  587   4.414   2.663   8.851  0.1257 -0.6109 -1.6536
    8CHL1  H26C  588   4.339   2.824   8.808  0.9320  0.6739  1.9217
    8CHL1   C27  589   4.185   2.647   8.667 -0.1636  0.2525  0.6894
    8CHL1  H27A  590   4.148   2.746   8.632 -3.5521 -2.1054 -2.7269
    8CHL1  H27B  591   4.288   2.640   8.625 -0.4016 -0.3526  0.2086
    8CHL1  H27C  592   4.117   2.567   8.632 -0.6251  1.2875 -0.8217
    9CHL1    C3  593   0.564   5.736  10.154  0.3941 -0.5550 -0.5202
    9CHL1    H3  594   0.579   5.843  10.179  0.0578 -0.2575 -1.5651
    9CHL1    O3  595   0.555   5.662  10.278  0.1899  0.3260  0.7203
    9CHL1   H3'  596   0.646   5.643  10.303  0.1829 -1.6202 -0.5747
    9CHL1    C4  597   0.439   5.711  10.067 -1.0575  0.2267  0.1931
    9CHL1   H4A  598   0.428   5.601  10.069  0.1192  0.0843 -0.5695
    9CHL1   H4B  599   0.348   5.747  10.118 -0.4529  0.7328  0.9356
    9CHL1    C5  600   0.442   5.771   9.932 -0.0258 -0.2513 -0.2310
    9CHL1    C6  601   0.359   5.863   9.888  0.1621  0.2173 -0.3001
    9CHL1    H6  602   0.278   5.902   9.952 -1.1011 -1.6228 -0.7411
    9CHL1    C7  603   0.351   5.909   9.750 -0.2050 -0.0644 -0.1631
    9CHL1   H7A  604   0.243   5.922   9.725 -0.5278 -1.2947  0.5695
    9CHL1   H7B  605   0.389   6.012   9.740 -1.5553  0.2013 -3.1501
    9CHL1    C8  606   0.430   5.811   9.653  0.5360  0.2340 -0.1298
    9CHL1    H8  607   0.361   5.724   9.648  2.1673 -0.9681 -2.7579
    9CHL1   C14  608   0.457   5.880   9.521 -0.4766  0.1061 -0.6519
    9CHL1   H14  609   0.542   5.949   9.544  3.2138 -4.3868  0.0574
    9CHL1   C15  610   0.347   5.945   9.445  0.7389  0.8303  0.3815
    9CHL1  H15A  611   0.274   5.861   9.452  0.3539  1.1002 -0.3467
    9CHL1  H15B  612   0.300   6.029   9.500  0.5420 -0.0012  1.4955
    9CHL1   C16  613   0.399   5.961   9.301 -0.3971 -0.3288 -0.1976
    9CHL1  H16A  614   0.324   5.924   9.229  2.2684  0.5181 -3.5422
    9CHL1  H16B  615   0.441   6.063   9.287 -1.7049  0.2765  0.2063
    9CHL1   C17  616   0.531   5.874   9.285 -0.2450 -0.9537 -0.2663
    9CHL1   H17  617   0.613   5.946   9.304  0.4373 -2.0033  0.8807
    9CHL1   C13  618   0.534   5.796   9.423  0.3119 -0.9669  0.1284
    9CHL1   C18  619   0.453   5.669   9.392  0.1829  0.0618 -1.0587
    9CHL1  H18A  620   0.445   5.599   9.478  2.0648  2.1199  0.8715
    9CHL1  H18B  621   0.353   5.676   9.345  0.4060  0.5980 -1.4560
    9CHL1  H18C  622   0.514   5.609   9.321  0.1243 -1.7960  0.4236
    9CHL1   C12  623   0.671   5.757   9.478  0.2409  0.2215 -0.3560
    9CHL1  H12A  624   0.710   5.681   9.407  0.9705  1.1577 -0.9565
    9CHL1  H12B  625   0.737   5.845   9.490  1.5773 -0.9335  0.9071
    9CHL1   C11  626   0.647   5.686   9.615 -0.1163  0.0001  0.9161
    9CHL1  H11A  627   0.604   5.586   9.592  1.4931 -0.1834 -1.4884
    9CHL1  H11B  628   0.743   5.667   9.667 -0.5464  0.0490  1.7396
    9CHL1    C9  629   0.565   5.764   9.712  0.2820  0.3620 -0.5745
    9CHL1    H9  630   0.610   5.865   9.720 -2.7562  1.8861 -1.9391
    9CHL1   C10  631   0.562   5.706   9.856  0.3943 -1.0067  0.0985
    9CHL1   C19  632   0.550   5.553   9.843  0.5213 -0.1147 -0.3553
    9CHL1  H19A  633   0.635   5.497   9.799  1.5921  1.3398 -0.1515
    9CHL1  H19B  634   0.529   5.493   9.934 -0.2140 -2.3037 -1.9133
    9CHL1  H19C  635   0.465   5.541   9.771 -2.6659  0.8686  3.0743
    9CHL1    C1  636   0.689   5.746   9.936 -0.3940  0.6385 -0.8365
    9CHL1   H1A  637   0.784   5.711   9.891  0.7053  1.0264  1.1342
    9CHL1   H1B  638   0.701   5.856   9.941 -0.7644  0.6220  0.7190
    9CHL1    C2  639   0.690   5.694  10.083 -0.1237  0.7746  0.1943
    9CHL1   H2A  640   0.778   5.745  10.127  0.0540  2.3077 -1.8705
    9CHL1   H2B  641   0.695   5.583  10.080 -1.0701  0.7422 -0.9179
    9CHL1   C20  642   0.545   5.800   9.155  0.9593 -0.6550  0.3986
    9CHL1   H20  643   0.480   5.710   9.160 -1.7226  1.0291 -2.2664
    9CHL1   C21  644   0.690   5.757   9.137  0.2673 -0.7453  0.4675
    9CHL1  H21A  645   0.731   5.688   9.213  1.6987  1.6381  1.9424
    9CHL1  H21B  646   0.761   5.841   9.120 -1.4306 -0.0280 -3.6814
    9CHL1  H21C  647   0.684   5.687   9.051  0.2609 -0.1387 -0.0327
    9CHL1   C22  648   0.504   5.874   9.023  0.4926 -0.3873  0.1370
    9CHL1  H22A  649   0.397   5.901   9.029  0.8712  1.4080 -0.9308
    9CHL1  H22B  650   0.564   5.968   9.027  0.1715 -0.1918  0.3126
    9CHL1   C23  651   0.518   5.811   8.889 -0.3637 -0.1785  0.5603
    9CHL1  H23A  652   0.624   5.780   8.873 -0.2077  1.9962 -2.9330
    9CHL1  H23B  653   0.445   5.728   8.879 -0.3665  0.0634 -1.6327
    9CHL1   C24  654   0.493   5.907   8.776 -0.1674  0.8988  0.1634
    9CHL1  H24A  655   0.401   5.966   8.797 -1.3149 -0.1327 -1.7644
    9CHL1  H24B  656   0.571   5.985   8.766  1.5925 -0.6301  1.6218
    9CHL1   C25  657   0.482   5.850   8.628 -0.3883 -0.0051 -0.2696
    9CHL1   H25  658   0.387   5.792   8.635 -0.5963 -0.0272 -2.8161
    9CHL1   C26  659   0.471   5.949   8.512  0.3029  0.0543 -0.6110
    9CHL1  H26A  660   0.402   6.033   8.537  1.9608  1.0360  0.7756
    9CHL1  H26B  661   0.567   5.992   8.477 -0.9907  2.2211 -1.6180
    9CHL1  H26C  662   0.429   5.906   8.419  0.9495  0.4724 -1.0944
    9CHL1   C27  663   0.597   5.747   8.606  0.0205  0.3677  0.7529
    9CHL1  H27A  664   0.693   5.804   8.604  0.7398 -0.8652 -2.4548
    9CHL1  H27B  665   0.606   5.673   8.689  1.5812  0.5389  0.7664
    9CHL1  H27C  666   0.585   5.698   8.507 -1.5100 -2.1771  2.1430
   10CHL1    C3  667   6.466   3.111  10.005  0.3817  0.1681 -0.3446
   10CHL1    H3  668   6.526   3.202  10.028 -0.6769  0.9254 -0.4870
   10CHL1    O3  669   6.474   3.022  10.115  0.0075  0.2016  0.4404
   10CHL1   H3'  670   6.410   3.059  10.175 -1.6164 -0.6255 -0.7605
   10CHL1    C4  671   6.324   3.149   9.976 -0.0784  0.1836 -0.2219
   10CHL1   H4A  672   6.265   3.055   9.970 -0.1019 -0.0919  3.1231
   10CHL1   H4B  673   6.285   3.208  10.062  1.1733  0.7323 -0.0144
   10CHL1    C5  674   6.301   3.222   9.843 -0.3167 -0.5700  0.0781
   10CHL1    C6  675   6.225   3.334   9.835  0.0535 -0.8043 -0.4199
   10CHL1    H6  676   6.179   3.360   9.931  0.0182  0.0526 -0.6577
   10CHL1    C7  677   6.191   3.410   9.717 -0.0478  0.5598  0.1773
   10CHL1   H7A  678   6.081   3.428   9.711 -0.5526 -2.4344 -0.7144
   10CHL1   H7B  679   6.251   3.503   9.709 -0.4187  0.7665 -0.3102
   10CHL1    C8  680   6.230   3.343   9.584  0.0510 -0.2734  0.5749
   10CHL1    H8  681   6.151   3.267   9.568  0.3304 -0.5710  0.5920
   10CHL1   C14  682   6.234   3.444   9.470 -0.0889  0.5584 -0.7872
   10CHL1   H14  683   6.316   3.515   9.495 -1.0829  1.0557  1.2330
   10CHL1   C15  684   6.104   3.524   9.440  0.4579  0.5472  0.3840
   10CHL1  H15A  685   6.013   3.460   9.442  0.3965  0.6070 -0.3483
   10CHL1  H15B  686   6.089   3.608   9.512  1.7235  0.6275  0.5553
   10CHL1   C16  687   6.129   3.580   9.300 -0.3433  0.4932 -0.2463
   10CHL1  H16A  688   6.040   3.557   9.238 -0.1434 -1.5985  0.1763
   10CHL1  H16B  689   6.137   3.690   9.293  0.7643  0.3705 -0.9862
   10CHL1   C17  690   6.257   3.514   9.240 -0.0707 -0.3997  0.1358
   10CHL1   H17  691   6.342   3.575   9.277 -0.3212  0.8941 -1.3874
   10CHL1   C13  692   6.261   3.385   9.331  0.0168 -0.2403 -0.5059
   10CHL1   C18  693   6.149   3.282   9.291  0.4485  0.0396 -0.8379
   10CHL1  H18A  694   6.173   3.260   9.184  1.6636  2.6374 -1.1283
   10CHL1  H18B  695   6.153   3.191   9.354  0.0797  1.3821  1.1774
   10CHL1  H18C  696   6.046   3.324   9.290  0.2360 -0.4318  0.2777
   10CHL1   C12  697   6.394   3.306   9.339 -0.0902 -0.5154  0.0529
   10CHL1  H12A  698   6.421   3.265   9.239  0.5836  2.0773 -0.8704
   10CHL1  H12B  699   6.479   3.377   9.355 -0.4912 -0.0689  0.2017
   10CHL1   C11  700   6.411   3.209   9.462  0.0579 -0.5933 -0.6610
   10CHL1  H11A  701   6.340   3.128   9.438  0.2864 -0.4711 -1.7971
   10CHL1  H11B  702   6.518   3.179   9.467 -0.0770 -0.6128  2.7271
   10CHL1    C9  703   6.365   3.271   9.597 -1.1535  0.5160 -0.2131
   10CHL1    H9  704   6.439   3.350   9.619  0.5445 -1.2443  0.5608
   10CHL1   C10  705   6.379   3.172   9.720 -0.0828  0.5336 -0.3850
   10CHL1   C19  706   6.303   3.038   9.680 -0.4911  0.1408 -0.1216
   10CHL1  H19A  707   6.201   3.060   9.641 -0.5594  0.1895  0.0854
   10CHL1  H19B  708   6.367   2.980   9.610  0.4846 -1.7682  2.2698
   10CHL1  H19C  709   6.282   2.975   9.769 -0.2570 -1.2142 -1.0194
   10CHL1    C1  710   6.522   3.125   9.752 -0.0171  0.7751 -0.2082
   10CHL1   H1A  711   6.569   3.066   9.671  2.7236  3.0232 -0.3325
   10CHL1   H1B  712   6.573   3.224   9.755 -0.9200  1.2552 -0.2350
   10CHL1    C2  713   6.531   3.039   9.880  0.1454  0.0633 -0.6972
   10CHL1   H2A  714   6.638   3.023   9.902  0.4980 -0.2365 -2.5120
   10CHL1   H2B  715   6.500   2.935   9.855  0.3897 -0.6982  2.0552
   10CHL1   C20  716   6.271   3.501   9.087 -0.3430 -0.2669  0.5928
   10CHL1   H20  717   6.204   3.417   9.059  0.4039 -1.1079  1.2973
   10CHL1   C21  718   6.421   3.463   9.038 -0.0257 -0.3405  0.2228
   10CHL1  H21A  719   6.445   3.355   9.050  0.7742 -0.0617  1.2702
   10CHL1  H21B  720   6.496   3.516   9.101 -0.9223 -1.6861  2.4914
   10CHL1  H21C  721   6.418   3.490   8.930  0.5815  0.2982  0.3632
   10CHL1   C22  722   6.214   3.623   9.009  0.1914 -0.1446  0.1035
   10CHL1  H22A  723   6.225   3.598   8.901  2.7441  0.4577  0.2032
   10CHL1  H22B  724   6.106   3.638   9.029  0.9518  0.5931  4.0581
   10CHL1   C23  725   6.292   3.755   9.021 -0.8005 -0.0386 -0.0393
   10CHL1  H23A  726   6.269   3.807   9.116 -0.1670  2.1557 -1.0736
   10CHL1  H23B  727   6.401   3.731   9.022 -0.9636 -0.7789  0.5047
   10CHL1   C24  728   6.269   3.846   8.897 -0.1218  0.5876 -1.6190
   10CHL1  H24A  729   6.296   3.783   8.809  0.5039 -0.2243 -0.8613
   10CHL1  H24B  730   6.160   3.845   8.876 -0.4391  1.3273 -0.0773
   10CHL1   C25  731   6.326   3.990   8.898  0.0914 -0.1821 -0.0785
   10CHL1   H25  732   6.436   3.976   8.896 -0.0201 -0.9798 -2.9133
   10CHL1   C26  733   6.302   4.069   8.769 -0.9417  0.4894  0.3024
   10CHL1  H26A  734   6.372   4.156   8.766  0.6558 -0.7445  0.9178
   10CHL1  H26B  735   6.322   3.994   8.690 -0.3722 -0.4285  1.2950
   10CHL1  H26C  736   6.203   4.119   8.764 -1.2546 -0.1544 -0.0189
   10CHL1   C27  737   6.289   4.066   9.023 -0.5583  0.2578  0.0690
   10CHL1  H27A  738   6.179   4.070   9.032 -0.6938 -1.3129 -0.7451
   10CHL1  H27B  739   6.342   4.021   9.110  0.5863  1.2547 -0.1044
   10CHL1  H27C  740   6.323   4.172   9.023  1.5620 -0.3868 -0.7565
   11CHL1    C3  741   2.101   6.158  10.199 -0.0656  0.4720  0.0373
   11CHL1    H3  742   2.136   6.264  10.189 -1.6945  1.0323  0.1782
   11CHL1    O3  743   2.110   6.126  10.334  0.8921  0.4298  0.4070
   11CHL1   H3'  744   2.178   6.059  10.345  0.1467 -0.1894  1.3152
   11CHL1    C4  745   1.954   6.155  10.163  0.3477 -0.2119  0.6810
   11CHL1   H4A  746   1.893   6.066  10.189 -2.3675  1.6951  1.0404
   11CHL1   H4B  747   1.911   6.224  10.239  1.6912 -0.6819  1.9006
   11CHL1    C5  748   1.941   6.195  10.013  0.1866 -0.1363 -1.2832
   11CHL1    C6  749   1.875   6.308   9.981 -1.1762  0.1851 -0.1259
   11CHL1    H6  750   1.820   6.354  10.064  2.5956  1.1009  1.9831
   11CHL1    C7  751   1.854   6.372   9.843  0.2964 -0.2859 -0.0901
   11CHL1   H7A  752   1.749   6.393   9.815 -0.1745 -2.6068 -0.2159
   11CHL1   H7B  753   1.899   6.473   9.834  0.0815 -0.2304 -0.5748
   11CHL1    C8  754   1.907   6.272   9.738 -0.4438 -0.2733  0.7473
   11CHL1    H8  755   1.831   6.193   9.720 -0.2500 -0.8668  2.4303
   11CHL1   C14  756   1.922   6.343   9.598 -0.3261 -0.2770 -0.0538
   11CHL1   H14  757   1.992   6.428   9.613  0.3796 -0.8047 -0.2759
   11CHL1   C15  758   1.810   6.427   9.532  0.7545 -0.2187 -0.1403
   11CHL1  H15A  759   1.723   6.358   9.539  0.1547  0.2679 -2.3795
   11CHL1  H15B  760   1.785   6.524   9.581  0.1323  0.0187 -0.9206
   11CHL1   C16  761   1.856   6.455   9.390  0.5427  0.0867 -0.7110
   11CHL1  H16A  762   1.772   6.413   9.331  0.1161 -0.6564  0.4092
   11CHL1  H16B  763   1.869   6.564   9.371  1.1924  0.3103  0.8970
   11CHL1   C17  764   1.984   6.363   9.369 -0.3726  1.0458  0.8619
   11CHL1   H17  765   2.078   6.421   9.384  0.8408 -0.3399 -1.1557
   11CHL1   C13  766   1.980   6.255   9.484 -0.3288  0.4132  0.0759
   11CHL1   C18  767   1.883   6.144   9.443  0.3311  0.2361 -0.8042
   11CHL1  H18A  768   1.798   6.199   9.397 -0.2810  1.4906  1.7561
   11CHL1  H18B  769   1.924   6.085   9.359  1.7593 -0.0728  0.0954
   11CHL1  H18C  770   1.843   6.086   9.528  0.4105  0.6196 -0.5035
   11CHL1   C12  771   2.114   6.191   9.532  0.2065 -0.5876  0.6623
   11CHL1  H12A  772   2.150   6.124   9.451  0.1534  0.4858 -0.2702
   11CHL1  H12B  773   2.186   6.275   9.544  2.3377 -2.3649  0.5854
   11CHL1   C11  774   2.105   6.119   9.673  0.0320  0.0717  0.4278
   11CHL1  H11A  775   2.038   6.030   9.663  0.2064  0.0634 -0.7368
   11CHL1  H11B  776   2.204   6.091   9.714  0.2628 -2.8666 -1.9248
   11CHL1    C9  777   2.035   6.203   9.786 -0.0857 -0.1536  0.1997
   11CHL1    H9  778   2.105   6.289   9.793  0.4055 -0.4496 -0.9409
   11CHL1   C10  779   2.031   6.120   9.920  0.9337 -0.6845 -0.5468
   11CHL1   C19  780   1.959   5.985   9.892 -0.3572 -0.4109  0.6557
   11CHL1  H19A  781   1.859   5.990   9.845 -1.3290  1.6182  2.8558
   11CHL1  H19B  782   2.021   5.918   9.828 -1.3031 -0.3536 -0.3392
   11CHL1  H19C  783   1.945   5.922   9.983  0.8958 -0.1336  1.0495
   11CHL1    C1  784   2.175   6.089   9.972 -0.2180  0.2276  0.0995
   11CHL1   H1A  785   2.223   6.007   9.914 -0.7296 -0.9902  1.3892
   11CHL1   H1B  786   2.236   6.178   9.942 -0.2711  0.3476  0.3488
   11CHL1    C2  787   2.182   6.064  10.117 -0.2615 -0.5815 -0.1218
   11CHL1   H2A  788   2.286   6.059  10.154  0.5646  1.2396 -2.0960
   11CHL1   H2B  789   2.137   5.964  10.139 -0.5238 -0.3467  0.4043
   11CHL1   C20  790   1.977   6.321   9.224 -0.7147 -0.3813 -0.2055
   11CHL1   H20  791   1.871   6.291   9.208 -1.0159 -0.0395  1.1078
   11CHL1   C21  792   2.077   6.220   9.176 -0.3775  0.9758  0.0247
   11CHL1  H21A  793   2.179   6.263   9.177  0.0461  0.0156  3.0714
   11CHL1  H21B  794   2.050   6.191   9.072  0.3099 -1.2291  0.4325
   11CHL1  H21C  795   2.070   6.136   9.248  0.7753  2.2611  1.6789
   11CHL1   C22  796   1.988   6.458   9.139  0.1181 -0.0287  0.5344
   11CHL1  H22A  797   1.921   6.540   9.171 -1.0510 -0.3337 -1.0577
   11CHL1  H22B  798   2.091   6.497   9.146 -0.0281  0.4119  0.2668
   11CHL1   C23  799   1.981   6.441   8.991 -1.0545  0.2065  0.7394
   11CHL1  H23A  800   2.034   6.348   8.960 -0.5471  0.6727  0.1864
   11CHL1  H23B  801   1.873   6.426   8.970 -0.5641 -3.0391  0.3254
   11CHL1   C24  802   2.028   6.571   8.912  0.0686 -0.1541  0.0278
   11CHL1  H24A  803   1.962   6.655   8.940 -1.3542 -1.2263 -0.0304
   11CHL1  H24B  804   2.133   6.595   8.938  0.1213 -0.5418  0.1747
   11CHL1   C25  805   2.033   6.554   8.757  0.2051 -0.2045 -0.5994
   11CHL1   H25  806   1.935   6.533   8.709 -1.5786  1.6702  2.0514
   11CHL1   C26  807   2.082   6.693   8.687  0.6411  0.5039  0.0397
   11CHL1  H26A  808   2.091   6.677   8.577  1.4103  1.3105 -0.0169
   11CHL1  H26B  809   2.013   6.778   8.708 -1.0877 -1.0245  0.7522
   11CHL1  H26C  810   2.178   6.719   8.735  1.8979 -1.7772 -1.1569
   11CHL1   C27  811   2.132   6.446   8.714  0.3181  0.7173 -0.7900
   11CHL1  H27A  812   2.104   6.347   8.757  1.1372  1.0868  0.6509
   11CHL1  H27B  813   2.138   6.443   8.603  2.3240  0.2831 -0.6910
   11CHL1  H27C  814   2.233   6.472   8.753  0.5125 -2.2805  0.8908
   12CHL1    C3  815   4.825   2.588  10.351 -0.0555 -0.1716  0.3111
   12CHL1    H3  816   4.861   2.685  10.311 -2.1866  1.6333  2.6458
   12CHL1    O3  817   4.821   2.613  10.493 -0.6399 -0.6223  0.3834
   12CHL1   H3'  818   4.754   2.678  10.513  0.6476  0.1400  2.5288
   12CHL1    C4  819   4.683   2.544  10.306  0.3656  0.0582 -0.1728
   12CHL1   H4A  820   4.646   2.459  10.367  0.5793 -0.3798 -0.6584
   12CHL1   H4B  821   4.617   2.634  10.311  0.2716  0.0653 -1.6034
   12CHL1    C5  822   4.689   2.522  10.156  0.0140  0.1316  0.8854
   12CHL1    C6  823   4.609   2.596  10.071 -0.2858 -0.3751  0.5287
   12CHL1    H6  824   4.543   2.676  10.108  1.7965  2.2584 -1.3336
   12CHL1    C7  825   4.607   2.571   9.924 -0.7266 -0.1811 -0.0646
   12CHL1   H7A  826   4.502   2.569   9.888 -0.5731 -0.6770 -0.4851
   12CHL1   H7B  827   4.652   2.658   9.870  1.2032 -0.1368  1.5364
   12CHL1    C8  828   4.688   2.441   9.878  0.5571  0.4404 -0.0572
   12CHL1    H8  829   4.614   2.360   9.890  1.9498 -0.9997 -1.0171
   12CHL1   C14  830   4.734   2.441   9.731  1.0605 -0.4673  0.0090
   12CHL1   H14  831   4.828   2.500   9.726  1.4203 -1.1707 -1.9811
   12CHL1   C15  832   4.638   2.508   9.629 -0.5407 -0.9742 -0.6345
   12CHL1  H15A  833   4.536   2.474   9.653  0.0414 -1.6680  0.9021
   12CHL1  H15B  834   4.655   2.618   9.632  3.1119 -1.4909  0.5237
   12CHL1   C16  835   4.669   2.440   9.494 -0.9791  0.2627  0.4292
   12CHL1  H16A  836   4.578   2.383   9.466  0.8751 -2.2099 -0.7798
   12CHL1  H16B  837   4.693   2.508   9.410  0.8986  0.4273  1.0707
   12CHL1   C17  838   4.787   2.351   9.522 -0.7137  0.2884  0.6938
   12CHL1   H17  839   4.872   2.422   9.514  1.1850 -2.0174 -0.1179
   12CHL1   C13  840   4.780   2.311   9.673  0.6156 -0.1211  0.4279
   12CHL1   C18  841   4.672   2.196   9.694 -0.1965 -0.7016 -0.8931
   12CHL1  H18A  842   4.576   2.243   9.665 -0.1765 -0.4199 -0.5057
   12CHL1  H18B  843   4.692   2.106   9.632  1.2448 -1.2531  0.3544
   12CHL1  H18C  844   4.653   2.166   9.799 -0.6000 -1.9096 -1.3076
   12CHL1   C12  845   4.905   2.273   9.755  0.2254 -0.2090  0.5683
   12CHL1  H12A  846   4.935   2.168   9.734  0.9322 -0.2370  1.7104
   12CHL1  H12B  847   4.989   2.335   9.716 -0.4413  0.0461 -0.4943
   12CHL1   C11  848   4.884   2.279   9.910 -0.3791  0.3683 -0.2556
   12CHL1  H11A  849   4.825   2.188   9.932  1.8766 -1.0137  0.2087
   12CHL1  H11B  850   4.975   2.252   9.967 -0.5657  0.5798  0.1473
   12CHL1    C9  851   4.808   2.409   9.958  0.2840  1.2255  0.8156
   12CHL1    H9  852   4.876   2.493   9.932  2.5979 -0.7680  0.3054
   12CHL1   C10  853   4.788   2.412  10.115  0.8117  0.2910 -0.3019
   12CHL1   C19  854   4.735   2.273  10.164 -0.7276 -0.3793  0.6426
   12CHL1  H19A  855   4.633   2.269  10.122 -0.2184 -0.9565 -0.5507
   12CHL1  H19B  856   4.796   2.187  10.129 -0.4086  0.4284 -0.8414
   12CHL1  H19C  857   4.725   2.275  10.275 -0.5908  2.6530  0.6523
   12CHL1    C1  858   4.929   2.444  10.179 -0.3035  0.8261  0.1416
   12CHL1   H1A  859   4.997   2.358  10.165  0.0961  1.0969  0.4237
   12CHL1   H1B  860   4.980   2.526  10.124  0.0755  0.1991 -0.4456
   12CHL1    C2  861   4.918   2.472  10.325  0.4650 -0.1362  0.2818
   12CHL1   H2A  862   5.020   2.492  10.366  1.3890  2.3359 -3.0410
   12CHL1   H2B  863   4.875   2.381  10.372 -0.6267  0.7695  1.0938
   12CHL1   C20  864   4.809   2.240   9.419 -0.7444 -0.2294 -0.2935
   12CHL1   H20  865   4.734   2.159   9.436 -0.4981 -0.2227  0.8536
   12CHL1   C21  866   4.956   2.193   9.429  0.0919 -0.5046 -0.7649
   12CHL1  H21A  867   4.976   2.159   9.532 -2.9108  1.7653  0.6534
   12CHL1  H21B  868   5.025   2.279   9.416 -0.7585  0.1452 -1.0169
   12CHL1  H21C  869   4.980   2.115   9.353 -0.3394 -1.0046 -0.3843
   12CHL1   C22  870   4.792   2.292   9.270 -0.5466  0.3226 -0.6566
   12CHL1  H22A  871   4.684   2.319   9.272 -0.2715  1.3735  0.0673
   12CHL1  H22B  872   4.866   2.372   9.250  0.7834 -0.8184 -0.4029
   12CHL1   C23  873   4.802   2.191   9.162  0.3577  0.3006 -0.5239
   12CHL1  H23A  874   4.908   2.169   9.136  0.8039  2.8768 -1.0510
   12CHL1  H23B  875   4.739   2.105   9.193 -1.2563  1.7654  0.3419
   12CHL1   C24  876   4.719   2.236   9.039 -0.0944 -0.1212 -0.2479
   12CHL1  H24A  877   4.616   2.272   9.061 -0.2293 -0.7621  0.1909
   12CHL1  H24B  878   4.788   2.317   9.009 -0.3924  0.5591  0.8805
   12CHL1   C25  879   4.709   2.138   8.921  0.1094 -0.2324  0.2624
   12CHL1   H25  880   4.812   2.098   8.914 -0.3117 -1.4301  0.8600
   12CHL1   C26  881   4.599   2.030   8.962  0.1527 -0.0242  0.3910
   12CHL1  H26A  882   4.603   1.953   8.882  0.4542  0.2019  0.1877
   12CHL1  H26B  883   4.613   1.995   9.067 -1.9679 -1.5192  0.2104
   12CHL1  H26C  884   4.499   2.076   8.948  0.7242  1.0866 -0.0631
   12CHL1   C27  885   4.677   2.193   8.778  0.1566  0.5899  0.0258
   12CHL1  H27A  886   4.570   2.219   8.792 -0.2395 -1.7073  1.6493
   12CHL1  H27B  887   4.736   2.277   8.736  1.7101 -0.9969 -1.0783
   12CHL1  H27C  888   4.690   2.112   8.703 -0.8475  0.9446 -0.5483
   13CHL1    C3  889   4.124   4.860   9.855 -0.1242  0.4378 -1.7415
   13CHL1    H3  890   4.211   4.919   9.818  1.2528 -1.0642 -0.9838
   13CHL1    O3  891   4.124   4.876   9.994  0.4688 -0.6512 -0.0323
   13CHL1   H3'  892   4.052   4.822  10.027  0.9560 -0.6215  1.1094
   13CHL1    C4  893   3.990   4.898   9.790 -0.1444  0.0574  0.3541
   13CHL1   H4A  894   3.903   4.850   9.839 -0.4494 -1.4698 -1.6085
   13CHL1   H4B  895   3.969   5.006   9.803 -0.9655  0.0458 -0.7770
   13CHL1    C5  896   3.999   4.864   9.640 -0.7642 -0.4048 -0.3445
   13CHL1    C6  897   3.978   4.966   9.546 -0.0150  0.7926 -0.1741
   13CHL1    H6  898   3.949   5.059   9.597  2.4400  1.0334  0.8166
   13CHL1    C7  899   3.974   4.946   9.398 -0.8659 -0.6316  0.2659
   13CHL1   H7A  900   3.885   4.990   9.349  0.0199  1.0116  0.0805
   13CHL1   H7B  901   4.067   4.995   9.362  0.0945 -1.0213  2.1475
   13CHL1    C8  902   3.979   4.791   9.360 -0.2286 -0.4151  0.2792
   13CHL1    H8  903   3.877   4.752   9.376 -0.6073 -0.2750 -1.6631
   13CHL1   C14  904   4.018   4.774   9.208 -0.5259  0.8893 -0.0393
   13CHL1   H14  905   4.116   4.826   9.198  0.2573 -0.6912 -0.7248
   13CHL1   C15  906   3.927   4.846   9.103  0.7197  0.8474  0.0854
   13CHL1  H15A  907   3.820   4.819   9.115  0.7117  0.7371 -0.2438
   13CHL1  H15B  908   3.946   4.956   9.104  1.4750  0.7488 -1.4186
   13CHL1   C16  909   3.968   4.781   8.971 -0.4801  0.3250 -0.5298
   13CHL1  H16A  910   3.876   4.749   8.917  0.7840 -1.4506 -1.6873
   13CHL1  H16B  911   4.011   4.843   8.889 -0.1305  2.2446  1.0727
   13CHL1   C17  912   4.067   4.663   9.001  0.7354  0.1229 -0.2747
   13CHL1   H17  913   4.173   4.695   9.010  0.3012  2.0014 -1.6294
   13CHL1   C13  914   4.038   4.629   9.153 -0.4139 -0.4713 -0.7931
   13CHL1   C18  915   3.907   4.550   9.155  0.3229 -1.0045 -0.2722
   13CHL1  H18A  916   3.920   4.441   9.135  2.4522 -1.0722  1.2501
   13CHL1  H18B  917   3.863   4.552   9.257  0.3533  0.0051 -0.2784
   13CHL1  H18C  918   3.836   4.595   9.083 -1.8055  0.6616  2.7236
   13CHL1   C12  919   4.142   4.560   9.241 -0.2919  0.4764  0.0742
   13CHL1  H12A  920   4.159   4.457   9.205 -1.4616  0.0943  0.5908
   13CHL1  H12B  921   4.241   4.609   9.229 -0.1970  0.3429  0.3192
   13CHL1   C11  922   4.103   4.562   9.391  0.2631  0.1591  0.4278
   13CHL1  H11A  923   4.013   4.499   9.408 -0.5718  1.2157 -0.0219
   13CHL1  H11B  924   4.187   4.507   9.438 -0.4229  1.3125  3.1004
   13CHL1    C9  925   4.070   4.708   9.451  0.0078  0.3225 -0.3160
   13CHL1    H9  926   4.170   4.756   9.442  1.1973 -1.2916  3.2639
   13CHL1   C10  927   4.041   4.720   9.599  0.4463 -0.7793  0.1439
   13CHL1   C19  928   3.928   4.627   9.645 -0.1061  0.0108  0.2581
   13CHL1  H19A  929   3.959   4.522   9.668 -1.7281 -0.0101  2.5067
   13CHL1  H19B  930   3.879   4.661   9.738  2.7115  1.4140  1.3030
   13CHL1  H19C  931   3.857   4.616   9.560 -0.2355 -2.2910  0.6121
   13CHL1    C1  932   4.164   4.684   9.686 -0.6686 -0.9024  0.0700
   13CHL1   H1A  933   4.184   4.575   9.675 -0.2358 -0.6426 -1.9506
   13CHL1   H1B  934   4.254   4.732   9.642 -1.0480 -0.8645 -0.6882
   13CHL1    C2  935   4.149   4.715   9.832  0.2218 -0.4687  1.0306
   13CHL1   H2A  936   4.244   4.681   9.878  0.4362 -0.3343  0.6879
   13CHL1   H2B  937   4.064   4.658   9.875  0.7407 -0.1933  2.4431
   13CHL1   C20  938   4.067   4.552   8.892 -0.0588  0.1424  0.5024
   13CHL1   H20  939   3.968   4.508   8.871 -0.1216  0.1112  0.8738
   13CHL1   C21  940   4.154   4.424   8.928 -0.4322  0.6731  0.3995
   13CHL1  H21A  941   4.102   4.379   9.015  1.2773 -0.5782  0.8065
   13CHL1  H21B  942   4.256   4.466   8.943 -0.1738  0.5676 -0.9695
   13CHL1  H21C  943   4.149   4.344   8.850 -1.6765  0.1359  1.0111
   13CHL1   C22  944   4.124   4.611   8.763 -0.0919 -0.1733  0.7246
   13CHL1  H22A  945   4.069   4.702   8.731  0.7176  0.6036  1.5306
   13CHL1  H22B  946   4.226   4.646   8.790 -0.1522  0.4142  0.1962
   13CHL1   C23  947   4.141   4.517   8.641  0.1520  0.8940  0.4485
   13CHL1  H23A  948   4.204   4.427   8.661 -1.9870 -0.6724  0.3508
   13CHL1  H23B  949   4.042   4.480   8.606  1.0321 -0.8108 -0.3139
   13CHL1   C24  950   4.202   4.600   8.527  0.3330 -0.5437  0.4815
   13CHL1  H24A  951   4.168   4.706   8.521  0.0679 -0.4960  2.6506
   13CHL1  H24B  952   4.309   4.590   8.551  1.1644  1.1523 -2.2328
   13CHL1   C25  953   4.160   4.542   8.392  0.4425 -0.4917 -0.6665
   13CHL1   H25  954   4.162   4.432   8.402  0.5894 -0.2147  3.5791
   13CHL1   C26  955   4.019   4.594   8.357  1.0782 -0.5528  0.5451
   13CHL1  H26A  956   4.026   4.705   8.346 -1.0934 -0.2178  2.1124
   13CHL1  H26B  957   3.992   4.554   8.257 -2.2134  0.1442  1.1018
   13CHL1  H26C  958   3.940   4.574   8.432  1.3558  0.4488  1.1183
   13CHL1   C27  959   4.263   4.575   8.282  0.4096 -0.1835  0.4190
   13CHL1  H27A  960   4.277   4.685   8.274 -0.2547 -0.1082  0.2816
   13CHL1  H27B  961   4.361   4.524   8.291 -0.4814 -2.0585 -0.3358
   13CHL1  H27C  962   4.224   4.537   8.186 -1.5016  1.7515  0.3928
   14CHL1    C3  963   3.195   1.120  10.424  0.0064 -0.1970  0.0239
   14CHL1    H3  964   3.207   1.229  10.439  1.3219 -0.5037  1.3184
   14CHL1    O3  965   3.158   1.068  10.544  0.1482 -0.6006  0.1694
   14CHL1   H3'  966   3.090   1.124  10.582  1.5853  1.2130  0.1729
   14CHL1    C4  967   3.087   1.092  10.313 -0.1691  0.4419  0.1653
   14CHL1   H4A  968   3.064   0.984  10.314 -0.4300  0.4988  0.3014
   14CHL1   H4B  969   2.992   1.137  10.349  0.5718  1.9051  0.3576
   14CHL1    C5  970   3.125   1.147  10.179 -0.3346 -0.0343  1.1137
   14CHL1    C6  971   3.039   1.220  10.102  0.2794 -0.5472 -0.4577
   14CHL1    H6  972   2.942   1.246  10.147 -0.5705 -3.4473 -0.4889
   14CHL1    C7  973   3.080   1.260   9.961 -0.7108  0.4571  0.2403
   14CHL1   H7A  974   2.997   1.235   9.891  0.2173  0.3604 -0.8442
   14CHL1   H7B  975   3.085   1.371   9.952  1.7376  0.4250  0.8545
   14CHL1    C8  976   3.209   1.189   9.907 -0.5854 -0.7719  0.4618
   14CHL1    H8  977   3.175   1.089   9.871 -0.1121 -0.8301  0.1726
   14CHL1   C14  978   3.260   1.266   9.786 -0.2383 -0.4669  0.5663
   14CHL1   H14  979   3.299   1.353   9.844  2.0363  0.1272 -1.7221
   14CHL1   C15  980   3.153   1.310   9.689  0.4559 -0.0854 -0.1861
   14CHL1  H15A  981   3.092   1.218   9.680 -1.4444  1.0843  0.5438
   14CHL1  H15B  982   3.108   1.410   9.700 -0.9236 -0.6543 -0.6207
   14CHL1   C16  983   3.234   1.324   9.559 -0.4853  0.0742  0.5124
   14CHL1  H16A  984   3.210   1.247   9.483 -0.9927 -2.0205  2.7366
   14CHL1  H16B  985   3.218   1.427   9.520 -1.4024 -0.3441 -0.2204
   14CHL1   C17  986   3.387   1.297   9.601  0.4058 -0.0059 -0.3109
   14CHL1   H17  987   3.415   1.392   9.652  1.9356 -0.2806 -0.6234
   14CHL1   C13  988   3.377   1.193   9.710 -1.2895 -0.1653 -0.4754
   14CHL1   C18  989   3.343   1.050   9.658 -0.2799 -0.2752 -0.3198
   14CHL1  H18A  990   3.239   1.057   9.620  0.3353 -0.1634 -2.0539
   14CHL1  H18B  991   3.408   1.011   9.577 -0.8424  2.1969 -2.0362
   14CHL1  H18C  992   3.331   0.985   9.747 -0.5647 -0.6400 -0.6237
   14CHL1   C12  993   3.496   1.185   9.809 -0.5929 -0.1172  0.6316
   14CHL1  H12A  994   3.576   1.116   9.776 -1.0336 -1.9027  3.1458
   14CHL1  H12B  995   3.530   1.287   9.838  2.0234 -0.9218  0.4315
   14CHL1   C11  996   3.455   1.125   9.945  0.2575  0.9000  0.0309
   14CHL1  H11A  997   3.433   1.017   9.928  1.0011  0.0490  3.9007
   14CHL1  H11B  998   3.531   1.140  10.025 -0.0711  2.1870  0.1103
   14CHL1    C9  999   3.313   1.171  10.008 -0.2326 -0.3258  0.9169
   14CHL1    H9 1000   3.328   1.275  10.044  1.6135  0.3558 -1.6856
   14CHL1   C10 1001   3.265   1.095  10.135 -0.0991  0.1197  0.3890
   14CHL1   C19 1002   3.260   0.941  10.105 -0.6812 -0.1385  0.1234
   14CHL1  H19A 1003   3.206   0.887  10.186  0.7504  2.0533  2.6287
   14CHL1  H19B 1004   3.221   0.913  10.005  0.5875  0.6895 -0.6161
   14CHL1  H19C 1005   3.362   0.899  10.114 -0.6084 -0.0248 -0.1862
   14CHL1    C1 1006   3.366   1.113  10.245 -0.2148 -0.5648 -0.4722
   14CHL1   H1A 1007   3.457   1.057  10.214  0.2509 -0.1343  0.1016
   14CHL1   H1B 1008   3.394   1.221  10.251  1.3355 -0.8865 -1.4910
   14CHL1    C2 1009   3.326   1.062  10.381 -0.0079  0.0979  0.1242
   14CHL1   H2A 1010   3.405   1.095  10.453  2.6669  1.6593 -3.3664
   14CHL1   H2B 1011   3.313   0.952  10.375  0.3271  0.0928 -0.5371
   14CHL1   C20 1012   3.474   1.265   9.479 -0.3194 -0.1467  0.1091
   14CHL1   H20 1013   3.442   1.164   9.443 -0.9839 -0.1934  0.8195
   14CHL1   C21 1014   3.622   1.265   9.523 -0.4471 -0.8493  0.2092
   14CHL1  H21A 1015   3.651   1.364   9.563 -1.5083 -0.6527  0.5273
   14CHL1  H21B 1016   3.688   1.227   9.443 -0.5685 -1.0832  0.2185
   14CHL1  H21C 1017   3.638   1.185   9.598  1.2452 -1.3976 -0.7237
   14CHL1   C22 1018   3.455   1.366   9.365  0.0136 -0.1324 -0.3502
   14CHL1  H22A 1019   3.351   1.350   9.330 -0.4593  1.1437  0.4093
   14CHL1  H22B 1020   3.465   1.471   9.401  1.4527  0.1587 -1.5335
   14CHL1   C23 1021   3.545   1.359   9.245 -0.0539 -0.8210  0.7555
   14CHL1  H23A 1022   3.535   1.453   9.187  1.5802 -1.3202 -0.3705
   14CHL1  H23B 1023   3.646   1.355   9.292  0.2539  0.1359  0.1657
   14CHL1   C24 1024   3.526   1.228   9.155  0.8246 -0.1286 -0.2114
   14CHL1  H24A 1025   3.514   1.136   9.216  1.1094 -0.8786 -1.2751
   14CHL1  H24B 1026   3.435   1.240   9.092  0.4508  1.5708  0.6179
   14CHL1   C25 1027   3.636   1.197   9.058 -0.2547 -0.0098  0.2621
   14CHL1   H25 1028   3.663   1.297   9.017  0.4318 -0.3803 -0.2140
   14CHL1   C26 1029   3.754   1.131   9.139 -0.2239 -0.4838 -0.5392
   14CHL1  H26A 1030   3.793   1.201   9.215  2.5946 -2.3913 -0.1712
   14CHL1  H26B 1031   3.707   1.038   9.177 -1.2977 -0.4500 -1.7302
   14CHL1  H26C 1032   3.831   1.102   9.065  0.0109 -1.3082  0.0256
   14CHL1   C27 1033   3.602   1.110   8.943  0.1261  0.8629  0.1650
   14CHL1  H27A 1034   3.690   1.102   8.875  1.6768 -0.2998  2.2475
   14CHL1  H27B 1035   3.584   1.008   8.984 -0.9157  1.3434  0.9349
   14CHL1  H27C 1036   3.510   1.142   8.890  0.0381 -0.4497 -0.4901
   15CHL1    C3 1037   3.695   6.741  10.351  0.5410 -0.0904 -0.4634
   15CHL1    H3 1038   3.804   6.733  10.372  0.2194 -2.7691  0.4172
   15CHL1    O3 1039   3.628   6.732  10.472  0.4931 -0.0649 -0.1468
   15CHL1   H3' 1040   3.537   6.714  10.449  0.2714 -0.7157  1.2148
   15CHL1    C4 1041   3.674   6.888  10.287 -0.0363  0.1778 -0.6631
   15CHL1   H4A 1042   3.564   6.905  10.293 -0.0625  0.0973 -0.9070
   15CHL1   H4B 1043   3.712   6.964  10.358 -0.1893  0.0134 -0.4042
   15CHL1    C5 1044   3.708   6.901  10.141  0.0841 -0.1043 -0.1915
   15CHL1    C6 1045   3.794   6.995  10.107 -0.0523 -0.2315  0.1327
   15CHL1    H6 1046   3.839   7.068  10.176  0.1660  1.5722 -1.8690
   15CHL1    C7 1047   3.828   7.022   9.963  0.3160  0.8286  0.0878
   15CHL1   H7A 1048   3.815   7.130   9.941 -1.0169  0.5220 -0.6703
   15CHL1   H7B 1049   3.937   7.008   9.945  0.4595 -1.4080  2.4463
   15CHL1    C8 1050   3.738   6.941   9.862 -0.1826 -0.3054  0.0680
   15CHL1    H8 1051   3.639   6.991   9.859 -0.1745 -0.3234 -0.4784
   15CHL1   C14 1052   3.801   6.953   9.724 -0.1146 -0.2732  0.8891
   15CHL1   H14 1053   3.902   6.911   9.743  0.6387  0.8009 -0.7108
   15CHL1   C15 1054   3.824   7.096   9.654 -0.0716  0.4101  0.0445
   15CHL1  H15A 1055   3.731   7.150   9.684 -0.6918 -0.6856  0.1207
   15CHL1  H15B 1056   3.915   7.144   9.695 -0.5195  1.0672  0.2787
   15CHL1   C16 1057   3.826   7.061   9.501 -0.0235  0.4104 -1.0729
   15CHL1  H16A 1058   3.737   7.109   9.456 -0.5364  0.7645  0.2760
   15CHL1  H16B 1059   3.921   7.104   9.464 -0.0995  1.7294  0.2230
   15CHL1   C17 1060   3.822   6.902   9.492  0.2644  0.8409 -0.7540
   15CHL1   H17 1061   3.927   6.867   9.503  0.1615  1.1943  1.6396
   15CHL1   C13 1062   3.743   6.856   9.617 -1.1043 -0.5409  0.4011
   15CHL1   C18 1063   3.591   6.880   9.604 -0.8587  0.0971 -0.7062
   15CHL1  H18A 1064   3.571   6.986   9.577  0.7300  0.5876 -0.0542
   15CHL1  H18B 1065   3.529   6.808   9.548  0.3019 -2.4651  1.1787
   15CHL1  H18C 1066   3.542   6.864   9.703 -2.6151 -0.8010 -1.7042
   15CHL1   C12 1067   3.761   6.714   9.660 -0.6118  0.2155 -0.1231
   15CHL1  H12A 1068   3.694   6.650   9.600 -0.4711 -1.8159  1.8177
   15CHL1  H12B 1069   3.869   6.689   9.660 -0.5758  0.3232 -2.3782
   15CHL1   C11 1070   3.699   6.684   9.805  0.5319  0.6288  0.5820
   15CHL1  H11A 1071   3.590   6.665   9.793  1.0193 -2.5892  0.6516
   15CHL1  H11B 1072   3.747   6.588   9.834 -1.9266 -1.0921 -0.8361
   15CHL1    C9 1073   3.735   6.794   9.907  0.1390 -0.2324  0.1514
   15CHL1    H9 1074   3.843   6.783   9.932 -0.0540 -1.0411  0.6584
   15CHL1   C10 1075   3.670   6.781  10.051  0.6587  0.5407  0.6029
   15CHL1   C19 1076   3.518   6.797  10.026  0.6488 -0.2744  0.0867
   15CHL1  H19A 1077   3.493   6.896   9.982 -3.5773 -1.0663  0.4922
   15CHL1  H19B 1078   3.477   6.719   9.958  0.4557 -0.0533 -0.0500
   15CHL1  H19C 1079   3.467   6.787  10.124  0.3099 -2.1756 -0.2646
   15CHL1    C1 1080   3.707   6.648  10.114  0.9942  0.4428 -0.0356
   15CHL1   H1A 1081   3.661   6.563  10.059 -1.0036  0.7819  1.0656
   15CHL1   H1B 1082   3.817   6.642  10.108  0.9138 -0.9120 -0.1492
   15CHL1    C2 1083   3.648   6.630  10.255 -0.2008  0.1828  0.4107
   15CHL1   H2A 1084   3.673   6.526  10.285  0.6468  0.8321  2.0296
   15CHL1   H2B 1085   3.537   6.630  10.248 -0.0588 -0.1278 -2.2556
   15CHL1   C20 1086   3.771   6.836   9.358 -0.8225  0.3291  0.4380
   15CHL1   H20 1087   3.661   6.846   9.358 -0.7583  1.1227 -0.3425
   15CHL1   C21 1088   3.799   6.689   9.353  0.3004 -0.0822  0.4488
   15CHL1  H21A 1089   3.707   6.631   9.376 -0.3235  0.7865  0.1671
   15CHL1  H21B 1090   3.879   6.662   9.425 -0.1926 -1.8831  0.3369
   15CHL1  H21C 1091   3.822   6.652   9.251  2.3884 -0.8977  1.1862
   15CHL1   C22 1092   3.814   6.913   9.227 -0.3615 -0.2955 -0.3702
   15CHL1  H22A 1093   3.755   6.869   9.144 -2.0047  1.6235 -0.2555
   15CHL1  H22B 1094   3.795   7.022   9.236 -0.0382 -0.0328 -2.5238
   15CHL1   C23 1095   3.964   6.905   9.189 -0.3285 -0.0156 -0.0847
   15CHL1  H23A 1096   4.018   6.958   9.271 -1.0415  0.5892  0.0022
   15CHL1  H23B 1097   4.016   6.807   9.195 -1.7109 -0.7076  1.1370
   15CHL1   C24 1098   4.007   6.956   9.049 -0.3602  0.0378  0.2163
   15CHL1  H24A 1099   4.117   6.956   9.040 -0.5505 -1.7914 -3.2948
   15CHL1  H24B 1100   3.972   6.892   8.964 -1.5782 -4.0558  3.5825
   15CHL1   C25 1101   3.972   7.108   9.017  0.3222 -0.5230 -0.2653
   15CHL1   H25 1102   3.862   7.125   9.019 -0.1395 -3.2578  0.1287
   15CHL1   C26 1103   4.034   7.199   9.127 -0.3335 -0.6164 -0.0929
   15CHL1  H26A 1104   4.006   7.168   9.230  1.1817  1.0589  0.8534
   15CHL1  H26B 1105   4.145   7.205   9.123 -0.4322  0.3281 -3.1497
   15CHL1  H26C 1106   3.996   7.302   9.106 -1.1794 -1.2237 -1.5892
   15CHL1   C27 1107   4.025   7.147   8.877  1.1260 -0.2618  0.2106
   15CHL1  H27A 1108   3.977   7.077   8.805  0.3523  1.4883 -1.0275
   15CHL1  H27B 1109   4.000   7.249   8.841  0.6824 -0.6129 -0.4919
   15CHL1  H27C 1110   4.135   7.138   8.869  1.0203 -0.2705 -1.5519
   16CHL1    C3 1111   4.412   0.362  10.282  0.2157  0.0130 -0.2510
   16CHL1    H3 1112   4.405   0.472  10.265  0.6505 -0.0595 -0.9072
   16CHL1    O3 1113   4.412   0.348  10.424  0.0249 -0.3946  0.5881
   16CHL1   H3' 1114   4.423   0.253  10.435 -1.7913 -0.8584 -1.3164
   16CHL1    C4 1115   4.293   0.282  10.230  0.0943  0.4914  0.3937
   16CHL1   H4A 1116   4.294   0.183  10.281 -0.6293  1.1836  1.7894
   16CHL1   H4B 1117   4.196   0.325  10.263 -0.6658 -0.3513 -0.6669
   16CHL1    C5 1118   4.300   0.266  10.076 -0.3220  0.1775 -0.3450
   16CHL1    C6 1119   4.201   0.301  10.000  0.1915 -0.1361  0.8246
   16CHL1    H6 1120   4.107   0.338  10.043 -0.1656 -1.0386  0.8477
   16CHL1    C7 1121   4.201   0.301   9.850  0.2666 -0.1171  0.6950
   16CHL1   H7A 1122   4.102   0.267   9.814  0.9827 -1.7342  0.2233
   16CHL1   H7B 1123   4.217   0.401   9.805 -2.0238 -0.6255 -1.3627
   16CHL1    C8 1124   4.315   0.218   9.789 -0.1139 -0.3437 -0.5274
   16CHL1    H8 1125   4.304   0.109   9.809 -1.3048 -0.0202  0.6297
   16CHL1   C14 1126   4.327   0.252   9.639 -0.1837  0.4748  0.5674
   16CHL1   H14 1127   4.346   0.362   9.643  0.4477  0.3105  2.1935
   16CHL1   C15 1128   4.209   0.230   9.546  0.4260 -0.0528  0.1133
   16CHL1  H15A 1129   4.173   0.125   9.546  0.3563 -0.0302  0.4675
   16CHL1  H15B 1130   4.124   0.298   9.565  1.2282  0.9493  0.1916
   16CHL1   C16 1131   4.265   0.235   9.407 -0.2002 -0.2508  0.0027
   16CHL1  H16A 1132   4.252   0.140   9.351  1.4736  0.1234 -1.0262
   16CHL1  H16B 1133   4.215   0.309   9.340 -0.0622 -1.2708 -1.2394
   16CHL1   C17 1134   4.427   0.255   9.416  0.1985  0.4607 -0.5001
   16CHL1   H17 1135   4.440   0.366   9.411  3.0194  0.2078  0.1184
   16CHL1   C13 1136   4.452   0.206   9.560  0.7894  1.0266  0.0040
   16CHL1   C18 1137   4.452   0.055   9.545 -0.0564 -0.0249  0.4412
   16CHL1  H18A 1138   4.557   0.022   9.526  0.1614  0.9645 -0.0800
   16CHL1  H18B 1139   4.415   0.000   9.635 -1.6154 -1.9426 -1.3033
   16CHL1  H18C 1140   4.395   0.021   9.456 -0.1006  1.6021 -0.1632
   16CHL1   C12 1141   4.585   0.239   9.640  0.2454 -0.0429  0.0800
   16CHL1  H12A 1142   4.672   0.176   9.611 -0.7809 -1.4976  0.0491
   16CHL1  H12B 1143   4.604   0.348   9.635  0.5225 -0.0154  1.4784
   16CHL1   C11 1144   4.565   0.199   9.785 -0.0965 -0.0789 -0.5194
   16CHL1  H11A 1145   4.565   0.088   9.792  0.6470 -0.1844 -1.8990
   16CHL1  H11B 1146   4.658   0.233   9.836 -0.4971 -0.0511  0.1987
   16CHL1    C9 1147   4.439   0.251   9.860 -0.1415  0.1669  0.0981
   16CHL1    H9 1148   4.453   0.361   9.848 -0.7777  0.4618  1.9446
   16CHL1   C10 1149   4.437   0.225  10.016  0.2577  0.1502 -0.4931
   16CHL1   C19 1150   4.440   0.068  10.047 -0.0967  0.1044  0.4959
   16CHL1  H19A 1151   4.423   0.039  10.153 -0.5258 -0.2455  0.3351
   16CHL1  H19B 1152   4.372   0.009   9.981  0.9374  0.0824 -0.5762
   16CHL1  H19C 1153   4.536   0.023  10.014 -0.1893 -1.2724  2.0427
   16CHL1    C1 1154   4.544   0.306  10.084 -0.2789 -0.3612 -0.2464
   16CHL1   H1A 1155   4.642   0.265  10.051 -0.1669 -0.6081  0.3751
   16CHL1   H1B 1156   4.530   0.413  10.060 -0.2657 -0.0825  0.9451
   16CHL1    C2 1157   4.543   0.306  10.235 -0.3155 -0.4466  1.1497
   16CHL1   H2A 1158   4.633   0.362  10.270  0.4428 -1.0711  0.2320
   16CHL1   H2B 1159   4.551   0.205  10.281  0.6095 -0.4460  1.0004
   16CHL1   C20 1160   4.512   0.198   9.296 -1.0508 -0.8591 -0.0466
   16CHL1   H20 1161   4.512   0.087   9.294  0.9810 -0.9664  2.6891
   16CHL1   C21 1162   4.649   0.260   9.311  0.6614  0.2416 -0.5390
   16CHL1  H21A 1163   4.643   0.370   9.327 -0.0092 -0.1432  1.9521
   16CHL1  H21B 1164   4.714   0.236   9.224  2.2354 -2.8609  1.4054
   16CHL1  H21C 1165   4.699   0.209   9.396  0.8099  1.2134 -0.0358
   16CHL1   C22 1166   4.449   0.246   9.157  0.4495 -0.0752  0.1065
   16CHL1  H22A 1167   4.342   0.216   9.160  0.2029  0.5494 -1.8676
   16CHL1  H22B 1168   4.449   0.357   9.150 -2.5450 -0.1088 -1.4726
   16CHL1   C23 1169   4.520   0.189   9.030 -0.4539  0.0561  0.7054
   16CHL1  H23A 1170   4.612   0.249   9.013 -0.5969  0.2787  0.7137
   16CHL1  H23B 1171   4.541   0.080   9.028 -0.4236  0.0499  1.4158
   16CHL1   C24 1172   4.429   0.218   8.907 -0.4250 -0.1291 -0.9832
   16CHL1  H24A 1173   4.321   0.195   8.923 -0.2441 -2.2497 -2.5418
   16CHL1  H24B 1174   4.419   0.328   8.898 -1.1766 -0.1512 -0.4858
   16CHL1   C25 1175   4.476   0.160   8.778  0.2258  0.7405  0.9181
   16CHL1   H25 1176   4.529   0.063   8.793 -0.0741  0.3061 -0.7366
   16CHL1   C26 1177   4.357   0.134   8.685  0.5198  0.2394  0.3655
   16CHL1  H26A 1178   4.294   0.054   8.729  1.8265 -1.8130 -1.4301
   16CHL1  H26B 1179   4.289   0.220   8.702  1.2435  0.8184  0.3846
   16CHL1  H26C 1180   4.397   0.128   8.582 -1.3153 -0.4656 -0.3173
   16CHL1   C27 1181   4.580   0.255   8.716 -0.0310 -0.5847 -0.0321
   16CHL1  H27A 1182   4.534   0.354   8.697 -2.0048 -1.3668  0.4757
   16CHL1  H27B 1183   4.660   0.274   8.790 -0.4104  0.1249  0.2000
   16CHL1  H27C 1184   4.618   0.217   8.619 -1.5639  1.2894 -1.3995
   17CHL1    C3 1185   0.637   4.149  10.391 -0.4121 -0.6290 -0.3555
   17CHL1    H3 1186   0.729   4.210  10.389  0.7145 -2.0804  3.3323
   17CHL1    O3 1187   0.568   4.193  10.506 -0.5120 -0.1167  0.4991
   17CHL1   H3' 1188   0.487   4.141  10.504 -1.3802  1.1340  1.8145
   17CHL1    C4 1189   0.554   4.190  10.271 -0.0335  0.5162 -0.1859
   17CHL1   H4A 1190   0.453   4.144  10.274 -0.2771  0.8382 -2.4269
   17CHL1   H4B 1191   0.538   4.300  10.278 -1.5347  0.1756  2.1322
   17CHL1    C5 1192   0.626   4.155  10.143 -0.3504 -0.3014 -0.1811
   17CHL1    C6 1193   0.654   4.245  10.051  0.3922 -0.0825 -0.4665
   17CHL1    H6 1194   0.620   4.349  10.055  2.1918  0.5911 -1.7943
   17CHL1    C7 1195   0.725   4.212   9.917  0.5450 -0.3839  0.3098
   17CHL1   H7A 1196   0.671   4.258   9.832  1.1836  0.7093  0.4912
   17CHL1   H7B 1197   0.822   4.266   9.913 -0.7729  2.1432  1.0935
   17CHL1    C8 1198   0.745   4.058   9.893  0.6741 -0.4194 -0.1893
   17CHL1    H8 1199   0.644   4.028   9.856  0.9026  0.3849 -1.4895
   17CHL1   C14 1200   0.849   4.028   9.784  0.9077  0.3253  0.0048
   17CHL1   H14 1201   0.950   4.067   9.808  1.1650 -0.4064  0.1275
   17CHL1   C15 1202   0.834   4.103   9.651 -1.2760  0.1660  0.2028
   17CHL1  H15A 1203   0.732   4.093   9.608 -0.9588 -1.9310 -0.1283
   17CHL1  H15B 1204   0.868   4.208   9.668 -0.9713  0.4357 -1.9368
   17CHL1   C16 1205   0.918   4.017   9.549  0.5729 -0.4822 -0.7114
   17CHL1  H16A 1206   0.847   3.991   9.468  0.7265  0.2583 -1.0875
   17CHL1  H16B 1207   1.004   4.073   9.506  0.4723  1.0026  0.9417
   17CHL1   C17 1208   0.957   3.886   9.633  0.7595 -0.2607  0.1166
   17CHL1   H17 1209   1.062   3.908   9.658  1.2632  0.7368 -2.6692
   17CHL1   C13 1210   0.871   3.878   9.759 -2.0976  0.8957  0.5260
   17CHL1   C18 1211   0.739   3.814   9.708  0.4427 -0.0305  0.7099
   17CHL1  H18A 1212   0.748   3.705   9.689 -0.2969 -0.0590  0.5051
   17CHL1  H18B 1213   0.658   3.811   9.784 -1.4225 -3.4793 -1.2619
   17CHL1  H18C 1214   0.694   3.864   9.620 -1.7744 -2.4126  0.3974
   17CHL1   C12 1215   0.923   3.815   9.890 -0.0574 -0.6440  0.4480
   17CHL1  H12A 1216   0.929   3.705   9.876 -1.2549 -0.3663 -2.5158
   17CHL1  H12B 1217   1.025   3.853   9.911 -0.1162 -2.1024  3.7728
   17CHL1   C11 1218   0.830   3.839  10.009 -0.2608 -0.0544  0.6905
   17CHL1  H11A 1219   0.741   3.774   9.995  0.5118 -1.1236  0.7405
   17CHL1  H11B 1220   0.887   3.803  10.097 -0.5189 -0.7964  0.5577
   17CHL1    C9 1221   0.790   3.984  10.021  0.4762  0.6956 -0.0369
   17CHL1    H9 1222   0.875   4.045  10.059 -0.0950  2.6596 -1.7744
   17CHL1   C10 1223   0.680   4.010  10.134  0.7664  0.1399  0.1677
   17CHL1   C19 1224   0.555   3.925  10.099  0.5576  0.1686 -0.0772
   17CHL1  H19A 1225   0.545   3.919   9.989 -0.4732  3.3528 -0.2315
   17CHL1  H19B 1226   0.576   3.824  10.140 -0.4542 -0.0388 -0.0637
   17CHL1  H19C 1227   0.464   3.972  10.142  2.6225  1.3543  3.3031
   17CHL1    C1 1228   0.739   3.961  10.266  0.4773 -0.2665  0.7612
   17CHL1   H1A 1229   0.753   3.851  10.262  2.2079 -0.0131 -0.3492
   17CHL1   H1B 1230   0.839   4.008  10.279 -0.3197  2.2875 -1.7653
   17CHL1    C2 1231   0.663   3.996  10.392 -0.0030  0.6408 -0.0921
   17CHL1   H2A 1232   0.732   3.965  10.474  0.2641 -2.6180 -1.4947
   17CHL1   H2B 1233   0.570   3.937  10.399  0.8982 -0.8110 -0.2310
   17CHL1   C20 1234   0.980   3.755   9.542 -1.1857 -0.0644  1.0165
   17CHL1   H20 1235   0.883   3.703   9.525 -2.5654  2.4893  0.8995
   17CHL1   C21 1236   1.065   3.653   9.626  0.7116 -0.0142  0.1929
   17CHL1  H21A 1237   1.104   3.566   9.569 -3.2164 -2.6804  1.3604
   17CHL1  H21B 1238   1.007   3.611   9.711  2.6139 -2.7225  0.1909
   17CHL1  H21C 1239   1.154   3.711   9.658 -1.6767  2.5763  2.5139
   17CHL1   C22 1240   1.060   3.787   9.409  0.0447  0.1359 -0.2108
   17CHL1  H22A 1241   1.018   3.867   9.345 -1.0777 -1.9503 -2.1618
   17CHL1  H22B 1242   1.162   3.821   9.437 -0.7081  2.3108  0.0058
   17CHL1   C23 1243   1.067   3.673   9.303  0.2287 -0.7447  0.2221
   17CHL1  H23A 1244   1.152   3.700   9.236  0.7038 -3.7065 -0.4347
   17CHL1  H23B 1245   1.095   3.573   9.342 -0.7030 -1.7267 -1.5874
   17CHL1   C24 1246   0.950   3.663   9.214  0.5973  0.4250  0.0724
   17CHL1  H24A 1247   0.870   3.649   9.290 -0.1485  0.0425 -0.7605
   17CHL1  H24B 1248   0.929   3.764   9.173  0.8637  0.0877 -0.9052
   17CHL1   C25 1249   0.962   3.557   9.103 -0.5729 -0.1613 -0.3091
   17CHL1   H25 1250   0.973   3.456   9.147 -3.8871  0.2825  1.7483
   17CHL1   C26 1251   0.837   3.558   9.008  0.6546  0.0007  0.1428
   17CHL1  H26A 1252   0.810   3.661   8.976  0.8416 -1.0257 -3.5577
   17CHL1  H26B 1253   0.844   3.497   8.915  1.1724  2.3383 -1.3698
   17CHL1  H26C 1254   0.760   3.516   9.077  1.6506 -0.2011  1.1514
   17CHL1   C27 1255   1.092   3.578   9.018 -0.0488 -0.4653 -0.6272
   17CHL1  H27A 1256   1.090   3.676   8.966 -2.3172  0.3958  0.9960
   17CHL1  H27B 1257   1.180   3.558   9.082 -0.2648 -0.5637 -0.3610
   17CHL1  H27C 1258   1.100   3.506   8.933 -0.5500  0.3023 -1.3369
   18CHL1    C3 1259   5.890   3.019  10.226 -1.0336 -0.8225  0.8945
   18CHL1    H3 1260   5.785   3.053  10.220 -0.6635  0.2157  0.0680
   18CHL1    O3 1261   5.946   3.074  10.340 -0.1664  0.0424 -0.1609
   18CHL1   H3' 1262   6.003   3.007  10.379 -0.7809 -0.1600  0.4020
   18CHL1    C4 1263   5.899   2.868  10.234  0.4777  0.3925  0.5469
   18CHL1   H4A 1264   5.996   2.825  10.266  0.0932 -0.8770  0.0476
   18CHL1   H4B 1265   5.832   2.826  10.312 -1.0657  0.6897 -0.5867
   18CHL1    C5 1266   5.866   2.806  10.097  0.3247  0.2529  0.4323
   18CHL1    C6 1267   5.750   2.730  10.088 -0.4842 -0.1440  0.2260
   18CHL1    H6 1268   5.709   2.696  10.184 -0.4485 -0.4146  0.1469
   18CHL1    C7 1269   5.697   2.665   9.962 -0.3316  0.3671 -0.0530
   18CHL1   H7A 1270   5.645   2.568   9.972 -0.7610  0.7423  1.3968
   18CHL1   H7B 1271   5.609   2.723   9.926 -0.3214  0.1322 -0.4560
   18CHL1    C8 1272   5.804   2.673   9.850  0.1510  0.2918 -0.0458
   18CHL1    H8 1273   5.887   2.602   9.865 -0.7207 -0.8346 -0.4920
   18CHL1   C14 1274   5.751   2.634   9.714  0.8130  0.6680 -0.3598
   18CHL1   H14 1275   5.675   2.710   9.685 -0.0100  0.3101  0.8264
   18CHL1   C15 1276   5.673   2.505   9.704  0.0214 -1.1908  0.0953
   18CHL1  H15A 1277   5.715   2.423   9.766  1.3186 -0.7380 -0.1742
   18CHL1  H15B 1278   5.569   2.534   9.733 -0.2936 -1.7057 -0.5067
   18CHL1   C16 1279   5.669   2.465   9.555  0.3317  0.6809  0.0944
   18CHL1  H16A 1280   5.706   2.362   9.537 -2.9747 -0.1656 -2.4787
   18CHL1  H16B 1281   5.568   2.488   9.514 -0.3891  0.9643  1.9444
   18CHL1   C17 1282   5.757   2.570   9.481 -0.2458 -0.1563  0.0624
   18CHL1   H17 1283   5.682   2.648   9.458 -0.1501  0.1100  0.6396
   18CHL1   C13 1284   5.848   2.638   9.599 -0.1590  0.1878 -0.1793
   18CHL1   C18 1285   5.974   2.541   9.625  0.7180  0.5252  0.0545
   18CHL1  H18A 1286   6.037   2.529   9.535 -0.6612  1.7781 -1.1017
   18CHL1  H18B 1287   6.035   2.573   9.713  3.7550  0.3052 -1.9076
   18CHL1  H18C 1288   5.916   2.448   9.644 -0.7135  1.2741 -0.6247
   18CHL1   C12 1289   5.906   2.776   9.573  0.8365  0.0354 -0.0195
   18CHL1  H12A 1290   5.984   2.787   9.495  0.0677  2.6429 -0.4636
   18CHL1  H12B 1291   5.823   2.846   9.550 -0.4684 -1.3402  0.4496
   18CHL1   C11 1292   5.965   2.826   9.711  0.6383  0.9179 -0.0346
   18CHL1  H11A 1293   6.067   2.782   9.721  0.3767  0.0543 -1.0066
   18CHL1  H11B 1294   5.986   2.935   9.699 -0.0207  1.1168  0.6096
   18CHL1    C9 1295   5.870   2.811   9.836 -0.4210  0.1329 -0.0674
   18CHL1    H9 1296   5.795   2.890   9.816  1.5740  1.9093 -0.7463
   18CHL1   C10 1297   5.942   2.857   9.975 -0.0795  0.2967 -0.8864
   18CHL1   C19 1298   6.081   2.799   9.980  0.5769  0.0008  0.3240
   18CHL1  H19A 1299   6.148   2.842   9.903  0.0577  0.7128  0.2519
   18CHL1  H19B 1300   6.130   2.804  10.079  1.8920 -0.5588 -0.2984
   18CHL1  H19C 1301   6.065   2.691   9.961 -1.8798  0.6378 -1.6197
   18CHL1    C1 1302   5.933   3.012   9.983  0.0916  0.5022 -0.4528
   18CHL1   H1A 1303   5.996   3.053   9.901 -0.2869  0.5667 -0.7115
   18CHL1   H1B 1304   5.829   3.043   9.958 -0.9565 -1.4886  1.3138
   18CHL1    C2 1305   5.979   3.069  10.109  0.6750 -0.2773 -1.1725
   18CHL1   H2A 1306   5.985   3.178  10.092 -3.3514  0.2016 -0.1728
   18CHL1   H2B 1307   6.085   3.049  10.136  0.1289 -0.8613  0.6138
   18CHL1   C20 1308   5.822   2.520   9.354  0.5751  0.3764  0.0028
   18CHL1   H20 1309   5.881   2.432   9.388 -2.8259 -0.7300  3.4797
   18CHL1   C21 1310   5.904   2.633   9.288  0.3217  0.0686 -0.1608
   18CHL1  H21A 1311   5.851   2.727   9.311  0.5916  0.4390 -1.0518
   18CHL1  H21B 1312   5.925   2.625   9.179 -0.1018 -2.0013 -0.1084
   18CHL1  H21C 1313   6.001   2.648   9.340 -1.6019 -0.3922  3.7408
   18CHL1   C22 1314   5.709   2.475   9.253  0.0709 -0.6813 -0.7924
   18CHL1  H22A 1315   5.646   2.394   9.296 -2.3641  1.8036  0.5053
   18CHL1  H22B 1316   5.641   2.563   9.249 -1.5884 -1.9938 -2.3287
   18CHL1   C23 1317   5.747   2.431   9.113 -0.2627 -0.0359 -0.3908
   18CHL1  H23A 1318   5.778   2.515   9.048  1.1054  0.1614  0.5091
   18CHL1  H23B 1319   5.829   2.356   9.118  0.6649  1.0430  0.6308
   18CHL1   C24 1320   5.615   2.360   9.061  0.0734  0.0105 -0.4705
   18CHL1  H24A 1321   5.581   2.281   9.132 -1.2590  1.4639  0.5492
   18CHL1  H24B 1322   5.535   2.437   9.065  0.8629  0.7573  1.6782
   18CHL1   C25 1323   5.633   2.304   8.916  0.1506 -0.6411  0.1205
   18CHL1   H25 1324   5.720   2.235   8.916  0.6217 -0.0526  0.5698
   18CHL1   C26 1325   5.504   2.231   8.875 -0.0691 -0.4624  0.4896
   18CHL1  H26A 1326   5.433   2.313   8.852  0.8436  0.2043  0.0455
   18CHL1  H26B 1327   5.517   2.164   8.788 -1.3143 -0.9006  0.6321
   18CHL1  H26C 1328   5.475   2.176   8.968 -1.1997 -4.3549 -2.0669
   18CHL1   C27 1329   5.658   2.404   8.806 -0.0088 -0.2044  0.9372
   18CHL1  H27A 1330   5.575   2.475   8.789 -0.9124 -1.4725 -0.0361
   18CHL1  H27B 1331   5.749   2.464   8.828  0.6626 -0.6451 -0.5470
   18CHL1  H27C 1332   5.679   2.361   8.706  1.8484 -0.6005  1.4736
   19CHL1    C3 1333   3.378   6.190  10.144 -0.2027 -0.5907  0.8086
   19CHL1    H3 1334   3.487   6.171  10.135 -0.5256 -1.5371 -1.4919
   19CHL1    O3 1335   3.344   6.206  10.286 -0.0931  0.3865  0.0579
   19CHL1   H3' 1336   3.248   6.213  10.291 -0.1397  2.3468 -2.5428
   19CHL1    C4 1337   3.339   6.321  10.076 -0.4666 -0.5482 -0.6742
   19CHL1   H4A 1338   3.234   6.353  10.091  0.5074  1.5159  2.0385
   19CHL1   H4B 1339   3.394   6.410  10.114 -2.3787 -0.2308  1.4133
   19CHL1    C5 1340   3.359   6.323   9.922  0.0175  0.0115  0.1083
   19CHL1    C6 1341   3.428   6.421   9.854 -0.3014  0.2139 -0.1020
   19CHL1    H6 1342   3.469   6.500   9.918  0.8471 -2.3005  2.3668
   19CHL1    C7 1343   3.451   6.429   9.707  0.2205  0.5558 -0.1090
   19CHL1   H7A 1344   3.418   6.525   9.664 -2.2469  0.0124  0.4845
   19CHL1   H7B 1345   3.559   6.422   9.682  0.0560  0.7077 -0.8581
   19CHL1    C8 1346   3.360   6.329   9.630 -1.3715  0.5651  0.8270
   19CHL1    H8 1347   3.259   6.377   9.629 -1.8351 -0.3724  2.1309
   19CHL1   C14 1348   3.394   6.305   9.486 -0.9204  0.2846  0.4639
   19CHL1   H14 1349   3.499   6.267   9.485 -0.4781  1.5095 -0.1767
   19CHL1   C15 1350   3.400   6.433   9.398  0.6192  0.1057  0.1072
   19CHL1  H15A 1351   3.296   6.473   9.402  0.4060 -0.3898 -0.3449
   19CHL1  H15B 1352   3.479   6.501   9.436  1.8877 -0.5388 -1.3380
   19CHL1   C16 1353   3.433   6.371   9.259  0.5784  0.1932 -0.7792
   19CHL1  H16A 1354   3.401   6.442   9.179  2.6284  0.1054 -1.7152
   19CHL1  H16B 1355   3.543   6.364   9.244  0.7851 -0.7556  1.1240
   19CHL1   C17 1356   3.373   6.228   9.264 -0.2172 -0.6755  0.2442
   19CHL1   H17 1357   3.458   6.156   9.270 -1.6598 -2.4011  0.1203
   19CHL1   C13 1358   3.309   6.207   9.399  0.1387 -0.1462 -0.0725
   19CHL1   C18 1359   3.157   6.251   9.391  0.0358 -0.3587  0.1692
   19CHL1  H18A 1360   3.109   6.300   9.478 -1.5611  0.6415 -1.2523
   19CHL1  H18B 1361   3.129   6.317   9.306  0.7482  1.7785  1.5472
   19CHL1  H18C 1362   3.096   6.161   9.369  1.1309 -0.6350 -1.8435
   19CHL1   C12 1363   3.320   6.074   9.475 -0.6482  0.1837 -0.0688
   19CHL1  H12A 1364   3.262   5.996   9.421 -0.3489  0.4617 -0.7985
   19CHL1  H12B 1365   3.428   6.049   9.466 -0.4770  1.0424 -0.4319
   19CHL1   C11 1366   3.272   6.087   9.620 -0.3241 -0.3332 -0.0719
   19CHL1  H11A 1367   3.165   6.116   9.611 -0.5524 -0.4209  2.0709
   19CHL1  H11B 1368   3.269   5.983   9.658 -0.7916 -0.5411 -0.6683
   19CHL1    C9 1369   3.344   6.195   9.702 -0.0210  0.0468 -0.3090
   19CHL1    H9 1370   3.450   6.161   9.714  0.6688  2.5947  1.3537
   19CHL1   C10 1371   3.292   6.202   9.849 -0.0549  0.0132 -0.1747
   19CHL1   C19 1372   3.142   6.223   9.852  0.6857  0.0627 -0.0971
   19CHL1  H19A 1373   3.113   6.297   9.775 -1.3671 -1.2864 -0.6683
   19CHL1  H19B 1374   3.083   6.136   9.817 -0.0345 -0.0623  1.3855
   19CHL1  H19C 1375   3.095   6.254   9.948  0.9531  2.6802 -0.7927
   19CHL1    C1 1376   3.325   6.066   9.923 -0.1939  0.8216 -0.3738
   19CHL1   H1A 1377   3.262   5.985   9.880 -1.6084  2.3650 -1.3014
   19CHL1   H1B 1378   3.432   6.039   9.918 -0.1571  0.7053  1.0475
   19CHL1    C2 1379   3.297   6.081  10.074 -0.1267  0.1669  0.0899
   19CHL1   H2A 1380   3.307   5.983  10.125  0.0082  0.2615  0.2432
   19CHL1   H2B 1381   3.189   6.108  10.082  0.1996  1.5492  0.0501
   19CHL1   C20 1382   3.310   6.170   9.139  0.7588  0.5178  0.1956
   19CHL1   H20 1383   3.216   6.229   9.129 -0.6063 -1.8708 -1.5566
   19CHL1   C21 1384   3.266   6.020   9.151 -0.3925  0.2770  0.3901
   19CHL1  H21A 1385   3.227   5.971   9.058 -1.6378 -1.1263  1.6204
   19CHL1  H21B 1386   3.184   6.016   9.225 -0.7578  0.5737  0.0062
   19CHL1  H21C 1387   3.351   5.963   9.193 -0.5208  1.8109  2.8255
   19CHL1   C22 1388   3.383   6.195   9.003 -0.4668  0.3487  0.4068
   19CHL1  H22A 1389   3.415   6.301   9.001  1.0838 -0.0789  1.2890
   19CHL1  H22B 1390   3.477   6.136   9.017 -1.4471 -0.4434  4.4524
   19CHL1   C23 1391   3.312   6.160   8.871 -0.1717  0.1270 -0.2206
   19CHL1  H23A 1392   3.283   6.053   8.864  2.4741 -0.6599  0.0953
   19CHL1  H23B 1393   3.217   6.218   8.871 -0.1785  0.1980  2.5741
   19CHL1   C24 1394   3.394   6.200   8.748  0.5037  0.0301  0.3223
   19CHL1  H24A 1395   3.433   6.302   8.770 -0.6087  1.0498 -2.2123
   19CHL1  H24B 1396   3.477   6.126   8.751  0.9883  0.4950 -1.0981
   19CHL1   C25 1397   3.317   6.193   8.609  0.0612  0.0157  0.1431
   19CHL1   H25 1398   3.250   6.104   8.616 -1.6986  1.1952 -1.4115
   19CHL1   C26 1399   3.220   6.310   8.593 -0.1701  0.1889 -0.6767
   19CHL1  H26A 1400   3.142   6.319   8.672 -0.2740  1.3447 -0.9091
   19CHL1  H26B 1401   3.282   6.399   8.571  0.2067 -0.2274 -1.3524
   19CHL1  H26C 1402   3.171   6.293   8.494 -1.8771  0.0412  0.1780
   19CHL1   C27 1403   3.407   6.180   8.493 -0.3030  0.4067  0.0966
   19CHL1  H27A 1404   3.467   6.086   8.494  1.0832  1.2497 -1.4717
   19CHL1  H27B 1405   3.347   6.175   8.400  0.8016  1.8487 -0.7023
   19CHL1  H27C 1406   3.462   6.275   8.478 -0.0922  0.2928  0.1545
   20CHL1    C3 1407   5.423   6.564  10.135  1.2089  0.0471  0.6773
   20CHL1    H3 1408   5.460   6.659  10.093  1.8023  0.3107  1.7848
   20CHL1    O3 1409   5.373   6.588  10.266  0.3923  0.1405 -0.5791
   20CHL1   H3' 1410   5.445   6.628  10.315  0.2790  0.1247 -0.3991
   20CHL1    C4 1411   5.308   6.519  10.046  0.4734  0.2734 -0.3674
   20CHL1   H4A 1412   5.251   6.439  10.097 -0.0562  0.9318  0.0892
   20CHL1   H4B 1413   5.239   6.606  10.037 -0.0554 -0.3794 -2.7186
   20CHL1    C5 1414   5.353   6.471   9.908 -0.3524 -0.2826 -0.0003
   20CHL1    C6 1415   5.307   6.527   9.792 -0.7025 -0.3317 -0.4447
   20CHL1    H6 1416   5.230   6.605   9.789 -1.0459 -0.6474  0.0916
   20CHL1    C7 1417   5.337   6.477   9.659 -0.0659  0.2556 -0.3820
   20CHL1   H7A 1418   5.247   6.476   9.594  2.3120  0.9980 -3.7857
   20CHL1   H7B 1419   5.401   6.556   9.615 -2.2314  1.1882 -1.9283
   20CHL1    C8 1420   5.399   6.332   9.652  0.6294  0.7383  0.0874
   20CHL1    H8 1421   5.318   6.258   9.669  1.0110  0.1039 -0.8106
   20CHL1   C14 1422   5.463   6.305   9.518  0.3497 -0.8178  0.3964
   20CHL1   H14 1423   5.551   6.371   9.501 -0.6065 -0.1319 -2.0760
   20CHL1   C15 1424   5.380   6.327   9.392  0.0292 -0.2216  0.3557
   20CHL1  H15A 1425   5.276   6.287   9.392  0.8137 -2.3722 -0.6142
   20CHL1  H15B 1426   5.373   6.431   9.352 -4.5251 -0.9173 -0.9739
   20CHL1   C16 1427   5.453   6.241   9.289  0.2512  0.1583  0.2795
   20CHL1  H16A 1428   5.377   6.180   9.236  0.9334  1.3899 -2.1803
   20CHL1  H16B 1429   5.493   6.319   9.220  0.2765  2.6835  3.0335
   20CHL1   C17 1430   5.566   6.165   9.353 -0.6722  0.0459  0.5665
   20CHL1   H17 1431   5.650   6.237   9.346 -0.0679 -0.6749  0.3065
   20CHL1   C13 1432   5.520   6.163   9.496 -0.2497  0.8966 -1.0478
   20CHL1   C18 1433   5.407   6.061   9.531  0.0706 -0.4708 -0.0258
   20CHL1  H18A 1434   5.446   5.958   9.526 -2.3372 -1.3667 -1.3194
   20CHL1  H18B 1435   5.376   6.069   9.638  0.7500  0.4213  0.1055
   20CHL1  H18C 1436   5.316   6.074   9.469 -0.4640 -0.3164  0.7771
   20CHL1   C12 1437   5.624   6.152   9.603 -0.3550  0.1813  0.5877
   20CHL1  H12A 1438   5.637   6.043   9.621 -1.8639 -0.3426 -1.3570
   20CHL1  H12B 1439   5.724   6.195   9.579 -0.5453  0.1183 -0.3397
   20CHL1   C11 1440   5.584   6.184   9.754 -0.1230  0.1950  0.4451
   20CHL1  H11A 1441   5.520   6.098   9.781  0.4319  0.1294  1.5597
   20CHL1  H11B 1442   5.676   6.184   9.816  1.2000 -0.1534 -1.4699
   20CHL1    C9 1443   5.512   6.320   9.763  0.3489  0.1030 -0.2986
   20CHL1    H9 1444   5.589   6.393   9.732 -1.3638  1.3252 -1.6954
   20CHL1   C10 1445   5.457   6.360   9.902 -0.6935  1.0860 -0.0791
   20CHL1   C19 1446   5.400   6.228   9.968 -0.4366  0.1789 -0.1299
   20CHL1  H19A 1447   5.340   6.180   9.888 -2.3516 -0.9753  1.9500
   20CHL1  H19B 1448   5.486   6.162   9.993 -0.2347  0.9311  1.1998
   20CHL1  H19C 1449   5.343   6.233  10.063 -0.5290 -1.7228 -0.0721
   20CHL1    C1 1450   5.577   6.421   9.988  0.0122 -0.0563  0.0430
   20CHL1   H1A 1451   5.661   6.348   9.982  0.4231  0.1484  2.9121
   20CHL1   H1B 1452   5.613   6.516   9.943 -0.6904 -0.4808 -1.4327
   20CHL1    C2 1453   5.535   6.456  10.135  0.4345  0.1184 -0.2869
   20CHL1   H2A 1454   5.616   6.497  10.200  2.4086 -0.3601 -2.3686
   20CHL1   H2B 1455   5.497   6.370  10.195 -2.8164  2.4416  1.0963
   20CHL1   C20 1456   5.603   6.037   9.279 -0.9496  0.7685  0.2636
   20CHL1   H20 1457   5.514   5.970   9.279 -0.6717  0.3897  1.0017
   20CHL1   C21 1458   5.725   5.969   9.351  0.4747 -0.9772 -0.1687
   20CHL1  H21A 1459   5.688   5.941   9.452 -1.1235  0.8723 -0.2069
   20CHL1  H21B 1460   5.810   6.040   9.363 -0.3399  0.1456 -0.9457
   20CHL1  H21C 1461   5.758   5.877   9.298 -0.6616 -0.8525 -1.1032
   20CHL1   C22 1462   5.631   6.066   9.125  0.4722  0.1898  0.2587
   20CHL1  H22A 1463   5.542   6.113   9.078  0.4887  2.5145  2.4256
   20CHL1  H22B 1464   5.717   6.137   9.125 -1.8197  3.0895 -1.5176
   20CHL1   C23 1465   5.673   5.945   9.041  0.3444 -0.0134  0.3425
   20CHL1  H23A 1466   5.771   5.909   9.078  2.1146  2.6044 -1.6328
   20CHL1  H23B 1467   5.591   5.871   9.031 -1.2157  1.6114  0.8060
   20CHL1   C24 1468   5.699   5.992   8.892 -0.3038  0.0688 -0.5993
   20CHL1  H24A 1469   5.602   6.007   8.840  0.2278  0.6240 -1.4375
   20CHL1  H24B 1470   5.757   6.086   8.901 -0.8708  0.2444  1.2517
   20CHL1   C25 1471   5.784   5.889   8.806 -0.1936  0.0282 -0.3840
   20CHL1   H25 1472   5.805   5.943   8.712  1.0886 -0.7779 -0.5769
   20CHL1   C26 1473   5.925   5.844   8.859 -0.5199 -0.3636  0.1203
   20CHL1  H26A 1474   5.919   5.807   8.964  1.3473  0.9081  0.6993
   20CHL1  H26B 1475   5.970   5.761   8.802 -0.2254  1.4007 -2.2941
   20CHL1  H26C 1476   5.997   5.929   8.857 -1.0862  0.1561  0.8655
   20CHL1   C27 1477   5.696   5.771   8.767 -0.4677 -0.2032 -0.6403
   20CHL1  H27A 1478   5.605   5.801   8.711 -2.3301 -0.6915  2.0295
   20CHL1  H27B 1479   5.752   5.708   8.694 -0.8412 -1.3441  0.0455
   20CHL1  H27C 1480   5.664   5.705   8.850 -3.7456  0.8806 -0.9973
   21CHL1    C3 1481   5.096   3.032  10.364  0.0608  0.5001 -0.5627
   21CHL1    H3 1482   5.202   3.018  10.334 -0.1792 -0.8337 -0.8391
   21CHL1    O3 1483   5.101   3.049  10.507 -0.6153  0.1389 -0.5299
   21CHL1   H3' 1484   5.021   3.014  10.547  1.6255 -2.7806  1.6076
   21CHL1    C4 1485   5.024   3.149  10.294 -0.7880  0.3653 -0.0691
   21CHL1   H4A 1486   4.931   3.161  10.354  0.7543  5.8312  1.5367
   21CHL1   H4B 1487   5.089   3.235  10.321 -0.3944 -0.0779  0.4172
   21CHL1    C5 1488   4.994   3.136  10.142 -0.2354 -1.0245 -0.1874
   21CHL1    C6 1489   5.019   3.240  10.060 -0.5258  0.4571 -0.5657
   21CHL1    H6 1490   5.068   3.330  10.100  0.7949  0.5391 -2.3220
   21CHL1    C7 1491   5.001   3.231   9.910  0.2971 -0.9293  0.5095
   21CHL1   H7A 1492   4.962   3.321   9.858  3.1838  0.1360  0.1007
   21CHL1   H7B 1493   5.102   3.211   9.869 -0.1125 -0.4777 -0.7584
   21CHL1    C8 1494   4.912   3.109   9.868 -0.2742  0.2053 -0.4478
   21CHL1    H8 1495   4.807   3.139   9.885 -0.2854  0.8937 -1.6704
   21CHL1   C14 1496   4.932   3.079   9.718  0.1629 -0.1671 -0.1735
   21CHL1   H14 1497   5.036   3.050   9.692  0.2421  0.2963 -0.3896
   21CHL1   C15 1498   4.921   3.194   9.622  0.0518 -0.6329 -0.4490
   21CHL1  H15A 1499   4.856   3.264   9.678  0.3885  0.0849 -0.9408
   21CHL1  H15B 1500   5.024   3.235   9.611  0.3854 -1.0401  1.0667
   21CHL1   C16 1501   4.868   3.133   9.487  0.4145  0.6058 -0.5725
   21CHL1  H16A 1502   4.760   3.154   9.467  0.5271 -0.5896 -2.5899
   21CHL1  H16B 1503   4.930   3.161   9.399  1.9284  0.1864  0.3616
   21CHL1   C17 1504   4.868   2.984   9.514 -0.8655 -0.5968 -0.2257
   21CHL1   H17 1505   4.973   2.950   9.499  0.2953  1.4058  2.7889
   21CHL1   C13 1506   4.842   2.976   9.668 -0.7402 -0.5781 -0.4866
   21CHL1   C18 1507   4.697   3.012   9.696  0.2925  0.3048 -0.1088
   21CHL1  H18A 1508   4.680   3.018   9.806 -1.4729 -2.5481 -0.1585
   21CHL1  H18B 1509   4.665   3.111   9.659 -0.7019  0.3037  0.7163
   21CHL1  H18C 1510   4.637   2.931   9.649  0.1334 -0.4806  1.4170
   21CHL1   C12 1511   4.878   2.843   9.738  0.1298 -0.4524  0.7718
   21CHL1  H12A 1512   4.811   2.755   9.725  0.8864 -0.8637 -0.4043
   21CHL1  H12B 1513   4.973   2.810   9.691  0.8363  1.4791  0.8027
   21CHL1   C11 1514   4.883   2.855   9.892 -0.5951 -0.0610 -0.2422
   21CHL1  H11A 1515   4.777   2.865   9.924 -0.4105 -2.0175  1.0167
   21CHL1  H11B 1516   4.937   2.768   9.935 -2.5997 -0.5056  1.4389
   21CHL1    C9 1517   4.948   2.984   9.947 -0.3855 -0.3393 -0.6108
   21CHL1    H9 1518   5.056   2.978   9.919 -0.7513  1.8544 -2.7003
   21CHL1   C10 1519   4.945   3.002  10.104  0.0650 -0.6276 -0.0890
   21CHL1   C19 1520   4.797   3.009  10.144 -0.2315 -0.0802  0.5368
   21CHL1  H19A 1521   4.741   3.082  10.080 -0.4741  0.9703  1.9268
   21CHL1  H19B 1522   4.746   2.912  10.125  1.2471 -0.9230  0.8526
   21CHL1  H19C 1523   4.772   3.049  10.244 -0.8333  1.6819 -0.2870
   21CHL1    C1 1524   5.017   2.883  10.173  0.7180  0.0098 -0.0964
   21CHL1   H1A 1525   4.962   2.789  10.154  1.8114 -1.1234  2.1631
   21CHL1   H1B 1526   5.120   2.873  10.134  1.0041 -0.1260  0.6756
   21CHL1    C2 1527   5.028   2.898  10.329  0.2942  0.2125  0.2605
   21CHL1   H2A 1528   5.076   2.808  10.371 -0.2954 -0.2298 -0.0070
   21CHL1   H2B 1529   4.928   2.898  10.378 -0.2012 -1.0179 -0.7197
   21CHL1   C20 1530   4.786   2.913   9.401  0.6990  0.2625  0.1395
   21CHL1   H20 1531   4.680   2.946   9.405  0.5836  0.0716 -1.2000
   21CHL1   C21 1532   4.797   2.765   9.426 -0.3475  0.0852 -0.8172
   21CHL1  H21A 1533   4.899   2.725   9.410  0.0965  0.1175  1.7439
   21CHL1  H21B 1534   4.725   2.721   9.354 -1.1734  0.7743 -0.4189
   21CHL1  H21C 1535   4.765   2.743   9.530  0.4069 -0.5141 -0.7133
   21CHL1   C22 1536   4.843   2.942   9.259 -0.2985 -0.1150 -0.5398
   21CHL1  H22A 1537   4.826   3.048   9.234  1.0972  0.1285 -0.4914
   21CHL1  H22B 1538   4.953   2.923   9.254 -0.5025 -1.4320 -0.2354
   21CHL1   C23 1539   4.777   2.872   9.146  0.0842 -0.6215 -0.4275
   21CHL1  H23A 1540   4.776   2.761   9.151 -0.7854 -0.6477 -1.0278
   21CHL1  H23B 1541   4.672   2.908   9.139  0.5574  0.5465 -1.9394
   21CHL1   C24 1542   4.847   2.902   9.009 -0.9015  0.4710  0.2453
   21CHL1  H24A 1543   4.871   3.010   8.998 -1.7032  0.7173  0.8581
   21CHL1  H24B 1544   4.946   2.853   9.023 -0.9604  0.2209 -0.2160
   21CHL1   C25 1545   4.789   2.844   8.876  0.1167  0.1599  0.6229
   21CHL1   H25 1546   4.695   2.895   8.845 -0.8813 -0.8607  1.9387
   21CHL1   C26 1547   4.880   2.876   8.758  0.2145 -0.2311  0.0050
   21CHL1  H26A 1548   4.867   2.822   8.662 -2.2231 -3.3254  1.9990
   21CHL1  H26B 1549   4.867   2.984   8.733  1.2115  0.1717  1.1839
   21CHL1  H26C 1550   4.987   2.861   8.780  0.5199  0.2666 -1.1097
   21CHL1   C27 1551   4.743   2.694   8.878 -0.2332  0.6242  0.1588
   21CHL1  H27A 1552   4.640   2.692   8.920 -0.2825  0.7915  0.0448
   21CHL1  H27B 1553   4.752   2.636   8.784  2.7691 -0.0175  0.7965
   21CHL1  H27C 1554   4.807   2.638   8.950  1.7443  2.1928 -0.3524
   22CHL1    C3 1555   4.784   4.223  10.203 -0.3718 -0.5420  0.0358
   22CHL1    H3 1556   4.862   4.292  10.163  0.7667 -0.6061  2.0658
   22CHL1    O3 1557   4.767   4.238  10.344 -0.0734 -1.0747 -0.0798
   22CHL1   H3' 1558   4.703   4.172  10.371  1.0678 -1.7977  0.8839
   22CHL1    C4 1559   4.648   4.234  10.128 -0.4580  0.4654 -0.1702
   22CHL1   H4A 1560   4.577   4.161  10.173 -0.1377 -0.8681 -1.7942
   22CHL1   H4B 1561   4.602   4.330  10.160 -0.3932 -0.3749  2.5951
   22CHL1    C5 1562   4.665   4.221   9.973 -0.7269  0.6990  0.4907
   22CHL1    C6 1563   4.643   4.327   9.897 -0.1499 -0.0274 -0.0637
   22CHL1    H6 1564   4.598   4.420   9.934 -0.2121  0.5138 -1.4367
   22CHL1    C7 1565   4.653   4.316   9.750  0.1901 -0.2470 -0.2020
   22CHL1   H7A 1566   4.567   4.364   9.696 -0.2455 -2.2323 -1.3264
   22CHL1   H7B 1567   4.737   4.384   9.727 -0.1782  0.1652 -0.3514
   22CHL1    C8 1568   4.662   4.165   9.694 -0.5561 -0.0288 -1.1644
   22CHL1    H8 1569   4.566   4.114   9.717  1.4194 -3.2899  0.2918
   22CHL1   C14 1570   4.709   4.153   9.548 -0.0198  0.5328  0.2485
   22CHL1   H14 1571   4.811   4.194   9.536 -0.0730  0.3580 -0.7895
   22CHL1   C15 1572   4.622   4.229   9.437  0.1267  0.1085 -0.6805
   22CHL1  H15A 1573   4.518   4.209   9.469  0.4261  2.4549  2.0390
   22CHL1  H15B 1574   4.639   4.337   9.454  1.2161  0.3867 -3.3459
   22CHL1   C16 1575   4.667   4.161   9.307  0.2739  0.0978  0.4549
   22CHL1  H16A 1576   4.585   4.111   9.250  0.3302 -0.6062  0.9795
   22CHL1  H16B 1577   4.728   4.231   9.246  0.0731 -0.1241 -0.0041
   22CHL1   C17 1578   4.760   4.037   9.353 -0.2458 -0.0839 -0.4581
   22CHL1   H17 1579   4.862   4.082   9.358 -0.7843  1.2231 -0.7590
   22CHL1   C13 1580   4.714   4.010   9.496 -0.4680  0.4142  0.2003
   22CHL1   C18 1581   4.576   3.942   9.518 -0.8236  0.0321 -0.1180
   22CHL1  H18A 1582   4.578   3.839   9.475 -0.5882 -0.8104  1.8812
   22CHL1  H18B 1583   4.545   3.928   9.623 -1.2243  3.3455  0.2433
   22CHL1  H18C 1584   4.491   3.997   9.471 -1.2034 -0.0499  0.4707
   22CHL1   C12 1585   4.817   3.935   9.577 -0.4989 -0.7494  0.0979
   22CHL1  H12A 1586   4.808   3.826   9.559 -1.9315 -0.6931  0.3998
   22CHL1  H12B 1587   4.919   3.970   9.551 -0.3675 -1.2766 -0.1051
   22CHL1   C11 1588   4.788   3.945   9.729 -0.1920  0.8896  0.5102
   22CHL1  H11A 1589   4.702   3.882   9.762 -0.0584  1.0797  1.2232
   22CHL1  H11B 1590   4.877   3.900   9.779  0.4366  2.3909  0.7660
   22CHL1    C9 1591   4.758   4.083   9.780 -0.6532  0.3784  0.5042
   22CHL1    H9 1592   4.858   4.131   9.769 -0.1915 -0.9983 -1.5636
   22CHL1   C10 1593   4.728   4.085   9.935 -0.1399 -0.0393 -0.9666
   22CHL1   C19 1594   4.631   3.971   9.977 -0.1042  0.0474  0.0139
   22CHL1  H19A 1595   4.607   3.975  10.086  1.1405  1.1617  0.2589
   22CHL1  H19B 1596   4.540   3.979   9.915 -0.3021  1.1473  0.4437
   22CHL1  H19C 1597   4.680   3.874   9.954 -1.3239 -0.3064 -1.1244
   22CHL1    C1 1598   4.859   4.064  10.014 -0.2718  0.3333 -1.0229
   22CHL1   H1A 1599   4.901   3.963   9.997  0.6905  0.5195  0.1463
   22CHL1   H1B 1600   4.923   4.146   9.975 -0.4686  0.1240 -1.7994
   22CHL1    C2 1601   4.840   4.086  10.175 -0.4270 -0.0072  0.2665
   22CHL1   H2A 1602   4.937   4.072  10.226  0.5380  0.5686 -1.3767
   22CHL1   H2B 1603   4.769   4.011  10.215 -2.3967  1.1119 -1.0305
   22CHL1   C20 1604   4.765   3.912   9.261 -1.1961 -0.1195 -0.1831
   22CHL1   H20 1605   4.816   3.839   9.327 -0.4071  0.3806 -0.2464
   22CHL1   C21 1606   4.863   3.951   9.139 -0.0881  0.3305 -0.5070
   22CHL1  H21A 1607   4.958   3.987   9.184 -1.5916  1.6482  1.7139
   22CHL1  H21B 1608   4.827   4.036   9.078 -0.0598 -0.2175 -1.2961
   22CHL1  H21C 1609   4.876   3.863   9.072 -0.5958 -1.9399  2.2342
   22CHL1   C22 1610   4.638   3.861   9.199  0.6801 -0.0323 -0.0228
   22CHL1  H22A 1611   4.552   3.863   9.269  0.1133  1.7938 -0.7354
   22CHL1  H22B 1612   4.610   3.925   9.112  0.9912 -1.8821 -1.5269
   22CHL1   C23 1613   4.651   3.713   9.145 -0.4065  0.0091  0.1267
   22CHL1  H23A 1614   4.599   3.703   9.047 -0.4057  0.5606  0.0676
   22CHL1  H23B 1615   4.759   3.692   9.132 -0.8790 -2.8792  0.4728
   22CHL1   C24 1616   4.601   3.611   9.247 -0.7942 -0.4491  0.4181
   22CHL1  H24A 1617   4.649   3.632   9.345 -0.3691 -0.5024  0.2213
   22CHL1  H24B 1618   4.492   3.628   9.265 -0.7699 -0.6455  0.7370
   22CHL1   C25 1619   4.617   3.466   9.204 -0.3669  0.4114 -1.0456
   22CHL1   H25 1620   4.720   3.463   9.162  0.5033 -0.3944  1.1079
   22CHL1   C26 1621   4.613   3.368   9.327 -0.1091  0.5212 -0.1412
   22CHL1  H26A 1622   4.641   3.263   9.306 -0.5429  0.2180  0.7519
   22CHL1  H26B 1623   4.676   3.407   9.410 -0.3942 -0.5551  0.5811
   22CHL1  H26C 1624   4.509   3.357   9.365  0.4474 -0.6108  1.0532
   22CHL1   C27 1625   4.513   3.420   9.103 -0.8697 -0.6496 -0.7924
   22CHL1  H27A 1626   4.413   3.447   9.143 -2.1886 -3.5653 -1.9960
   22CHL1  H27B 1627   4.536   3.459   9.001  1.0420  1.8676  0.5424
   22CHL1  H27C 1628   4.495   3.311   9.088 -2.1421 -0.2214 -2.6014
   23CHL1    C3 1629   1.510   5.713  10.072  0.7931 -0.2250  0.0643
   23CHL1    H3 1630   1.411   5.708  10.023  2.2126 -2.0671 -2.8260
   23CHL1    O3 1631   1.504   5.737  10.215 -0.1441  0.1755  0.0416
   23CHL1   H3' 1632   1.589   5.776  10.237 -0.0741  2.3746 -3.7243
   23CHL1    C4 1633   1.575   5.577  10.039 -0.3604 -0.0854 -0.2465
   23CHL1   H4A 1634   1.679   5.564  10.076 -1.5114 -1.7730  2.5179
   23CHL1   H4B 1635   1.526   5.492  10.091 -0.6972  1.8467  2.6898
   23CHL1    C5 1636   1.567   5.565   9.886  0.7349  0.3161 -0.3294
   23CHL1    C6 1637   1.519   5.451   9.825 -0.0990 -0.1344  1.3622
   23CHL1    H6 1638   1.495   5.366   9.890  1.8197 -0.6759  1.4022
   23CHL1    C7 1639   1.524   5.421   9.672 -0.2506 -0.0868  0.0203
   23CHL1   H7A 1640   1.565   5.320   9.650 -0.7882 -0.8956  2.5631
   23CHL1   H7B 1641   1.419   5.430   9.637 -0.9367 -1.2718  1.7427
   23CHL1    C8 1642   1.603   5.534   9.591 -0.4916 -0.5921 -0.0464
   23CHL1    H8 1643   1.711   5.511   9.606 -0.6262 -0.0936  1.8006
   23CHL1   C14 1644   1.564   5.537   9.447 -0.2172 -0.1813  0.2387
   23CHL1   H14 1645   1.454   5.553   9.453 -0.1918 -0.4819  1.6741
   23CHL1   C15 1646   1.562   5.399   9.368 -0.8333 -0.7612 -0.7357
   23CHL1  H15A 1647   1.668   5.370   9.388 -1.4737 -2.4406  0.3759
   23CHL1  H15B 1648   1.493   5.321   9.408  1.4041 -1.5905  1.6475
   23CHL1   C16 1649   1.535   5.444   9.233  0.4567  0.1192  0.3331
   23CHL1  H16A 1650   1.604   5.388   9.165  0.3069  1.0210 -0.5610
   23CHL1  H16B 1651   1.431   5.420   9.202 -0.1986  1.9067  1.0964
   23CHL1   C17 1652   1.565   5.602   9.227  1.1020  0.5190  0.6931
   23CHL1   H17 1653   1.468   5.654   9.237  0.4966 -0.2445 -0.9082
   23CHL1   C13 1654   1.629   5.644   9.359 -1.3215  0.2813 -0.3064
   23CHL1   C18 1655   1.785   5.623   9.352 -0.0032 -0.1366  0.6576
   23CHL1  H18A 1656   1.816   5.536   9.290  0.5942 -0.2987  1.1912
   23CHL1  H18B 1657   1.831   5.713   9.307 -2.2612  0.4675 -0.5489
   23CHL1  H18C 1658   1.827   5.605   9.453  1.7770 -1.1598 -0.2376
   23CHL1   C12 1659   1.601   5.779   9.416 -0.0374  0.3192  0.4991
   23CHL1  H12A 1660   1.664   5.845   9.353  0.4974  0.7527  1.4824
   23CHL1  H12B 1661   1.491   5.791   9.413  0.0036  0.2668 -1.8994
   23CHL1   C11 1662   1.654   5.783   9.559 -0.1395  1.3144  0.2767
   23CHL1  H11A 1663   1.765   5.776   9.563 -0.2387 -1.6158 -0.8577
   23CHL1  H11B 1664   1.627   5.882   9.602 -2.5089  1.2872 -1.0627
   23CHL1    C9 1665   1.583   5.682   9.648 -0.4896 -0.1223  0.2386
   23CHL1    H9 1666   1.478   5.718   9.652 -0.3480  0.0685  4.8860
   23CHL1   C10 1667   1.625   5.687   9.801  0.5108 -0.2037 -0.1923
   23CHL1   C19 1668   1.779   5.679   9.805 -0.4123 -0.4267  0.5411
   23CHL1  H19A 1669   1.820   5.766   9.750  1.1971 -1.8979 -0.6591
   23CHL1  H19B 1670   1.826   5.675   9.906 -2.5848 -0.6627  1.5696
   23CHL1  H19C 1671   1.824   5.589   9.757 -0.0264  0.0459  0.0074
   23CHL1    C1 1672   1.574   5.821   9.865  0.2254  0.1009 -0.6285
   23CHL1   H1A 1673   1.642   5.901   9.828 -1.9977  2.0058 -0.7184
   23CHL1   H1B 1674   1.471   5.832   9.825  0.1020 -1.9336 -0.9114
   23CHL1    C2 1675   1.582   5.829  10.016  0.6877  0.0078 -0.3563
   23CHL1   H2A 1676   1.533   5.924  10.047  1.4486  0.6013 -0.9631
   23CHL1   H2B 1677   1.681   5.841  10.065 -0.8306  1.8294  2.4271
   23CHL1   C20 1678   1.630   5.654   9.093  0.1768 -0.2236  0.3732
   23CHL1   H20 1679   1.710   5.727   9.119 -0.0324 -0.2602  1.1167
   23CHL1   C21 1680   1.521   5.740   9.031  0.0804 -0.3334 -0.7081
   23CHL1  H21A 1681   1.486   5.825   9.093  2.6087 -0.1330  0.4858
   23CHL1  H21B 1682   1.434   5.677   9.003 -0.1334 -0.3758  0.0469
   23CHL1  H21C 1683   1.551   5.785   8.935  0.1245 -2.2345 -1.6172
   23CHL1   C22 1684   1.691   5.547   8.998  0.4853 -0.2385  0.7818
   23CHL1  H22A 1685   1.779   5.496   9.043 -1.6313 -3.8684  1.0067
   23CHL1  H22B 1686   1.609   5.474   8.978 -0.9529  1.8827 -1.3519
   23CHL1   C23 1687   1.737   5.599   8.858 -0.2164  0.5181  0.6349
   23CHL1  H23A 1688   1.650   5.638   8.801  1.2845  1.9724 -0.7225
   23CHL1  H23B 1689   1.812   5.680   8.865  0.0616  0.5952 -2.5426
   23CHL1   C24 1690   1.803   5.488   8.785  0.0338 -0.2059 -0.3214
   23CHL1  H24A 1691   1.884   5.443   8.847  1.4533 -0.8291 -2.5624
   23CHL1  H24B 1692   1.741   5.398   8.765  0.5188 -1.3658  2.9962
   23CHL1   C25 1693   1.871   5.529   8.648  0.2865  0.0854  0.3953
   23CHL1   H25 1694   1.856   5.638   8.630  1.7087  0.2904  0.3636
   23CHL1   C26 1695   2.025   5.508   8.641  0.7072  0.1988 -0.2850
   23CHL1  H26A 1696   2.062   5.538   8.541 -2.2977  1.6939 -1.0177
   23CHL1  H26B 1697   2.064   5.580   8.716  0.2883 -2.7572  2.9204
   23CHL1  H26C 1698   2.060   5.402   8.642 -3.3308 -1.2325 -0.2542
   23CHL1   C27 1699   1.802   5.462   8.531 -0.3294 -0.0444 -0.9383
   23CHL1  H27A 1700   1.695   5.489   8.527 -0.7634 -1.5193  0.1342
   23CHL1  H27B 1701   1.845   5.491   8.433  1.6452  2.4636  0.5907
   23CHL1  H27C 1702   1.806   5.351   8.531  1.8966 -0.0557  2.7259
   24CHL1    C3 1703   2.637   5.939   9.955  0.3512 -0.6244 -0.3176
   24CHL1    H3 1704   2.701   5.850   9.933  1.5645 -0.2218  1.4446
   24CHL1    O3 1705   2.630   5.946  10.097  0.1730 -0.1405  0.0927
   24CHL1   H3' 1706   2.718   5.978  10.118  0.5479  0.2175 -1.9416
   24CHL1    C4 1707   2.710   6.063   9.908  0.3255  0.4973  0.4008
   24CHL1   H4A 1708   2.650   6.147   9.949 -0.6776 -0.2480  0.4764
   24CHL1   H4B 1709   2.813   6.068   9.948  1.0497  1.9724 -1.5775
   24CHL1    C5 1710   2.705   6.066   9.757  0.3045  0.3559 -0.3227
   24CHL1    C6 1711   2.816   6.067   9.687  0.6198 -0.3068 -0.4376
   24CHL1    H6 1712   2.907   6.065   9.750 -0.4530 -1.6718  1.1142
   24CHL1    C7 1713   2.827   6.077   9.537  0.5310 -0.5557  0.1375
   24CHL1   H7A 1714   2.910   6.148   9.515 -0.1944  0.6312  1.1335
   24CHL1   H7B 1715   2.852   5.976   9.496 -0.6941 -0.1998 -1.5284
   24CHL1    C8 1716   2.692   6.132   9.483  0.4856 -0.2084 -0.3685
   24CHL1    H8 1717   2.698   6.238   9.515  2.3591 -0.3612 -0.1503
   24CHL1   C14 1718   2.699   6.115   9.335 -0.2438 -0.2378  0.7081
   24CHL1   H14 1719   2.706   6.006   9.318 -0.2133 -0.4001  1.7017
   24CHL1   C15 1720   2.818   6.185   9.265  0.2334  0.7129 -0.6784
   24CHL1  H15A 1721   2.834   6.282   9.317 -0.9414  0.5257  0.0401
   24CHL1  H15B 1722   2.916   6.136   9.283 -0.3103 -0.2688 -0.3835
   24CHL1   C16 1723   2.771   6.201   9.123 -0.0118  0.4572 -0.5078
   24CHL1  H16A 1724   2.766   6.309   9.095 -1.4657  0.5930  0.2112
   24CHL1  H16B 1725   2.830   6.148   9.045 -1.0490 -0.2884 -0.7937
   24CHL1   C17 1726   2.622   6.151   9.117  0.3439 -0.3348  0.5464
   24CHL1   H17 1727   2.637   6.043   9.093 -1.7116 -0.3864 -0.6897
   24CHL1   C13 1728   2.568   6.153   9.263 -0.0514  0.1775  0.5338
   24CHL1   C18 1729   2.531   6.297   9.293  0.1977 -0.4826 -0.4855
   24CHL1  H18A 1730   2.511   6.322   9.399 -2.2299  2.9807 -1.6584
   24CHL1  H18B 1731   2.617   6.361   9.262  1.7296 -1.9773  0.6112
   24CHL1  H18C 1732   2.434   6.331   9.251  0.6965  1.0454 -0.4404
   24CHL1   C12 1733   2.459   6.054   9.318 -0.1185 -0.2183  0.1796
   24CHL1  H12A 1734   2.364   6.060   9.262 -0.1944 -0.4640  0.2824
   24CHL1  H12B 1735   2.494   5.951   9.296  1.0081 -0.0412  1.1195
   24CHL1   C11 1736   2.438   6.057   9.472 -0.3272 -0.4387  0.7450
   24CHL1  H11A 1737   2.399   6.159   9.494  0.4227  0.1310 -0.5001
   24CHL1  H11B 1738   2.369   5.976   9.506 -1.3279  0.1265  0.0907
   24CHL1    C9 1739   2.575   6.048   9.548  0.0007 -0.2286  0.0113
   24CHL1    H9 1740   2.609   5.945   9.527 -0.1674 -1.0102  3.2618
   24CHL1   C10 1741   2.561   6.063   9.699 -0.9632 -0.4565  0.1089
   24CHL1   C19 1742   2.486   6.191   9.735  0.5207 -0.2506  0.3840
   24CHL1  H19A 1743   2.387   6.204   9.687 -0.1524  0.6661  1.9808
   24CHL1  H19B 1744   2.469   6.203   9.845  1.9707 -0.1002  0.6035
   24CHL1  H19C 1745   2.539   6.284   9.703 -0.2086  0.6293  1.6787
   24CHL1    C1 1746   2.488   5.938   9.753 -0.5613 -0.0433  0.1775
   24CHL1   H1A 1747   2.386   5.943   9.709 -1.0019 -1.4989  0.9882
   24CHL1   H1B 1748   2.547   5.853   9.712 -0.4623  0.9827 -1.9008
   24CHL1    C2 1749   2.494   5.931   9.911  0.1019  0.6360  0.3999
   24CHL1   H2A 1750   2.441   5.837   9.938  2.5707 -0.4737  1.5644
   24CHL1   H2B 1751   2.446   6.009   9.974  1.1689 -0.2242  2.3202
   24CHL1   C20 1752   2.534   6.202   9.003 -0.1899  0.3217 -0.2206
   24CHL1   H20 1753   2.490   6.297   9.040  1.2121  0.3556  1.4004
   24CHL1   C21 1754   2.418   6.101   8.989 -1.1551 -0.6270  0.4401
   24CHL1  H21A 1755   2.452   5.996   8.975 -0.3025 -0.4555  1.1830
   24CHL1  H21B 1756   2.350   6.109   8.902  0.7276  1.3117 -0.8997
   24CHL1  H21C 1757   2.356   6.114   9.080 -2.3749  0.2150 -0.4997
   24CHL1   C22 1758   2.600   6.216   8.855  0.4123  0.4451  0.0258
   24CHL1  H22A 1759   2.698   6.264   8.874  2.3573 -3.8742  1.5395
   24CHL1  H22B 1760   2.604   6.117   8.804 -1.1585  0.3068  0.1326
   24CHL1   C23 1761   2.519   6.307   8.762  0.6488 -0.5754  0.0034
   24CHL1  H23A 1762   2.426   6.252   8.738 -0.5412  0.9275  0.9964
   24CHL1  H23B 1763   2.474   6.401   8.801 -0.2841 -0.1831 -1.9755
   24CHL1   C24 1764   2.588   6.340   8.630 -0.2566 -0.4192 -0.3109
   24CHL1  H24A 1765   2.676   6.402   8.657  0.3672 -1.8154  0.9636
   24CHL1  H24B 1766   2.629   6.242   8.598 -0.1758 -0.7630  0.8308
   24CHL1   C25 1767   2.500   6.421   8.544 -0.4693  0.4387 -0.6810
   24CHL1   H25 1768   2.397   6.384   8.558 -0.5867  0.3812 -1.6625
   24CHL1   C26 1769   2.502   6.571   8.587 -0.0955 -0.0773  0.2936
   24CHL1  H26A 1770   2.437   6.629   8.518 -0.2973  0.9821  1.3615
   24CHL1  H26B 1771   2.471   6.586   8.692 -0.1460 -1.4709  0.4965
   24CHL1  H26C 1772   2.606   6.607   8.572 -0.5857  1.9573  1.5769
   24CHL1   C27 1773   2.529   6.405   8.392 -0.1795 -0.2094  0.0460
   24CHL1  H27A 1774   2.639   6.417   8.377 -0.4661  0.7595 -1.3290
   24CHL1  H27B 1775   2.496   6.302   8.363  2.3064 -1.2479  0.7565
   24CHL1  H27C 1776   2.465   6.479   8.340 -2.9102 -1.6094  1.2926
   25CHL1    C3 1777   4.219   0.945  10.330 -0.4633  0.2144  0.1997
   25CHL1    H3 1778   4.155   1.034  10.307 -2.1744 -1.3194 -1.0981
   25CHL1    O3 1779   4.231   0.932  10.470 -0.1469 -0.0181  0.3903
   25CHL1   H3' 1780   4.301   0.867  10.481  2.1261  2.6603  2.4429
   25CHL1    C4 1781   4.179   0.811  10.270  0.1839  0.2229  0.1632
   25CHL1   H4A 1782   4.233   0.726  10.317 -0.8176  0.4360  1.7364
   25CHL1   H4B 1783   4.073   0.803  10.304 -0.2019 -0.6858 -1.2273
   25CHL1    C5 1784   4.190   0.796  10.115 -0.0437 -0.3621 -0.4149
   25CHL1    C6 1785   4.092   0.745  10.042 -0.5285  0.2464 -0.2746
   25CHL1    H6 1786   3.995   0.713  10.084  0.4234 -0.8703  1.1673
   25CHL1    C7 1787   4.111   0.716   9.900 -0.3656 -0.0402 -0.1526
   25CHL1   H7A 1788   4.084   0.609   9.887  0.0530 -0.2096  0.3306
   25CHL1   H7B 1789   4.056   0.790   9.838 -0.9151  0.6033  1.0759
   25CHL1    C8 1790   4.256   0.730   9.844 -0.2871 -0.5170  0.6687
   25CHL1    H8 1791   4.303   0.634   9.876 -1.0587 -1.1147 -0.0051
   25CHL1   C14 1792   4.260   0.755   9.697  0.0715 -0.0336  0.0028
   25CHL1   H14 1793   4.221   0.858   9.688 -0.1886  0.1208  2.4608
   25CHL1   C15 1794   4.174   0.658   9.604  0.1463  0.3452  0.4662
   25CHL1  H15A 1795   4.206   0.558   9.639  0.0448 -0.0339 -0.5098
   25CHL1  H15B 1796   4.064   0.668   9.610 -0.0840 -1.7408 -0.0010
   25CHL1   C16 1797   4.233   0.681   9.463 -0.1197  0.2293  0.0041
   25CHL1  H16A 1798   4.269   0.585   9.421  0.0507  1.5191 -2.9438
   25CHL1  H16B 1799   4.158   0.719   9.391 -0.7795  1.5509  1.3573
   25CHL1   C17 1800   4.354   0.778   9.481  0.8997 -0.3046  0.2022
   25CHL1   H17 1801   4.300   0.875   9.477  0.6183 -0.4666  0.1057
   25CHL1   C13 1802   4.397   0.758   9.629  0.3849 -0.6994 -0.6118
   25CHL1   C18 1803   4.483   0.626   9.647  0.3220 -0.0270 -0.4598
   25CHL1  H18A 1804   4.437   0.537   9.598  3.2806 -2.4015  0.8870
   25CHL1  H18B 1805   4.587   0.637   9.609  0.8799 -0.3281  0.9384
   25CHL1  H18C 1806   4.500   0.607   9.755 -1.2189  1.9619  0.1606
   25CHL1   C12 1807   4.463   0.879   9.697 -0.6246 -0.0037  0.7792
   25CHL1  H12A 1808   4.567   0.889   9.658 -0.8193  0.8164  0.4526
   25CHL1  H12B 1809   4.409   0.971   9.667  2.2894  1.5273 -0.0245
   25CHL1   C11 1810   4.469   0.870   9.855  0.4264  0.2324 -0.3058
   25CHL1  H11A 1811   4.541   0.787   9.870 -0.6760 -0.3447  2.1209
   25CHL1  H11B 1812   4.519   0.964   9.886  1.2460 -0.8860  1.8710
   25CHL1    C9 1813   4.327   0.841   9.912  0.0172 -0.7577 -1.3020
   25CHL1    H9 1814   4.270   0.933   9.888 -0.0029 -0.7499 -1.2271
   25CHL1   C10 1815   4.330   0.836  10.064  0.4369  0.1596  0.1129
   25CHL1   C19 1816   4.442   0.731  10.111 -0.0243 -0.6326  0.2674
   25CHL1  H19A 1817   4.416   0.633  10.066 -0.0057 -1.7968  2.6879
   25CHL1  H19B 1818   4.540   0.771  10.078 -0.1118 -0.4479  0.2343
   25CHL1  H19C 1819   4.450   0.715  10.221  0.5719  2.1989  0.6769
   25CHL1    C1 1820   4.358   0.982  10.121 -0.1793 -0.0604  0.4640
   25CHL1   H1A 1821   4.462   1.007  10.093 -1.2832  1.4027 -2.6614
   25CHL1   H1B 1822   4.290   1.059  10.077 -2.6979 -2.0628  0.7530
   25CHL1    C2 1823   4.357   0.992  10.270  0.3952  0.0623 -0.4225
   25CHL1   H2A 1824   4.380   1.094  10.307  0.5191  0.0347 -0.4250
   25CHL1   H2B 1825   4.441   0.937  10.318  0.7637 -0.1974 -1.3690
   25CHL1   C20 1826   4.456   0.774   9.366  0.2919  0.1244 -0.3407
   25CHL1   H20 1827   4.536   0.701   9.393  1.6426  1.4369 -0.7075
   25CHL1   C21 1828   4.529   0.909   9.359  0.1136 -0.3338 -0.3046
   25CHL1  H21A 1829   4.631   0.892   9.318  0.7554  0.0734  1.0737
   25CHL1  H21B 1830   4.553   0.953   9.459 -0.7468  1.1174 -0.7225
   25CHL1  H21C 1831   4.472   0.982   9.298 -1.0180 -2.1961 -1.5497
   25CHL1   C22 1832   4.395   0.733   9.230 -0.2507 -0.6109 -0.6041
   25CHL1  H22A 1833   4.359   0.628   9.235 -0.8626 -0.3800  0.0071
   25CHL1  H22B 1834   4.313   0.806   9.214  0.4636 -0.0032 -1.5035
   25CHL1   C23 1835   4.488   0.746   9.103 -0.0607  0.8069  0.2727
   25CHL1  H23A 1836   4.433   0.727   9.009 -1.6212  3.3235  0.6271
   25CHL1  H23B 1837   4.506   0.855   9.093  0.5086  0.9992  2.8603
   25CHL1   C24 1838   4.606   0.654   9.100 -0.1812 -0.9881 -0.7921
   25CHL1  H24A 1839   4.677   0.667   9.184 -1.5241  2.2553 -0.0410
   25CHL1  H24B 1840   4.561   0.553   9.110 -1.3638 -0.4103 -0.1052
   25CHL1   C25 1841   4.689   0.659   8.971  0.0720  0.4670 -0.1371
   25CHL1   H25 1842   4.629   0.662   8.877  0.1150 -1.0788 -0.2335
   25CHL1   C26 1843   4.760   0.799   8.958  0.1752 -0.4005 -0.2808
   25CHL1  H26A 1844   4.838   0.825   9.032 -1.5147  0.6144  1.1917
   25CHL1  H26B 1845   4.804   0.805   8.856  1.0828 -0.1638  0.1211
   25CHL1  H26C 1846   4.676   0.871   8.974  0.5287 -0.1082  0.2642
   25CHL1   C27 1847   4.785   0.534   8.968  0.3561  0.7418 -0.1335
   25CHL1  H27A 1848   4.839   0.537   9.064  1.4549 -1.7614 -0.6495
   25CHL1  H27B 1849   4.715   0.448   8.966  1.4375 -0.1451 -4.2769
   25CHL1  H27C 1850   4.836   0.535   8.869 -0.2984 -0.6606 -0.4925
   26CHL1    C3 1851   5.325   3.751  10.129 -0.4469 -0.2867  1.0339
   26CHL1    H3 1852   5.430   3.773  10.098 -1.4680  0.3652 -2.2198
   26CHL1    O3 1853   5.304   3.777  10.262 -0.3011 -0.1095 -0.2050
   26CHL1   H3' 1854   5.256   3.702  10.298  1.6101 -0.6254  1.3500
   26CHL1    C4 1855   5.227   3.848  10.049  0.2172  0.1981 -0.0985
   26CHL1   H4A 1856   5.122   3.834  10.083  0.6288 -0.1044  1.0699
   26CHL1   H4B 1857   5.260   3.952  10.067  1.5153  0.3123 -2.9242
   26CHL1    C5 1858   5.227   3.806   9.904  0.4790 -0.2719 -0.3759
   26CHL1    C6 1859   5.234   3.902   9.806  0.2622  0.0197 -0.1172
   26CHL1    H6 1860   5.245   4.007   9.837  2.5882  0.2893 -1.7019
   26CHL1    C7 1861   5.227   3.874   9.663  0.4037 -0.2636  0.3557
   26CHL1   H7A 1862   5.167   3.958   9.622 -0.1050  0.3506  2.2945
   26CHL1   H7B 1863   5.328   3.883   9.618  1.5596 -1.1404  2.7300
   26CHL1    C8 1864   5.175   3.726   9.633  0.3849  1.2157  0.3666
   26CHL1    H8 1865   5.065   3.727   9.649  0.6050  0.7004  1.9048
   26CHL1   C14 1866   5.201   3.689   9.485 -0.1221 -0.2226 -0.1487
   26CHL1   H14 1867   5.309   3.692   9.461  0.3723  0.2038  2.0209
   26CHL1   C15 1868   5.148   3.785   9.382  0.2470  0.1842  0.9317
   26CHL1  H15A 1869   5.042   3.806   9.409  0.3069  1.4805  0.2399
   26CHL1  H15B 1870   5.208   3.879   9.376  1.2114 -0.5603 -1.5379
   26CHL1   C16 1871   5.163   3.709   9.254  0.0956  0.4900  0.4300
   26CHL1  H16A 1872   5.072   3.734   9.194 -0.3214 -1.0040  0.4334
   26CHL1  H16B 1873   5.253   3.748   9.202 -0.1931  1.6081  0.7471
   26CHL1   C17 1874   5.185   3.562   9.296  0.0339  0.0191  0.0502
   26CHL1   H17 1875   5.289   3.531   9.273 -0.0505  0.6665 -1.2509
   26CHL1   C13 1876   5.154   3.550   9.442  0.3980  0.2751 -0.1727
   26CHL1   C18 1877   5.003   3.524   9.455 -0.7350 -1.0660  0.7438
   26CHL1  H18A 1878   4.967   3.548   9.557 -0.6665  0.6065  0.3955
   26CHL1  H18B 1879   4.949   3.593   9.386  0.7164  0.1126  0.7454
   26CHL1  H18C 1880   4.973   3.419   9.432  0.2178 -1.6651  2.1922
   26CHL1   C12 1881   5.244   3.461   9.526  0.1692 -0.2296  0.5891
   26CHL1  H12A 1882   5.226   3.353   9.505  0.7401 -0.4270  1.0745
   26CHL1  H12B 1883   5.352   3.481   9.508  0.2385 -1.8866 -0.9467
   26CHL1   C11 1884   5.219   3.476   9.680 -0.3628 -0.3059 -1.0787
   26CHL1  H11A 1885   5.116   3.440   9.699 -0.6051 -0.2138 -2.1898
   26CHL1  H11B 1886   5.290   3.408   9.733 -2.2567 -0.2006  1.6640
   26CHL1    C9 1887   5.241   3.625   9.724 -0.9784 -0.4799 -0.6694
   26CHL1    H9 1888   5.349   3.647   9.708 -1.1347  0.8854  0.1006
   26CHL1   C10 1889   5.214   3.658   9.877  0.3495  0.3994  0.8308
   26CHL1   C19 1890   5.068   3.627   9.919  0.0687  0.0605  0.8963
   26CHL1  H19A 1891   5.030   3.528   9.887 -1.9417  0.6265  1.4524
   26CHL1  H19B 1892   5.053   3.637  10.029 -0.1823  0.4223  0.8312
   26CHL1  H19C 1893   4.991   3.696   9.878  1.7560  2.1067  1.0540
   26CHL1    C1 1894   5.308   3.568   9.955 -0.4061  0.2158  0.2043
   26CHL1   H1A 1895   5.285   3.462   9.936  1.4524  0.3356 -3.0768
   26CHL1   H1B 1896   5.413   3.574   9.919 -0.1621  0.4257  0.9412
   26CHL1    C2 1897   5.302   3.597  10.100 -0.1544  0.1763 -0.3110
   26CHL1   H2A 1898   5.386   3.553  10.158 -1.3692 -0.1999  1.1954
   26CHL1   H2B 1899   5.206   3.564  10.146  0.2809 -0.6362  0.0394
   26CHL1   C20 1900   5.114   3.476   9.189 -0.2532 -0.3760  0.2833
   26CHL1   H20 1901   5.004   3.476   9.207 -0.3291 -3.4993  0.1734
   26CHL1   C21 1902   5.154   3.319   9.209 -0.0439 -0.2817 -0.2119
   26CHL1  H21A 1903   5.089   3.258   9.142  1.0957 -1.7867  0.0127
   26CHL1  H21B 1904   5.137   3.274   9.309 -0.9773 -0.5326 -0.4784
   26CHL1  H21C 1905   5.263   3.315   9.187  0.1519  2.8785  0.0248
   26CHL1   C22 1906   5.146   3.516   9.037  0.0546  0.2213  0.1250
   26CHL1  H22A 1907   5.059   3.469   8.985  0.5526 -0.5011 -0.0638
   26CHL1  H22B 1908   5.144   3.624   9.015  2.1800 -0.2796 -2.7795
   26CHL1   C23 1909   5.276   3.457   8.977 -0.5874 -0.7894  0.1250
   26CHL1  H23A 1910   5.366   3.501   9.024 -0.6679  3.4082 -3.3559
   26CHL1  H23B 1911   5.279   3.348   8.999 -2.3279 -0.9965 -0.5678
   26CHL1   C24 1912   5.291   3.472   8.831  0.0815  0.0450  0.0628
   26CHL1  H24A 1913   5.197   3.430   8.790 -0.6978  0.7606  1.0952
   26CHL1  H24B 1914   5.287   3.581   8.808 -0.7430  0.3434  1.5192
   26CHL1   C25 1915   5.414   3.418   8.753 -0.2090  0.3108 -0.6131
   26CHL1   H25 1916   5.503   3.476   8.784 -1.5180  1.7317  0.5986
   26CHL1   C26 1917   5.440   3.267   8.780 -0.3124  0.0981 -0.4094
   26CHL1  H26A 1918   5.522   3.242   8.709 -0.4336  3.5513 -1.8565
   26CHL1  H26B 1919   5.474   3.240   8.882  2.4227  0.0405 -1.2863
   26CHL1  H26C 1920   5.364   3.193   8.747 -0.6824  0.6655 -0.8268
   26CHL1   C27 1921   5.398   3.439   8.604 -0.7585  0.2869  0.2039
   26CHL1  H27A 1922   5.302   3.402   8.562  0.8440 -4.1650  0.2093
   26CHL1  H27B 1923   5.412   3.548   8.592  0.2996  0.1526  0.1333
   26CHL1  H27C 1924   5.467   3.371   8.549 -2.3595  0.4040 -1.9976
   27CHL1    C3 1925   4.937   0.704  10.209 -0.4877  0.0462  0.0369
   27CHL1    H3 1926   5.025   0.772  10.212 -1.2300  0.9415  2.6463
   27CHL1    O3 1927   4.876   0.708  10.338 -0.6247 -0.4551  0.2968
   27CHL1   H3' 1928   4.885   0.623  10.383  0.8081 -1.0787 -1.1431
   27CHL1    C4 1929   4.835   0.753  10.112 -0.3630 -0.2218  0.3241
   27CHL1   H4A 1930   4.736   0.705  10.128 -1.0540  0.8980 -0.4931
   27CHL1   H4B 1931   4.800   0.853  10.145  2.1205  1.8708 -3.0946
   27CHL1    C5 1932   4.869   0.733   9.967 -0.2200 -0.2979 -0.2772
   27CHL1    C6 1933   4.868   0.842   9.888  0.1896 -0.1820 -0.2521
   27CHL1    H6 1934   4.825   0.937   9.924 -0.2566  0.1786 -1.6974
   27CHL1    C7 1935   4.895   0.840   9.745 -0.1361 -0.4281 -0.8668
   27CHL1   H7A 1936   4.797   0.869   9.702 -0.3716 -0.7762 -0.5716
   27CHL1   H7B 1937   4.972   0.915   9.715 -1.0339  1.1986  0.7893
   27CHL1    C8 1938   4.924   0.696   9.698  0.1410  0.7290 -0.1212
   27CHL1    H8 1939   4.825   0.651   9.679  0.8861 -0.4056 -1.3987
   27CHL1   C14 1940   4.998   0.690   9.565 -0.1481 -0.1322 -0.0357
   27CHL1   H14 1941   5.100   0.732   9.581  0.0233 -0.3719 -0.5234
   27CHL1   C15 1942   4.944   0.788   9.455  0.3152  0.6391  0.0424
   27CHL1  H15A 1943   4.834   0.782   9.443  0.2748  2.4470 -0.6161
   27CHL1  H15B 1944   4.974   0.893   9.475  1.0962  0.5395 -0.5494
   27CHL1   C16 1945   5.013   0.738   9.331  0.2737  0.3370 -0.7998
   27CHL1  H16A 1946   4.927   0.729   9.261  0.4766  0.3760 -1.0561
   27CHL1  H16B 1947   5.091   0.800   9.281  0.8046  0.4299  0.1306
   27CHL1   C17 1948   5.072   0.596   9.362  0.0124 -0.7928 -0.2030
   27CHL1   H17 1949   5.180   0.610   9.385 -0.1720 -1.8353  1.3591
   27CHL1   C13 1950   5.021   0.554   9.500 -0.1049 -0.1999 -0.4517
   27CHL1   C18 1951   4.884   0.478   9.489  0.3970 -0.3460  0.2223
   27CHL1  H18A 1952   4.831   0.461   9.585 -1.3301 -0.6391 -0.7590
   27CHL1  H18B 1953   4.821   0.521   9.407  1.5913  1.1493  0.0618
   27CHL1  H18C 1954   4.911   0.376   9.455  0.0397 -0.8987  1.5737
   27CHL1   C12 1955   5.121   0.477   9.590  0.3153  0.0088  0.4014
   27CHL1  H12A 1956   5.140   0.383   9.533  0.0641 -0.4119  1.0139
   27CHL1  H12B 1957   5.222   0.523   9.600  0.8169 -0.8141 -0.7872
   27CHL1   C11 1958   5.053   0.459   9.727  0.2250  0.2711  0.3890
   27CHL1  H11A 1959   4.970   0.386   9.716  0.5225 -0.0872  0.5173
   27CHL1  H11B 1960   5.127   0.431   9.806  1.3121  0.3979 -0.5656
   27CHL1    C9 1961   5.001   0.594   9.794 -0.4741  0.1125  0.1271
   27CHL1    H9 1962   5.094   0.651   9.816 -0.1950 -0.3653  0.1970
   27CHL1   C10 1963   4.928   0.592   9.927  0.5766  0.0738  0.1701
   27CHL1   C19 1964   4.804   0.495   9.917 -0.2072  0.4460 -0.6989
   27CHL1  H19A 1965   4.757   0.475  10.016 -0.5638  0.4601 -0.8660
   27CHL1  H19B 1966   4.719   0.517   9.849  0.4439 -0.0598 -1.6888
   27CHL1  H19C 1967   4.840   0.393   9.891  1.5765  1.1582 -1.0890
   27CHL1    C1 1968   5.026   0.537  10.034 -0.2089 -0.2501 -0.1483
   27CHL1   H1A 1969   5.045   0.428  10.019  0.4148 -0.2058  0.3065
   27CHL1   H1B 1970   5.120   0.594  10.020 -0.5495 -0.1851 -2.2262
   27CHL1    C2 1971   4.974   0.556  10.175 -0.1015 -0.0967  0.2067
   27CHL1   H2A 1972   5.044   0.525  10.256  1.7437  2.8981 -0.1522
   27CHL1   H2B 1973   4.890   0.488  10.199 -0.6904  0.5806  0.0647
   27CHL1   C20 1974   5.080   0.500   9.246 -0.2419  0.5090 -0.3765
   27CHL1   H20 1975   4.975   0.475   9.222  0.4459 -1.5825 -1.3367
   27CHL1   C21 1976   5.156   0.372   9.278 -0.0786 -0.3063  0.4229
   27CHL1  H21A 1977   5.247   0.398   9.337  1.3740  1.1618 -2.3514
   27CHL1  H21B 1978   5.184   0.322   9.183  0.5298 -0.8536  0.8819
   27CHL1  H21C 1979   5.096   0.306   9.344 -1.6932  0.2482 -0.4770
   27CHL1   C22 1980   5.133   0.570   9.117 -0.3937 -0.1042 -0.6421
   27CHL1  H22A 1981   5.048   0.633   9.082 -0.2485  0.8532  0.7104
   27CHL1  H22B 1982   5.219   0.632   9.150 -0.8128  0.3082 -0.3205
   27CHL1   C23 1983   5.161   0.487   9.000 -0.0086 -0.7752  0.4372
   27CHL1  H23A 1984   5.258   0.435   9.007  1.1183  0.9030 -2.1715
   27CHL1  H23B 1985   5.084   0.407   9.008 -0.8805 -0.1204 -1.2855
   27CHL1   C24 1986   5.157   0.547   8.860 -0.6205 -0.1789 -0.2527
   27CHL1  H24A 1987   5.054   0.585   8.842  0.3260  1.6218 -2.2214
   27CHL1  H24B 1988   5.225   0.634   8.840 -1.4601  0.1339 -1.8296
   27CHL1   C25 1989   5.181   0.436   8.751  0.2031 -0.0816  0.1658
   27CHL1   H25 1990   5.267   0.375   8.787 -0.2884 -0.6366  0.4222
   27CHL1   C26 1991   5.059   0.335   8.734 -0.6039 -0.1821 -0.4574
   27CHL1  H26A 1992   5.048   0.272   8.825 -0.8530 -0.1362 -0.4544
   27CHL1  H26B 1993   4.970   0.400   8.723 -1.1448 -0.4303  2.1241
   27CHL1  H26C 1994   5.084   0.271   8.647 -1.1262  0.2551 -0.9264
   27CHL1   C27 1995   5.217   0.510   8.623  0.3054  0.2726  0.1698
   27CHL1  H27A 1996   5.318   0.556   8.626 -0.1279  1.2588 -0.0919
   27CHL1  H27B 1997   5.212   0.448   8.531  0.2316  1.7878 -0.8611
   27CHL1  H27C 1998   5.137   0.585   8.603  1.0683  0.9901 -0.2235
   28CHL1    C3 1999   3.820   6.182  10.235  0.7384  0.1454 -0.0716
   28CHL1    H3 2000   3.709   6.191  10.229  0.6815  1.2542  2.1112
   28CHL1    O3 2001   3.855   6.162  10.367 -0.1553  0.7135  0.0131
   28CHL1   H3' 2002   3.832   6.070  10.377  0.8039  0.4532 -0.1323
   28CHL1    C4 2003   3.865   6.063  10.154 -0.1323  0.4473  0.4972
   28CHL1   H4A 2004   3.976   6.063  10.165 -0.0464 -0.9246 -0.2316
   28CHL1   H4B 2005   3.834   5.968  10.202  0.6997 -0.9158 -1.5866
   28CHL1    C5 2006   3.828   6.071  10.004  0.1177  0.2414  0.9340
   28CHL1    C6 2007   3.767   5.974   9.938  0.6556  0.1102  0.2511
   28CHL1    H6 2008   3.735   5.879   9.982  1.7222 -0.0189  0.7726
   28CHL1    C7 2009   3.740   5.985   9.793 -0.1772  0.3015  0.4565
   28CHL1   H7A 2010   3.764   5.888   9.743  0.0459  0.7049 -0.2213
   28CHL1   H7B 2011   3.631   6.004   9.782  0.4592  2.2825 -2.8470
   28CHL1    C8 2012   3.819   6.094   9.714 -0.0417  0.2735 -0.4042
   28CHL1    H8 2013   3.923   6.054   9.707 -0.4253 -0.3490 -3.5860
   28CHL1   C14 2014   3.756   6.118   9.573 -1.2362  0.1284  0.4593
   28CHL1   H14 2015   3.663   6.177   9.588 -0.3515  1.2746  1.5597
   28CHL1   C15 2016   3.742   5.992   9.491  0.1587 -0.2155  0.5907
   28CHL1  H15A 2017   3.828   5.923   9.507  0.9701  0.8886  1.0087
   28CHL1  H15B 2018   3.646   5.943   9.520  0.8459 -1.5235  0.7123
   28CHL1   C16 2019   3.737   6.038   9.346  0.5073  0.0341 -0.0089
   28CHL1  H16A 2020   3.815   5.978   9.295  0.4642 -0.7174  0.7923
   28CHL1  H16B 2021   3.642   6.020   9.291  1.3196  2.5708 -2.3254
   28CHL1   C17 2022   3.775   6.185   9.343  0.2099  0.0504  0.0446
   28CHL1   H17 2023   3.682   6.241   9.368 -0.7721 -0.9410 -1.2587
   28CHL1   C13 2024   3.845   6.207   9.483 -0.3881  0.3032  0.0481
   28CHL1   C18 2025   3.992   6.168   9.472 -0.1902  0.4098  0.0992
   28CHL1  H18A 2026   4.034   6.156   9.575 -0.7284  0.9618  0.3796
   28CHL1  H18B 2027   4.012   6.077   9.411 -1.2452 -0.4999  1.0645
   28CHL1  H18C 2028   4.049   6.257   9.438 -2.1212  2.0620  1.0825
   28CHL1   C12 2029   3.847   6.343   9.558 -0.1193  0.6934 -0.0454
   28CHL1  H12A 2030   3.909   6.420   9.508  0.3838  2.1089  2.6910
   28CHL1  H12B 2031   3.740   6.373   9.545 -0.9193 -1.5004  1.1611
   28CHL1   C11 2032   3.893   6.340   9.710  0.0993  0.1743  0.6639
   28CHL1  H11A 2033   4.002   6.325   9.701 -0.1068 -0.6323 -0.6482
   28CHL1  H11B 2034   3.869   6.436   9.761  2.2038  0.0500  1.9238
   28CHL1    C9 2035   3.827   6.223   9.795  0.0610 -0.0795 -0.5950
   28CHL1    H9 2036   3.724   6.252   9.825  0.5260 -0.4374  1.4575
   28CHL1   C10 2037   3.884   6.204   9.938 -0.2893  0.1553 -0.6180
   28CHL1   C19 2038   4.037   6.194   9.924  0.1454 -0.2149 -0.5903
   28CHL1  H19A 2039   4.089   6.287   9.891 -0.0318 -1.1040 -3.4695
   28CHL1  H19B 2040   4.089   6.158  10.016  1.6641 -0.2513 -1.4389
   28CHL1  H19C 2041   4.055   6.119   9.845  0.3183 -1.6050  0.7370
   28CHL1    C1 2042   3.853   6.325  10.031  0.1996 -0.3253  0.2227
   28CHL1   H1A 2043   3.903   6.417   9.993  0.2104 -0.7582 -0.8252
   28CHL1   H1B 2044   3.745   6.345  10.013  1.0664  4.4076 -0.3598
   28CHL1    C2 2045   3.884   6.311  10.179 -0.5043  0.0825  0.7337
   28CHL1   H2A 2046   3.869   6.405  10.236  3.0579  0.5439  0.9805
   28CHL1   H2B 2047   3.994   6.311  10.196 -0.4276 -1.9376  0.3423
   28CHL1   C20 2048   3.837   6.236   9.219 -0.3870 -1.0250  1.0534
   28CHL1   H20 2049   3.943   6.208   9.206 -0.8594 -1.7972 -1.4785
   28CHL1   C21 2050   3.848   6.388   9.232 -0.0699 -0.0832  0.0702
   28CHL1  H21A 2051   3.746   6.429   9.247 -0.0275  0.1890 -0.3926
   28CHL1  H21B 2052   3.885   6.428   9.136  3.0287 -1.0015  0.8260
   28CHL1  H21C 2053   3.916   6.423   9.313  1.4964  2.0045 -2.0952
   28CHL1   C22 2054   3.759   6.187   9.089  0.1380 -0.0524 -0.2679
   28CHL1  H22A 2055   3.728   6.080   9.089 -4.7664  1.2423 -0.1437
   28CHL1  H22B 2056   3.679   6.264   9.077  0.8763  0.6731 -0.5849
   28CHL1   C23 2057   3.842   6.197   8.963  0.0283 -0.7541  0.6419
   28CHL1  H23A 2058   3.908   6.286   8.969 -3.1672  1.6566  1.1398
   28CHL1  H23B 2059   3.903   6.105   8.951  2.6768  1.2568 -2.1581
   28CHL1   C24 2060   3.759   6.204   8.833 -0.0822 -0.6642  0.1012
   28CHL1  H24A 2061   3.700   6.112   8.813 -2.4286  0.7193  0.4062
   28CHL1  H24B 2062   3.685   6.286   8.844  0.7247  0.2612 -1.1046
   28CHL1   C25 2063   3.845   6.239   8.704  0.3099 -0.7136  0.6281
   28CHL1   H25 2064   3.895   6.336   8.725  0.8562 -0.7232 -0.5835
   28CHL1   C26 2065   3.934   6.115   8.675 -0.3424 -0.3161  0.0404
   28CHL1  H26A 2066   4.028   6.136   8.621  0.0483 -0.3896  0.6900
   28CHL1  H26B 2067   3.976   6.075   8.770  1.1574  0.5671 -0.2448
   28CHL1  H26C 2068   3.883   6.030   8.626 -1.2083  0.1572  0.1047
   28CHL1   C27 2069   3.752   6.252   8.584 -0.1790 -0.3555  0.4763
   28CHL1  H27A 2070   3.713   6.151   8.557 -1.2100 -0.6283  2.9079
   28CHL1  H27B 2071   3.664   6.306   8.625 -0.8481 -0.4300 -0.8294
   28CHL1  H27C 2072   3.778   6.313   8.495 -1.1880  0.3334  0.6409
   29CHL1    C3 2073   5.521   3.016   6.665 -0.4306 -0.6997  0.1289
   29CHL1    H3 2074   5.555   3.116   6.699  0.9607 -1.1045 -0.0413
   29CHL1    O3 2075   5.513   2.999   6.525 -0.8439 -0.0311 -0.5075
   29CHL1   H3' 2076   5.423   3.028   6.505 -0.8119  0.8576  0.6007
   29CHL1    C4 2077   5.616   2.916   6.728 -0.5477  0.8324  0.5045
   29CHL1   H4A 2078   5.580   2.812   6.711  1.1163 -0.2420  3.2670
   29CHL1   H4B 2079   5.714   2.920   6.677 -0.0084 -2.1572  1.1878
   29CHL1    C5 2080   5.621   2.944   6.880 -0.0797 -0.8366 -0.2497
   29CHL1    C6 2081   5.734   3.000   6.935  0.1794 -0.3411  0.0690
   29CHL1    H6 2082   5.823   3.026   6.875 -0.3009  1.0742 -0.0446
   29CHL1    C7 2083   5.742   3.021   7.088 -0.2176 -0.1261 -0.2113
   29CHL1   H7A 2084   5.846   2.992   7.115  0.1072  1.4046  0.2435
   29CHL1   H7B 2085   5.728   3.128   7.114  1.3290 -0.0204  0.2160
   29CHL1    C8 2086   5.639   2.935   7.172  0.3038  0.4192  0.2979
   29CHL1    H8 2087   5.668   2.829   7.155  0.9260  0.1504  2.7728
   29CHL1   C14 2088   5.652   2.990   7.319 -0.2034  0.5102  0.1706
   29CHL1   H14 2089   5.629   3.098   7.325  1.6019  0.9868 -1.1536
   29CHL1   C15 2090   5.788   2.967   7.391  1.1451  0.3451  0.2949
   29CHL1  H15A 2091   5.848   2.879   7.358 -0.8016 -0.6940 -0.5786
   29CHL1  H15B 2092   5.856   3.052   7.370  0.2248  1.2492  0.9418
   29CHL1   C16 2093   5.758   2.950   7.538 -0.0105 -0.1404  0.6888
   29CHL1  H16A 2094   5.791   2.848   7.570  1.3653 -0.1448 -0.6623
   29CHL1  H16B 2095   5.810   3.035   7.587  3.6258 -1.5199 -0.5654
   29CHL1   C17 2096   5.598   2.968   7.547  0.1661 -0.6054 -0.0965
   29CHL1   H17 2097   5.575   3.076   7.549 -1.3963 -0.9246  0.2246
   29CHL1   C13 2098   5.551   2.918   7.411 -0.6421  0.1396 -0.2877
   29CHL1   C18 2099   5.570   2.763   7.399 -0.0488  0.2601  0.1413
   29CHL1  H18A 2100   5.673   2.726   7.417  0.3463  1.0453 -0.4847
   29CHL1  H18B 2101   5.497   2.700   7.455 -0.1835 -1.3055 -1.7283
   29CHL1  H18C 2102   5.552   2.730   7.294 -1.2864  0.2508  0.3468
   29CHL1   C12 2103   5.411   2.961   7.356  0.1181 -0.9053  0.0165
   29CHL1  H12A 2104   5.325   2.912   7.407  0.5375 -1.1587  0.4804
   29CHL1  H12B 2105   5.398   3.070   7.372 -2.3312 -1.4521  2.0287
   29CHL1   C11 2106   5.384   2.921   7.212  0.0390  0.2436 -0.3397
   29CHL1  H11A 2107   5.379   2.811   7.216 -2.9637  0.3635  0.0726
   29CHL1  H11B 2108   5.281   2.944   7.177  0.2631  0.7352 -0.6912
   29CHL1    C9 2109   5.496   2.967   7.112 -0.6256  0.1399 -0.3662
   29CHL1    H9 2110   5.495   3.078   7.116 -2.9436  0.1111  1.0395
   29CHL1   C10 2111   5.490   2.917   6.962 -0.7589 -0.1998 -0.7171
   29CHL1   C19 2112   5.459   2.767   6.963 -0.5794 -0.2582  0.0904
   29CHL1  H19A 2113   5.383   2.740   7.040 -0.1163  0.1353  0.6945
   29CHL1  H19B 2114   5.425   2.737   6.862  0.2564  2.5733 -1.0776
   29CHL1  H19C 2115   5.552   2.715   6.994 -0.1424  0.6617  0.3637
   29CHL1    C1 2116   5.388   3.002   6.886 -0.6341 -0.3370 -0.6189
   29CHL1   H1A 2117   5.288   2.975   6.927 -0.6605  1.9197  0.8733
   29CHL1   H1B 2118   5.406   3.107   6.917 -1.7622 -1.2521  3.5068
   29CHL1    C2 2119   5.384   2.978   6.732  0.1425 -0.0431 -0.2074
   29CHL1   H2A 2120   5.304   3.044   6.693  0.7596 -0.4628 -2.2263
   29CHL1   H2B 2121   5.364   2.871   6.708  2.1892 -0.3050 -0.9281
   29CHL1   C20 2122   5.549   2.905   7.678 -0.2259 -0.0856  0.3617
   29CHL1   H20 2123   5.573   2.796   7.680 -0.0570 -0.0737 -0.6506
   29CHL1   C21 2124   5.399   2.924   7.677  0.5984 -0.3835 -0.4837
   29CHL1  H21A 2125   5.355   2.863   7.596  3.1565  0.1126 -2.3050
   29CHL1  H21B 2126   5.369   3.030   7.663  2.0808  0.4692  2.2729
   29CHL1  H21C 2127   5.362   2.889   7.776  3.0722 -1.3634  0.1292
   29CHL1   C22 2128   5.609   2.958   7.811  0.0242 -0.0985  0.4060
   29CHL1  H22A 2129   5.720   2.956   7.808 -0.0247 -0.8483 -1.1640
   29CHL1  H22B 2130   5.580   3.064   7.798 -1.0283 -0.5894 -1.5199
   29CHL1   C23 2131   5.560   2.892   7.943 -0.0029 -0.2499  0.3246
   29CHL1  H23A 2132   5.610   2.944   8.027 -0.8736  1.9924 -0.5113
   29CHL1  H23B 2133   5.452   2.908   7.964  0.1095  1.2554 -0.1721
   29CHL1   C24 2134   5.593   2.742   7.946 -0.4106  0.6634 -0.0796
   29CHL1  H24A 2135   5.585   2.699   8.048  2.3752 -2.6835 -1.1565
   29CHL1  H24B 2136   5.515   2.693   7.885 -0.3487  2.1075 -1.3637
   29CHL1   C25 2137   5.745   2.703   7.917  0.1707  0.4933  0.3085
   29CHL1   H25 2138   5.771   2.748   7.819 -1.6588 -1.8592 -1.3171
   29CHL1   C26 2139   5.851   2.752   8.016 -0.1067 -0.5240  0.7587
   29CHL1  H26A 2140   5.954   2.714   7.997  0.0057  0.6667 -1.1282
   29CHL1  H26B 2141   5.857   2.863   8.025  0.0404 -0.4477 -0.2925
   29CHL1  H26C 2142   5.806   2.713   8.110 -0.9909 -0.3209  0.4239
   29CHL1   C27 2143   5.743   2.552   7.904 -0.2369  0.2331  0.0509
   29CHL1  H27A 2144   5.683   2.521   7.816 -1.4250  4.6227 -0.8281
   29CHL1  H27B 2145   5.841   2.501   7.895 -1.6458 -2.3841 -1.0837
   29CHL1  H27C 2146   5.693   2.520   7.998  0.4814  1.4244  0.8545
   30CHL1    C3 2147   3.948   2.343   7.239 -0.6155  0.1035 -0.5327
   30CHL1    H3 2148   3.857   2.384   7.287 -0.7033  0.0255 -0.6332
   30CHL1    O3 2149   3.948   2.391   7.106  0.3601 -0.4393  0.4601
   30CHL1   H3' 2150   4.028   2.366   7.060  0.5539  0.5339  0.2658
   30CHL1    C4 2151   4.077   2.397   7.306  0.2495 -0.2331 -0.7530
   30CHL1   H4A 2152   4.165   2.367   7.245  1.4991  3.2690 -0.8011
   30CHL1   H4B 2153   4.073   2.508   7.313 -1.0101 -0.2671 -0.7457
   30CHL1    C5 2154   4.111   2.346   7.448 -0.0565  0.4419  0.3069
   30CHL1    C6 2155   4.139   2.425   7.551  0.4900 -0.4207  0.0249
   30CHL1    H6 2156   4.138   2.534   7.540  0.4094 -0.5917 -1.7209
   30CHL1    C7 2157   4.163   2.375   7.690 -0.3199 -0.9295 -0.5699
   30CHL1   H7A 2158   4.261   2.420   7.717 -0.0089 -1.8252 -0.1793
   30CHL1   H7B 2159   4.077   2.412   7.750 -0.4913  1.2843 -2.1291
   30CHL1    C8 2160   4.190   2.224   7.692 -0.0814  0.4196 -0.6150
   30CHL1    H8 2161   4.286   2.207   7.639 -0.2610  0.5343 -0.9832
   30CHL1   C14 2162   4.188   2.170   7.835 -0.2718  0.0465 -0.2227
   30CHL1   H14 2163   4.083   2.196   7.863 -0.3549  1.7506 -1.9905
   30CHL1   C15 2164   4.282   2.233   7.938  0.8457  0.4720  0.1105
   30CHL1  H15A 2165   4.383   2.244   7.894  0.3390 -0.6403 -1.3457
   30CHL1  H15B 2166   4.254   2.335   7.973 -0.0923 -0.4064  1.9752
   30CHL1   C16 2167   4.278   2.130   8.060  0.1025  0.3793 -0.2542
   30CHL1  H16A 2168   4.382   2.126   8.100 -0.0328  0.1664  0.0771
   30CHL1  H16B 2169   4.217   2.174   8.142 -0.7357  0.4958 -0.9301
   30CHL1   C17 2170   4.203   2.003   8.011  0.1494  0.8876  0.1404
   30CHL1   H17 2171   4.094   2.002   8.031  0.1139 -0.3466 -0.0759
   30CHL1   C13 2172   4.203   2.016   7.850 -0.1039 -0.0491  0.8570
   30CHL1   C18 2173   4.343   1.974   7.800 -0.6510 -0.0021 -0.2287
   30CHL1  H18A 2174   4.363   1.864   7.794 -0.4293  0.0907 -1.3044
   30CHL1  H18B 2175   4.364   2.021   7.702  0.6129  0.9177  0.4577
   30CHL1  H18C 2176   4.418   2.019   7.870 -2.7423  2.4852  0.4557
   30CHL1   C12 2177   4.093   1.946   7.765  0.2497  0.0070 -0.1769
   30CHL1  H12A 2178   4.094   1.835   7.769 -0.2894  0.0121  0.1429
   30CHL1  H12B 2179   4.001   1.982   7.814 -0.6440  0.2027 -1.9672
   30CHL1   C11 2180   4.094   1.988   7.615 -0.4448 -0.1986 -0.2224
   30CHL1  H11A 2181   4.192   1.957   7.573  0.8683 -1.1255  3.4143
   30CHL1  H11B 2182   4.008   1.937   7.567 -0.3644  0.3354 -0.9557
   30CHL1    C9 2183   4.091   2.144   7.600 -0.3915 -0.5023  0.6376
   30CHL1    H9 2184   3.989   2.171   7.635 -0.3552  1.7346 -0.8164
   30CHL1   C10 2185   4.103   2.192   7.449 -0.1380  0.2260  0.2956
   30CHL1   C19 2186   4.229   2.128   7.386  0.4264 -0.3254  0.5702
   30CHL1  H19A 2187   4.233   2.168   7.282 -1.2210 -0.7273  0.3342
   30CHL1  H19B 2188   4.322   2.167   7.432  2.3503 -0.4430 -3.0741
   30CHL1  H19C 2189   4.232   2.018   7.374  0.6631 -0.3199  0.5810
   30CHL1    C1 2190   3.976   2.138   7.378  0.0879  0.2364  0.0421
   30CHL1   H1A 2191   3.977   2.027   7.379  0.1493  0.2343  1.5780
   30CHL1   H1B 2192   3.881   2.161   7.431 -1.4027 -1.5887 -1.7844
   30CHL1    C2 2193   3.963   2.199   7.238  0.9567  0.0449 -0.2003
   30CHL1   H2A 2194   3.876   2.149   7.190  0.8214 -1.8722  1.9425
   30CHL1   H2B 2195   4.051   2.163   7.180 -0.5210 -2.8771 -0.7493
   30CHL1   C20 2196   4.259   1.875   8.083  0.9294 -0.6922  0.4802
   30CHL1   H20 2197   4.355   1.846   8.036  0.8956 -0.8992  0.5380
   30CHL1   C21 2198   4.163   1.756   8.063  0.0477  0.1547  0.1742
   30CHL1  H21A 2199   4.079   1.762   8.135  0.2098 -0.0832  0.3865
   30CHL1  H21B 2200   4.216   1.659   8.073 -1.6160 -0.9394 -1.3451
   30CHL1  H21C 2201   4.111   1.754   7.966  1.2121  0.4188 -0.4688
   30CHL1   C22 2202   4.291   1.895   8.231 -0.7445  0.3793  0.1434
   30CHL1  H22A 2203   4.391   1.941   8.247  0.2813 -2.1389  1.2231
   30CHL1  H22B 2204   4.210   1.959   8.273  0.2563  1.0576  1.0896
   30CHL1   C23 2205   4.302   1.774   8.327 -0.2149  0.0576 -0.3881
   30CHL1  H23A 2206   4.196   1.741   8.333 -0.2169  0.4758  2.6391
   30CHL1  H23B 2207   4.369   1.699   8.280 -1.1334 -1.3844  0.5898
   30CHL1   C24 2208   4.363   1.809   8.463 -0.6547  0.3758  0.3013
   30CHL1  H24A 2209   4.370   1.717   8.525  0.2619 -0.7244 -1.4008
   30CHL1  H24B 2210   4.468   1.843   8.452 -1.4235  2.4648 -0.9119
   30CHL1   C25 2211   4.283   1.903   8.560 -0.5539  0.4625  0.0243
   30CHL1   H25 2212   4.241   1.989   8.503 -0.7271  0.7157  0.5267
   30CHL1   C26 2213   4.170   1.826   8.631 -0.7975  0.5159 -0.5318
   30CHL1  H26A 2214   4.095   1.794   8.555 -0.4227 -0.6072 -0.4451
   30CHL1  H26B 2215   4.215   1.744   8.691  0.9728 -0.2262 -2.7723
   30CHL1  H26C 2216   4.110   1.896   8.692 -0.1046 -0.5706  1.4480
   30CHL1   C27 2217   4.379   1.964   8.670  0.1556  0.4914 -0.1691
   30CHL1  H27A 2218   4.476   2.002   8.630 -0.4148  0.4292 -1.6354
   30CHL1  H27B 2219   4.325   2.044   8.725 -0.2108  0.0590  0.1012
   30CHL1  H27C 2220   4.410   1.895   8.752  2.5039 -0.3761 -1.7163
   31CHL1    C3 2221   3.469   4.378   6.767 -0.7557 -0.2672 -0.3842
   31CHL1    H3 2222   3.569   4.426   6.772 -0.2730 -1.2345 -0.6716
   31CHL1    O3 2223   3.429   4.402   6.635  0.2442  0.0320  0.5006
   31CHL1   H3' 2224   3.334   4.395   6.624  0.0952  0.6451  1.3471
   31CHL1    C4 2225   3.485   4.226   6.800 -0.4257  0.3506  0.0619
   31CHL1   H4A 2226   3.387   4.179   6.775 -0.5489 -0.4434  1.9391
   31CHL1   H4B 2227   3.555   4.173   6.732  0.7852 -2.0616  3.1045
   31CHL1    C5 2228   3.512   4.208   6.949  0.4558  0.5863 -0.3306
   31CHL1    C6 2229   3.617   4.131   6.993  0.3788  0.3629 -0.3088
   31CHL1    H6 2230   3.687   4.072   6.932 -1.0356 -3.9175  1.9593
   31CHL1    C7 2231   3.651   4.115   7.142 -0.0821  0.5967  0.3466
   31CHL1   H7A 2232   3.683   4.013   7.172 -1.6460  0.0038  0.0429
   31CHL1   H7B 2233   3.741   4.175   7.167  1.3874 -1.1930 -0.5173
   31CHL1    C8 2234   3.542   4.159   7.235  0.9236  0.1915 -0.4678
   31CHL1    H8 2235   3.465   4.080   7.238 -1.0447  2.0438 -0.8520
   31CHL1   C14 2236   3.599   4.185   7.381 -0.5299  0.3481  0.9519
   31CHL1   H14 2237   3.664   4.273   7.364  1.3232 -1.3434 -0.9903
   31CHL1   C15 2238   3.703   4.083   7.431  0.6163  0.4546  1.3549
   31CHL1  H15A 2239   3.674   3.977   7.412  2.1440  0.4028 -0.9552
   31CHL1  H15B 2240   3.801   4.099   7.380 -0.5647  0.1422 -1.1171
   31CHL1   C16 2241   3.705   4.120   7.580 -0.5968 -0.7386  0.0605
   31CHL1  H16A 2242   3.694   4.024   7.634  0.5131 -0.2633  1.1411
   31CHL1  H16B 2243   3.804   4.154   7.615  0.5032 -0.9162 -2.7482
   31CHL1   C17 2244   3.592   4.220   7.612 -0.0792 -0.4688  0.0190
   31CHL1   H17 2245   3.629   4.324   7.598 -3.7260  1.1731  1.7663
   31CHL1   C13 2246   3.497   4.209   7.492 -0.1821 -0.1366  0.1937
   31CHL1   C18 2247   3.409   4.078   7.509 -0.6108 -0.1160 -0.3661
   31CHL1  H18A 2248   3.349   4.053   7.419  0.3678 -2.2834 -0.4312
   31CHL1  H18B 2249   3.466   3.986   7.533 -1.4885 -1.1387 -2.0478
   31CHL1  H18C 2250   3.344   4.095   7.598 -0.4948 -1.9940  0.0946
   31CHL1   C12 2251   3.420   4.339   7.450 -0.9220  0.2445 -0.2881
   31CHL1  H12A 2252   3.334   4.349   7.520  0.0037  0.5584  0.8220
   31CHL1  H12B 2253   3.475   4.436   7.450  0.9834 -0.7844  1.8938
   31CHL1   C11 2254   3.368   4.323   7.301  0.2519  0.3333  0.1876
   31CHL1  H11A 2255   3.286   4.248   7.304  0.6301 -0.1507 -1.0174
   31CHL1  H11B 2256   3.313   4.416   7.274 -0.3958 -0.0133  0.3069
   31CHL1    C9 2257   3.474   4.290   7.195  0.5618 -0.2308 -0.1568
   31CHL1    H9 2258   3.547   4.374   7.196  0.0514  0.2578  3.5786
   31CHL1   C10 2259   3.423   4.284   7.042  1.2368  0.7303  0.7891
   31CHL1   C19 2260   3.282   4.225   7.040  0.3958 -0.3397  0.4059
   31CHL1  H19A 2261   3.273   4.127   7.093  0.9872 -0.1937  0.7865
   31CHL1  H19B 2262   3.224   4.305   7.090  3.5979  3.5941 -1.8463
   31CHL1  H19C 2263   3.239   4.214   6.938  0.4863  0.4911  0.2761
   31CHL1    C1 2264   3.413   4.433   6.997  0.8790 -0.7944  0.0547
   31CHL1   H1A 2265   3.340   4.477   7.068  2.4057  1.4806  0.2618
   31CHL1   H1B 2266   3.509   4.486   7.018  0.2818  0.1766  0.3551
   31CHL1    C2 2267   3.370   4.452   6.857  0.0543  0.5106 -0.2873
   31CHL1   H2A 2268   3.364   4.555   6.815  1.6448  0.1568 -1.4627
   31CHL1   H2B 2269   3.265   4.416   6.847  0.3424 -0.8764  1.5660
   31CHL1   C20 2270   3.529   4.216   7.754 -0.1385  0.0402 -0.2231
   31CHL1   H20 2271   3.499   4.111   7.771 -0.5101 -0.0842 -1.5979
   31CHL1   C21 2272   3.408   4.311   7.763 -0.2600 -0.0333 -0.3850
   31CHL1  H21A 2273   3.324   4.277   7.700  1.7607 -0.2820 -3.0554
   31CHL1  H21B 2274   3.437   4.414   7.732 -0.4891 -0.0423 -0.6249
   31CHL1  H21C 2275   3.372   4.327   7.867 -1.3319  0.2438 -0.7936
   31CHL1   C22 2276   3.634   4.250   7.861 -0.1843  0.4188  0.1758
   31CHL1  H22A 2277   3.731   4.197   7.850 -1.7569 -2.7120  0.7319
   31CHL1  H22B 2278   3.659   4.358   7.849 -0.1895  0.7008  2.4760
   31CHL1   C23 2279   3.584   4.230   8.014  0.3942 -0.3078  0.8351
   31CHL1  H23A 2280   3.497   4.294   8.036 -0.5287 -0.9564 -0.8239
   31CHL1  H23B 2281   3.548   4.126   8.029  0.7562 -0.6019 -0.2668
   31CHL1   C24 2282   3.698   4.244   8.113 -0.5127  0.4100 -0.8371
   31CHL1  H24A 2283   3.769   4.161   8.097 -0.9254  0.3649 -2.4641
   31CHL1  H24B 2284   3.746   4.343   8.099 -1.1221  0.7814 -0.3548
   31CHL1   C25 2285   3.639   4.253   8.255  0.5271 -1.1713 -1.4430
   31CHL1   H25 2286   3.558   4.178   8.267 -0.8769  0.3868 -0.9269
   31CHL1   C26 2287   3.760   4.229   8.354  0.0392 -1.0067 -0.0298
   31CHL1  H26A 2288   3.716   4.226   8.456 -1.5114 -3.0831 -0.7323
   31CHL1  H26B 2289   3.815   4.134   8.332  0.7708 -0.3711 -0.9624
   31CHL1  H26C 2290   3.826   4.316   8.337 -1.6412  0.1655 -0.6410
   31CHL1   C27 2291   3.583   4.394   8.278 -0.1109 -0.6900 -0.5517
   31CHL1  H27A 2292   3.502   4.423   8.207  0.7280 -1.2956 -1.7731
   31CHL1  H27B 2293   3.657   4.476   8.271 -0.6722 -0.0643  0.6876
   31CHL1  H27C 2294   3.550   4.406   8.384 -1.0067 -1.1445 -0.7738
   32CHL1    C3 2295   4.370   2.851   6.895  0.1546 -0.6736  0.3656
   32CHL1    H3 2296   4.455   2.785   6.921  1.1409 -0.0368 -1.1344
   32CHL1    O3 2297   4.345   2.839   6.753 -0.0064 -0.1603  0.4484
   32CHL1   H3' 2298   4.302   2.922   6.729 -0.5440 -0.8334 -0.9409
   32CHL1    C4 2299   4.245   2.815   6.976  0.4996  1.1916 -0.0510
   32CHL1   H4A 2300   4.164   2.890   6.960 -1.5939 -1.0754 -0.4102
   32CHL1   H4B 2301   4.209   2.712   6.956  2.7396  0.2590  0.5950
   32CHL1    C5 2302   4.288   2.816   7.121 -0.6942  0.5616  0.4346
   32CHL1    C6 2303   4.288   2.709   7.201  0.3562  0.3966 -0.5204
   32CHL1    H6 2304   4.261   2.607   7.170  0.7558  0.3816 -0.8237
   32CHL1    C7 2305   4.322   2.723   7.346  0.5277  0.4018 -1.0526
   32CHL1   H7A 2306   4.253   2.664   7.410 -0.9299  1.9564 -1.1438
   32CHL1   H7B 2307   4.428   2.692   7.360 -0.1480 -0.8934  1.4285
   32CHL1    C8 2308   4.314   2.869   7.411  0.9974 -0.0868  0.0431
   32CHL1    H8 2309   4.210   2.907   7.419  0.2576 -2.0439  0.0947
   32CHL1   C14 2310   4.391   2.861   7.548 -0.4515 -0.4602 -1.0992
   32CHL1   H14 2311   4.496   2.833   7.526  0.6567  1.1137  2.0125
   32CHL1   C15 2312   4.334   2.763   7.654  0.1920  0.1492 -0.2909
   32CHL1  H15A 2313   4.226   2.768   7.678  0.0760 -0.9275 -0.5550
   32CHL1  H15B 2314   4.362   2.659   7.626 -1.1399 -0.5345  0.8480
   32CHL1   C16 2315   4.410   2.819   7.774  0.6472 -0.0804 -0.6184
   32CHL1  H16A 2316   4.343   2.814   7.862  0.9447 -0.0370 -0.3874
   32CHL1  H16B 2317   4.493   2.745   7.785  0.3647 -0.4415 -0.9140
   32CHL1   C17 2318   4.474   2.959   7.746  1.0682 -0.2572  0.0819
   32CHL1   H17 2319   4.578   2.951   7.707  2.0780 -0.6105  2.6955
   32CHL1   C13 2320   4.399   2.998   7.617 -0.1579  0.0281 -0.6019
   32CHL1   C18 2321   4.257   3.058   7.654 -0.5376  0.8087 -0.6770
   32CHL1  H18A 2322   4.281   3.162   7.684 -0.9079  0.9981 -1.0307
   32CHL1  H18B 2323   4.185   3.069   7.570 -1.2120 -1.6436 -0.4753
   32CHL1  H18C 2324   4.219   3.001   7.742 -0.4324 -0.5483 -1.4868
   32CHL1   C12 2325   4.469   3.096   7.521 -0.0275 -0.2750  0.4481
   32CHL1  H12A 2326   4.482   3.196   7.570  0.2893  0.3334 -0.8504
   32CHL1  H12B 2327   4.570   3.051   7.515 -0.3347 -0.7890 -0.8285
   32CHL1   C11 2328   4.423   3.107   7.379 -0.3984  0.3230  0.6887
   32CHL1  H11A 2329   4.322   3.155   7.380 -0.3609  0.5131 -1.2956
   32CHL1  H11B 2330   4.486   3.172   7.314  0.7248 -1.5539 -0.1468
   32CHL1    C9 2331   4.390   2.963   7.314 -0.3305 -0.3575 -0.6333
   32CHL1    H9 2332   4.491   2.916   7.307 -0.2304 -0.2721  0.2074
   32CHL1   C10 2333   4.329   2.960   7.173 -0.6133  0.5713  0.0993
   32CHL1   C19 2334   4.216   3.068   7.155  0.4431  1.1796  0.6935
   32CHL1  H19A 2335   4.169   3.077   7.054 -2.7272  2.6999  2.2305
   32CHL1  H19B 2336   4.125   3.044   7.215 -0.4694  0.1188 -1.0517
   32CHL1  H19C 2337   4.241   3.163   7.205  0.1469  0.8478  1.4804
   32CHL1    C1 2338   4.454   2.998   7.075 -0.5473 -0.7148  0.0246
   32CHL1   H1A 2339   4.473   3.105   7.099  2.7943 -1.1925 -0.2816
   32CHL1   H1B 2340   4.538   2.929   7.100  0.6010  0.5506 -0.2694
   32CHL1    C2 2341   4.420   2.988   6.923  0.2812 -1.2884 -0.2727
   32CHL1   H2A 2342   4.507   3.012   6.858 -0.5419  2.0420 -0.2195
   32CHL1   H2B 2343   4.345   3.068   6.904  3.0938  1.6291  0.6150
   32CHL1   C20 2344   4.487   3.046   7.867 -0.1680 -0.1514 -0.3976
   32CHL1   H20 2345   4.382   3.051   7.905  1.0336  1.2088  2.9426
   32CHL1   C21 2346   4.545   3.185   7.838  0.1959 -0.0395 -0.0465
   32CHL1  H21A 2347   4.561   3.227   7.940  3.1591  0.4875 -0.6794
   32CHL1  H21B 2348   4.470   3.244   7.782 -2.2451 -1.6229  1.4580
   32CHL1  H21C 2349   4.641   3.177   7.783 -0.9286  0.6302 -2.1779
   32CHL1   C22 2350   4.565   2.980   7.984  0.6656  1.1255 -0.0380
   32CHL1  H22A 2351   4.534   2.874   7.995 -2.6561  2.0442 -0.1467
   32CHL1  H22B 2352   4.673   2.985   7.956  1.9840 -0.9283  4.1304
   32CHL1   C23 2353   4.545   3.025   8.123  0.2414  0.1812  0.0061
   32CHL1  H23A 2354   4.631   2.996   8.188  0.2957  0.3467  0.0095
   32CHL1  H23B 2355   4.531   3.136   8.118 -1.9930 -0.1186 -0.8247
   32CHL1   C24 2356   4.422   2.962   8.185  0.4939  0.5548 -0.7942
   32CHL1  H24A 2357   4.340   2.979   8.113  0.0408  3.5961  0.3703
   32CHL1  H24B 2358   4.439   2.853   8.201 -1.0650  0.2481 -1.1808
   32CHL1   C25 2359   4.392   3.017   8.330 -0.2481 -0.1153  0.6712
   32CHL1   H25 2360   4.381   3.128   8.326 -1.7952 -0.1217  3.4527
   32CHL1   C26 2361   4.245   2.981   8.376  0.1749 -0.1006  0.4605
   32CHL1  H26A 2362   4.240   3.010   8.483  0.0848  0.7662  0.2268
   32CHL1  H26B 2363   4.155   3.015   8.320  0.8272  1.9516  0.6104
   32CHL1  H26C 2364   4.232   2.870   8.376  2.2037 -0.3649  0.3139
   32CHL1   C27 2365   4.496   2.973   8.434  0.3506 -0.3872 -0.3787
   32CHL1  H27A 2366   4.477   3.006   8.538  0.0887 -0.7488 -0.3115
   32CHL1  H27B 2367   4.513   2.864   8.445 -2.2824 -0.6342  1.5471
   32CHL1  H27C 2368   4.596   3.017   8.413  0.4188 -0.2192  0.2967
   33CHL1    C3 2369   5.368   3.396   6.605  0.1178 -0.3049  0.0818
   33CHL1    H3 2370   5.394   3.293   6.638  1.4581  1.0526  3.5637
   33CHL1    O3 2371   5.354   3.419   6.461  0.3939  0.2693  0.0795
   33CHL1   H3' 2372   5.312   3.503   6.441  2.1380  0.6190 -2.4016
   33CHL1    C4 2373   5.232   3.435   6.670 -0.2213 -0.3262 -0.0133
   33CHL1   H4A 2374   5.216   3.539   6.636  0.5503 -0.5935 -1.2415
   33CHL1   H4B 2375   5.169   3.357   6.622  0.3784 -1.9953  1.8446
   33CHL1    C5 2376   5.247   3.412   6.823 -0.8566  0.3167 -0.2045
   33CHL1    C6 2377   5.180   3.310   6.880  0.2861 -0.7969 -0.9029
   33CHL1    H6 2378   5.114   3.248   6.819 -0.1070  1.3755 -2.7599
   33CHL1    C7 2379   5.177   3.287   7.026 -0.5169  0.1698  0.2270
   33CHL1   H7A 2380   5.072   3.277   7.061 -0.0667  0.6217  1.7271
   33CHL1   H7B 2381   5.225   3.190   7.052 -0.1985 -0.1962 -1.6483
   33CHL1    C8 2382   5.245   3.400   7.098 -0.5150 -0.2076 -0.5078
   33CHL1    H8 2383   5.172   3.484   7.095 -1.6870 -1.2778 -3.1125
   33CHL1   C14 2384   5.279   3.356   7.245 -0.6056  0.4685 -0.0104
   33CHL1   H14 2385   5.348   3.269   7.234 -1.0931  0.2451 -1.3599
   33CHL1   C15 2386   5.171   3.288   7.329 -0.6211  0.8066  0.0222
   33CHL1  H15A 2387   5.076   3.345   7.336 -1.2635 -0.1832 -0.5542
   33CHL1  H15B 2388   5.149   3.184   7.297 -2.2148  1.7405 -2.0109
   33CHL1   C16 2389   5.235   3.288   7.475  0.3497  0.0636  0.1089
   33CHL1  H16A 2390   5.161   3.331   7.545  3.5673  2.9373  1.9331
   33CHL1  H16B 2391   5.248   3.180   7.496 -2.0290 -0.6074 -1.6269
   33CHL1   C17 2392   5.367   3.364   7.473 -0.3986  0.5501  0.1154
   33CHL1   H17 2393   5.439   3.282   7.450 -0.1376  0.0556  2.5473
   33CHL1   C13 2394   5.356   3.454   7.345 -0.4819  0.1365  0.5802
   33CHL1   C18 2395   5.266   3.572   7.374  0.1256  0.4034 -0.0755
   33CHL1  H18A 2396   5.317   3.645   7.441 -3.7394  1.6426  1.6801
   33CHL1  H18B 2397   5.238   3.624   7.280  0.2990  2.0036  0.7387
   33CHL1  H18C 2398   5.170   3.546   7.424  0.2512 -2.8742 -1.4304
   33CHL1   C12 2399   5.487   3.492   7.268  0.4703  0.2559 -0.2742
   33CHL1  H12A 2400   5.543   3.575   7.316  1.5716  0.8588 -2.5513
   33CHL1  H12B 2401   5.554   3.404   7.278  0.1616  0.0292 -0.1912
   33CHL1   C11 2402   5.457   3.532   7.120  0.1529 -0.3970 -0.1334
   33CHL1  H11A 2403   5.398   3.626   7.128  0.4497 -0.1185 -1.1308
   33CHL1  H11B 2404   5.545   3.569   7.062 -0.5185  1.9863  0.3423
   33CHL1    C9 2405   5.379   3.441   7.033 -0.7533  0.2543 -0.5820
   33CHL1    H9 2406   5.435   3.346   7.032 -0.0055  0.6522  1.1788
   33CHL1   C10 2407   5.357   3.494   6.896 -1.1086 -0.4766  0.6807
   33CHL1   C19 2408   5.310   3.643   6.895  0.0123 -0.7657 -0.0677
   33CHL1  H19A 2409   5.230   3.660   6.970  0.1357  0.3891 -0.1908
   33CHL1  H19B 2410   5.387   3.714   6.932 -0.2672 -1.2301  1.3976
   33CHL1  H19C 2411   5.274   3.677   6.795 -2.9093  0.7638  1.4557
   33CHL1    C1 2412   5.489   3.468   6.816 -0.1693 -0.5116  0.2263
   33CHL1   H1A 2413   5.563   3.537   6.861  0.9294 -1.1313 -0.6383
   33CHL1   H1B 2414   5.517   3.361   6.827  0.2018 -0.7008 -2.3362
   33CHL1    C2 2415   5.477   3.491   6.667 -0.0907  0.2566 -0.1463
   33CHL1   H2A 2416   5.577   3.477   6.620  0.1543 -0.6338  0.6225
   33CHL1   H2B 2417   5.441   3.590   6.632 -0.6104 -1.0383 -3.4923
   33CHL1   C20 2418   5.396   3.422   7.611  0.2204  0.7201  0.7053
   33CHL1   H20 2419   5.319   3.497   7.637 -0.8004 -1.0518  2.9246
   33CHL1   C21 2420   5.535   3.487   7.613  0.1934  0.0535  0.6158
   33CHL1  H21A 2421   5.541   3.540   7.710 -0.3364  0.1821  0.5757
   33CHL1  H21B 2422   5.544   3.555   7.525 -0.1341 -3.1497 -1.9974
   33CHL1  H21C 2423   5.619   3.414   7.609 -0.0389 -0.1134 -2.1694
   33CHL1   C22 2424   5.387   3.317   7.734 -0.3451 -0.0108 -0.3792
   33CHL1  H22A 2425   5.296   3.254   7.736  1.1374 -2.2019  0.0200
   33CHL1  H22B 2426   5.468   3.240   7.732  0.0828  0.4207  0.1857
   33CHL1   C23 2427   5.400   3.374   7.873  0.2259 -0.2978 -0.1588
   33CHL1  H23A 2428   5.505   3.409   7.869 -0.3911  1.8081  1.4342
   33CHL1  H23B 2429   5.323   3.452   7.891  1.9567  1.0135  1.7192
   33CHL1   C24 2430   5.387   3.256   7.973  0.5979 -0.1431 -0.5621
   33CHL1  H24A 2431   5.286   3.214   7.954 -0.8918  2.7040  0.8556
   33CHL1  H24B 2432   5.459   3.175   7.946  0.7500  0.5246 -2.2183
   33CHL1   C25 2433   5.408   3.294   8.118  0.2452 -0.8176 -0.3716
   33CHL1   H25 2434   5.496   3.362   8.123  1.2945 -2.0259 -2.1937
   33CHL1   C26 2435   5.281   3.363   8.172  0.3366 -0.1629 -0.4739
   33CHL1  H26A 2436   5.195   3.298   8.141 -1.6974  2.1261  0.2111
   33CHL1  H26B 2437   5.276   3.389   8.280 -0.3874  1.0190 -0.7900
   33CHL1  H26C 2438   5.266   3.462   8.124 -2.7963 -0.9551 -1.2392
   33CHL1   C27 2439   5.447   3.172   8.208 -0.0722 -0.5047 -0.0319
   33CHL1  H27A 2440   5.526   3.112   8.157  0.5879  0.8617 -0.6370
   33CHL1  H27B 2441   5.487   3.220   8.300  1.8388 -1.4192 -0.3558
   33CHL1  H27C 2442   5.351   3.116   8.215 -0.2109 -0.6196 -2.3694
   34CHL1    C3 2443   0.057   1.490   7.158 -0.1354  0.0861  0.5758
   34CHL1    H3 2444   0.091   1.392   7.198 -2.8085 -1.2598 -0.2754
   34CHL1    O3 2445   0.018   1.493   7.020 -0.7013 -0.5738 -0.3182
   34CHL1   H3' 2446   0.083   1.457   6.960  2.4590  1.6166  1.6316
   34CHL1    C4 2447  -0.068   1.523   7.247  0.2679 -0.0656 -0.1365
   34CHL1   H4A 2448  -0.128   1.599   7.192  0.0927  0.4723  0.7733
   34CHL1   H4B 2449  -0.137   1.437   7.236  0.0596  0.4281 -3.0199
   34CHL1    C5 2450  -0.045   1.553   7.392  0.2591  0.0375  0.6873
   34CHL1    C6 2451  -0.116   1.494   7.491  0.1467 -0.2907  0.6821
   34CHL1    H6 2452  -0.192   1.421   7.457  1.3917 -0.9714 -0.6817
   34CHL1    C7 2453  -0.084   1.506   7.633 -0.3351  0.7419  0.3525
   34CHL1   H7A 2454  -0.162   1.536   7.706  0.6557  1.0500  1.2950
   34CHL1   H7B 2455  -0.038   1.408   7.657 -1.4689 -0.2840 -1.5455
   34CHL1    C8 2456   0.014   1.621   7.668  0.0328 -0.4356 -0.2664
   34CHL1    H8 2457  -0.040   1.718   7.662 -1.6342 -1.3956 -1.1168
   34CHL1   C14 2458   0.068   1.605   7.809 -0.1359  0.5367 -1.1593
   34CHL1   H14 2459   0.136   1.519   7.823 -1.7980 -0.5580  0.4273
   34CHL1   C15 2460  -0.041   1.594   7.918  0.0967 -0.0676 -0.4868
   34CHL1  H15A 2461  -0.116   1.674   7.898 -0.7486 -0.6833  0.2162
   34CHL1  H15B 2462  -0.083   1.491   7.920  2.4391 -1.0609 -0.9606
   34CHL1   C16 2463   0.038   1.632   8.043 -0.2715  0.6683  0.3872
   34CHL1  H16A 2464  -0.027   1.702   8.100 -1.2290 -0.4860  0.7407
   34CHL1  H16B 2465   0.052   1.540   8.104  0.3906 -0.5768 -1.5808
   34CHL1   C17 2466   0.177   1.688   8.001  0.3468 -0.0538  0.5342
   34CHL1   H17 2467   0.253   1.608   8.011  0.7788  0.2000 -0.6540
   34CHL1   C13 2468   0.163   1.723   7.852  0.7843 -0.5229  0.7773
   34CHL1   C18 2469   0.090   1.862   7.853 -0.6019 -0.1906  0.4193
   34CHL1  H18A 2470   0.049   1.890   7.753  0.3192 -1.0885 -0.2184
   34CHL1  H18B 2471  -0.003   1.858   7.915 -2.0966  0.7651 -1.6740
   34CHL1  H18C 2472   0.153   1.939   7.901  0.1443 -1.3423  1.3062
   34CHL1   C12 2473   0.286   1.724   7.755 -0.3385 -0.2359  0.5678
   34CHL1  H12A 2474   0.352   1.809   7.783 -0.4990  0.0129  0.1990
   34CHL1  H12B 2475   0.343   1.629   7.760  0.5416  0.1579 -1.4873
   34CHL1   C11 2476   0.231   1.729   7.609  0.5020 -0.7706  0.0020
   34CHL1  H11A 2477   0.188   1.830   7.593 -0.0394 -0.8691  0.7979
   34CHL1  H11B 2478   0.321   1.713   7.546  0.9011 -0.4625  0.5017
   34CHL1    C9 2479   0.130   1.623   7.571  0.1911 -0.0038 -0.0281
   34CHL1    H9 2480   0.162   1.517   7.580 -2.3561 -0.6009  2.9767
   34CHL1   C10 2481   0.077   1.642   7.419  0.8150  0.3088  1.0900
   34CHL1   C19 2482   0.052   1.790   7.386  0.1512  0.2293  0.2108
   34CHL1  H19A 2483  -0.036   1.827   7.442  0.1713 -2.7105  2.2520
   34CHL1  H19B 2484   0.144   1.853   7.385 -1.5328  2.7633  0.3527
   34CHL1  H19C 2485   0.013   1.794   7.282 -0.7797 -3.8950  0.3309
   34CHL1    C1 2486   0.198   1.600   7.323  0.0653  0.2114  0.0724
   34CHL1   H1A 2487   0.274   1.680   7.317 -0.9091  1.0694 -0.8324
   34CHL1   H1B 2488   0.240   1.506   7.365  1.8518 -0.8422 -3.8353
   34CHL1    C2 2489   0.170   1.588   7.170  0.1084 -0.1710  0.1304
   34CHL1   H2A 2490   0.257   1.552   7.112  0.1924 -1.2592  0.9271
   34CHL1   H2B 2491   0.136   1.686   7.130 -0.9190 -1.7401 -2.9672
   34CHL1   C20 2492   0.229   1.786   8.107  0.4953  0.6664 -0.1384
   34CHL1   H20 2493   0.162   1.874   8.095 -0.2071 -0.1671 -2.7086
   34CHL1   C21 2494   0.373   1.822   8.068 -0.5596  0.8586  0.0949
   34CHL1  H21A 2495   0.375   1.872   7.969  1.8775 -1.6593 -1.2060
   34CHL1  H21B 2496   0.454   1.746   8.070  0.6891  2.1905  0.2662
   34CHL1  H21C 2497   0.409   1.900   8.138 -1.5256  0.3681  1.1629
   34CHL1   C22 2498   0.225   1.739   8.258 -0.0583 -0.5523  0.1917
   34CHL1  H22A 2499   0.132   1.697   8.301  0.1050 -0.1552  0.9371
   34CHL1  H22B 2500   0.300   1.658   8.256  0.7627  0.2065 -0.1739
   34CHL1   C23 2501   0.251   1.860   8.351 -0.3324  0.2427 -0.2532
   34CHL1  H23A 2502   0.357   1.886   8.331 -0.5077  0.0059 -1.5301
   34CHL1  H23B 2503   0.184   1.946   8.334 -1.0247 -0.5845 -1.7870
   34CHL1   C24 2504   0.253   1.810   8.500  0.1895 -0.2694  0.0308
   34CHL1  H24A 2505   0.152   1.767   8.515 -0.2853  0.7049 -0.3330
   34CHL1  H24B 2506   0.315   1.719   8.515 -2.8908 -2.7878 -1.9053
   34CHL1   C25 2507   0.267   1.916   8.611 -0.0577  0.0919 -0.4146
   34CHL1   H25 2508   0.191   1.990   8.578 -0.9310  1.0262  3.4382
   34CHL1   C26 2509   0.237   1.858   8.750  0.4182  0.1799  0.7425
   34CHL1  H26A 2510   0.243   1.933   8.831  2.4576  1.1638 -0.2891
   34CHL1  H26B 2511   0.135   1.815   8.749  0.1779  0.7004 -1.7310
   34CHL1  H26C 2512   0.309   1.775   8.764  0.9187  0.8556  2.2406
   34CHL1   C27 2513   0.402   1.987   8.617 -0.9559 -0.0910 -0.2899
   34CHL1  H27A 2514   0.410   2.083   8.671  3.2059 -0.8502  0.5563
   34CHL1  H27B 2515   0.475   1.921   8.669 -1.4963  0.0006  0.6039
   34CHL1  H27C 2516   0.433   2.002   8.511  0.1081 -0.8413 -0.0921
   35CHL1    C3 2517   2.387   2.408   7.258 -0.0774  0.1101 -0.1427
   35CHL1    H3 2518   2.323   2.496   7.238  1.7092  1.3457 -0.5782
   35CHL1    O3 2519   2.451   2.356   7.145 -0.4095 -0.3083  0.3026
   35CHL1   H3' 2520   2.509   2.287   7.176 -2.4536 -2.2099  0.0266
   35CHL1    C4 2521   2.493   2.464   7.356  0.6412 -0.1696 -0.6909
   35CHL1   H4A 2522   2.577   2.392   7.352  0.1903 -0.6492 -1.4905
   35CHL1   H4B 2523   2.531   2.559   7.313 -0.0058  0.3435 -0.1476
   35CHL1    C5 2524   2.440   2.472   7.501  0.0894 -0.3854  0.0563
   35CHL1    C6 2525   2.467   2.584   7.571 -0.8990  0.5455 -0.9034
   35CHL1    H6 2526   2.521   2.670   7.528 -0.8786  0.5855 -0.7991
   35CHL1    C7 2527   2.421   2.603   7.709  0.0736 -0.2237 -0.7320
   35CHL1   H7A 2528   2.502   2.653   7.766  0.1179  0.7929 -1.6600
   35CHL1   H7B 2529   2.332   2.669   7.709  0.6513  0.5823 -1.8738
   35CHL1    C8 2530   2.374   2.471   7.782  0.6399 -0.6634  1.3054
   35CHL1    H8 2531   2.464   2.411   7.808  0.8139 -0.6306  0.7902
   35CHL1   C14 2532   2.304   2.492   7.916 -0.3271 -0.3960  0.0445
   35CHL1   H14 2533   2.208   2.540   7.887 -0.6054 -2.2892 -2.4034
   35CHL1   C15 2534   2.375   2.581   8.015  0.5120 -0.0836  1.1870
   35CHL1  H15A 2535   2.480   2.548   8.028  0.2586 -0.9803  0.9986
   35CHL1  H15B 2536   2.375   2.688   7.986  0.4151 -0.4501 -0.2133
   35CHL1   C16 2537   2.304   2.566   8.149 -0.3588  0.5507 -0.5278
   35CHL1  H16A 2538   2.388   2.551   8.220 -0.5756 -0.0597 -0.3916
   35CHL1  H16B 2539   2.242   2.650   8.189  0.1403  2.0593 -2.8408
   35CHL1   C17 2540   2.212   2.434   8.127  0.5102  0.7188  0.7636
   35CHL1   H17 2541   2.112   2.471   8.096  0.2118 -0.6384  0.0390
   35CHL1   C13 2542   2.265   2.374   7.996 -0.5575  1.0851 -0.2675
   35CHL1   C18 2543   2.385   2.290   8.039 -0.1770  0.4453 -0.0697
   35CHL1  H18A 2544   2.460   2.334   8.107 -0.6913 -0.0412  0.8224
   35CHL1  H18B 2545   2.348   2.192   8.077  2.6645 -1.1471 -1.2825
   35CHL1  H18C 2546   2.441   2.261   7.948 -0.9977  2.1644 -1.1531
   35CHL1   C12 2547   2.160   2.297   7.901 -0.2101  0.2830 -0.1804
   35CHL1  H12A 2548   2.128   2.206   7.956 -0.3341  0.2695 -0.2758
   35CHL1  H12B 2549   2.076   2.367   7.883  0.7524  1.5866  0.2599
   35CHL1   C11 2550   2.226   2.256   7.770  0.1632 -0.2323  0.7699
   35CHL1  H11A 2551   2.304   2.182   7.794  1.9544  1.1786 -0.5961
   35CHL1  H11B 2552   2.151   2.204   7.707  1.1409 -1.5885  0.7055
   35CHL1    C9 2553   2.287   2.378   7.690  0.0546  0.1596  0.0887
   35CHL1    H9 2554   2.190   2.431   7.677 -0.9992 -1.2309  1.9766
   35CHL1   C10 2555   2.357   2.347   7.556 -0.1648  0.2455 -0.1604
   35CHL1   C19 2556   2.448   2.225   7.566 -0.5840 -0.0497 -0.6089
   35CHL1  H19A 2557   2.502   2.203   7.471  1.8830 -0.5372  0.8603
   35CHL1  H19B 2558   2.521   2.245   7.648 -0.3871 -1.0380 -0.5379
   35CHL1  H19C 2559   2.393   2.136   7.602 -2.7936  1.2110 -0.7595
   35CHL1    C1 2560   2.247   2.319   7.449 -0.4390  0.1040 -0.5930
   35CHL1   H1A 2561   2.194   2.225   7.473  0.9773 -0.5198  0.2207
   35CHL1   H1B 2562   2.176   2.404   7.443 -0.2199  0.3196 -0.2198
   35CHL1    C2 2563   2.300   2.290   7.308 -0.2700  0.3651  0.2854
   35CHL1   H2A 2564   2.212   2.287   7.240  0.3717  0.9004 -0.5722
   35CHL1   H2B 2565   2.348   2.190   7.301  0.4353  0.7733 -0.7299
   35CHL1   C20 2566   2.194   2.354   8.257 -0.2184 -0.2919  0.1357
   35CHL1   H20 2567   2.293   2.321   8.295 -0.2061  0.6225  0.8965
   35CHL1   C21 2568   2.093   2.234   8.239 -0.1236  0.5202  0.2328
   35CHL1  H21A 2569   2.144   2.151   8.186  0.9001  0.7538  0.8513
   35CHL1  H21B 2570   2.005   2.263   8.178 -1.0552  0.4606  1.5366
   35CHL1  H21C 2571   2.050   2.203   8.337  1.3472  1.2632  1.1302
   35CHL1   C22 2572   2.141   2.447   8.375 -0.5623 -0.0801 -0.2321
   35CHL1  H22A 2573   2.129   2.396   8.473 -1.6371  2.7309  1.1419
   35CHL1  H22B 2574   2.216   2.523   8.402 -0.0245 -0.0874 -1.6252
   35CHL1   C23 2575   2.009   2.515   8.347  1.2373 -0.3063 -0.3241
   35CHL1  H23A 2576   2.027   2.591   8.268 -1.4890  0.0489 -0.6764
   35CHL1  H23B 2577   1.923   2.451   8.317  0.2513  0.6878  0.2963
   35CHL1   C24 2578   1.966   2.620   8.462  0.6325 -0.1704 -0.0417
   35CHL1  H24A 2579   1.900   2.559   8.528  0.6420 -0.5017 -0.3333
   35CHL1  H24B 2580   2.058   2.661   8.508  0.9538 -0.6338 -0.2695
   35CHL1   C25 2581   1.877   2.734   8.410  0.3692 -0.7140 -0.4221
   35CHL1   H25 2582   1.899   2.758   8.304  1.9981 -2.5911 -0.5335
   35CHL1   C26 2583   1.730   2.689   8.403 -0.9505  0.5178  0.0302
   35CHL1  H26A 2584   1.664   2.769   8.363 -1.3327  1.5339  2.5703
   35CHL1  H26B 2585   1.715   2.601   8.337 -2.3667  2.2926 -2.0970
   35CHL1  H26C 2586   1.696   2.658   8.504  0.3345 -3.1427 -0.5829
   35CHL1   C27 2587   1.893   2.854   8.503  0.0502 -0.4333 -0.2510
   35CHL1  H27A 2588   1.825   2.934   8.464 -0.0254 -0.8254 -0.9316
   35CHL1  H27B 2589   1.997   2.892   8.509 -0.4005  0.9341 -0.7644
   35CHL1  H27C 2590   1.861   2.833   8.607  0.7022 -2.6692 -0.4911
   36CHL1    C3 2591   2.975   1.563   7.107 -0.3853  0.4685  0.1436
   36CHL1    H3 2592   2.879   1.618   7.115 -1.1796 -1.0377  1.3401
   36CHL1    O3 2593   2.980   1.474   6.995  0.8978  0.2453  0.7135
   36CHL1   H3' 2594   2.917   1.405   7.017  2.5893 -0.8948  2.1829
   36CHL1    C4 2595   3.099   1.666   7.101 -0.3977 -0.2953  0.2936
   36CHL1   H4A 2596   3.198   1.618   7.087  0.3888  1.1169  0.8677
   36CHL1   H4B 2597   3.080   1.732   7.014 -2.2605 -1.9759 -0.6032
   36CHL1    C5 2598   3.120   1.743   7.231  0.5872  0.6426 -0.4711
   36CHL1    C6 2599   3.113   1.881   7.223 -0.6251 -0.0094  0.1374
   36CHL1    H6 2600   3.096   1.936   7.129 -1.2086 -0.6517 -0.1328
   36CHL1    C7 2601   3.129   1.972   7.347 -0.5599 -0.5515  0.1290
   36CHL1   H7A 2602   3.209   2.049   7.335 -2.9988  2.3773  1.8810
   36CHL1   H7B 2603   3.039   2.036   7.362  0.1073  0.7470 -1.1879
   36CHL1    C8 2604   3.173   1.901   7.475 -0.5963 -0.0181  0.2100
   36CHL1    H8 2605   3.277   1.867   7.455 -1.0375 -0.6649 -1.0758
   36CHL1   C14 2606   3.158   1.987   7.597  0.2410 -0.2000 -0.1602
   36CHL1   H14 2607   3.055   2.026   7.605 -0.4634 -1.7974 -1.2036
   36CHL1   C15 2608   3.239   2.117   7.598  0.3712  0.3592 -0.4613
   36CHL1  H15A 2609   3.341   2.088   7.564  0.8636  1.2539  0.2143
   36CHL1  H15B 2610   3.200   2.197   7.530 -1.0466 -0.0052 -0.0926
   36CHL1   C16 2611   3.230   2.149   7.745  0.4231  0.3671  0.1513
   36CHL1  H16A 2612   3.333   2.166   7.782  0.6210 -0.6241  0.0772
   36CHL1  H16B 2613   3.178   2.246   7.759  1.7550  0.8586  1.8477
   36CHL1   C17 2614   3.176   2.032   7.830  0.3460  0.8130 -0.0059
   36CHL1   H17 2615   3.067   2.053   7.841  0.3406  0.0942  1.4232
   36CHL1   C13 2616   3.186   1.916   7.734 -0.0413 -0.3550 -0.0552
   36CHL1   C18 2617   3.328   1.866   7.735 -0.1145  0.5528 -0.3832
   36CHL1  H18A 2618   3.359   1.807   7.824 -0.6195  0.7755 -0.0592
   36CHL1  H18B 2619   3.347   1.811   7.641  1.1462 -1.0636  0.7817
   36CHL1  H18C 2620   3.408   1.943   7.735  1.3531 -0.9174  0.4949
   36CHL1   C12 2621   3.084   1.803   7.746  0.4954  0.5444 -0.4778
   36CHL1  H12A 2622   3.096   1.742   7.838  2.1562  1.8906  0.2277
   36CHL1  H12B 2623   2.987   1.856   7.755  0.4054 -0.1742  4.2407
   36CHL1   C11 2624   3.090   1.706   7.627 -0.1875  0.1000  0.4635
   36CHL1  H11A 2625   3.191   1.662   7.643  0.4944  1.4426 -0.0842
   36CHL1  H11B 2626   3.008   1.632   7.640  1.0668 -1.1099  1.7133
   36CHL1    C9 2627   3.088   1.771   7.482  0.1982 -0.2402  0.3567
   36CHL1    H9 2628   2.986   1.814   7.484  0.0430 -0.6584  1.7874
   36CHL1   C10 2629   3.116   1.670   7.362 -0.9935 -0.1741 -0.2597
   36CHL1   C19 2630   3.255   1.595   7.378 -0.2894 -0.0045 -0.0905
   36CHL1  H19A 2631   3.282   1.561   7.481  0.7356  0.7670 -0.1002
   36CHL1  H19B 2632   3.260   1.499   7.322  1.3722 -0.6202  1.0637
   36CHL1  H19C 2633   3.329   1.664   7.333  0.5778 -0.5806  0.4403
   36CHL1    C1 2634   2.991   1.570   7.356 -0.0586  0.1061  0.5032
   36CHL1   H1A 2635   2.997   1.505   7.445  0.3650  0.3195  0.6287
   36CHL1   H1B 2636   2.902   1.636   7.364 -0.2158 -0.2548  1.7731
   36CHL1    C2 2637   2.980   1.477   7.229 -0.6874  0.4365  0.1607
   36CHL1   H2A 2638   2.890   1.412   7.236 -1.0251  0.8411 -0.4128
   36CHL1   H2B 2639   3.059   1.400   7.226 -0.5395  0.5111  1.7350
   36CHL1   C20 2640   3.232   2.020   7.971 -0.2872 -0.5053  0.2429
   36CHL1   H20 2641   3.339   1.996   7.985 -0.0758  1.7805  3.1160
   36CHL1   C21 2642   3.162   1.906   8.057  0.1357  0.6172 -0.5223
   36CHL1  H21A 2643   3.187   1.916   8.165  0.3820  0.3767 -0.5580
   36CHL1  H21B 2644   3.179   1.806   8.012  1.5725  0.9834 -0.7990
   36CHL1  H21C 2645   3.051   1.910   8.052  0.2208  4.6875 -0.5747
   36CHL1   C22 2646   3.201   2.149   8.055 -0.3224  0.5624  0.2906
   36CHL1  H22A 2647   3.184   2.238   7.990 -1.3440  0.6010  0.6058
   36CHL1  H22B 2648   3.111   2.128   8.116 -0.7651 -1.4785 -1.0300
   36CHL1   C23 2649   3.318   2.181   8.148  0.1899 -0.6657 -0.2605
   36CHL1  H23A 2650   3.338   2.090   8.210 -0.3169 -0.5211  0.1133
   36CHL1  H23B 2651   3.414   2.185   8.092  0.1823  0.1476 -0.2104
   36CHL1   C24 2652   3.303   2.309   8.244 -0.2959  0.6342  0.0852
   36CHL1  H24A 2653   3.211   2.286   8.303 -0.3893  0.2131 -0.2262
   36CHL1  H24B 2654   3.385   2.321   8.318  1.2778 -0.4442 -1.4480
   36CHL1   C25 2655   3.296   2.437   8.174  0.1950 -0.1788 -0.1146
   36CHL1   H25 2656   3.218   2.430   8.095 -0.0426 -1.1827  0.1951
   36CHL1   C26 2657   3.246   2.547   8.279 -0.5663  0.1761  0.4153
   36CHL1  H26A 2658   3.151   2.523   8.331  0.6719 -2.2980  1.6605
   36CHL1  H26B 2659   3.331   2.559   8.350 -0.1959  0.3244 -0.0480
   36CHL1  H26C 2660   3.239   2.645   8.227 -3.7218 -0.0710  0.3213
   36CHL1   C27 2661   3.431   2.483   8.115 -0.3950 -0.2634  0.1836
   36CHL1  H27A 2662   3.456   2.430   8.021  0.0569 -1.5348  1.0017
   36CHL1  H27B 2663   3.434   2.591   8.090 -1.8522 -0.0090  1.0518
   36CHL1  H27C 2664   3.511   2.463   8.190 -0.5626  0.2170  0.4906
   37CHL1    C3 2665   0.193   4.012   7.057  0.3448  0.3152  0.4214
   37CHL1    H3 2666   0.235   4.113   7.039  4.4149 -1.0763  1.5302
   37CHL1    O3 2667   0.177   3.940   6.939  0.0320 -1.1021 -0.1920
   37CHL1   H3' 2668   0.189   3.848   6.964  1.3612 -1.3398 -1.6195
   37CHL1    C4 2669   0.280   3.934   7.156  0.0197 -0.4334  0.4590
   37CHL1   H4A 2670   0.240   3.830   7.162  1.4929 -1.2154 -2.1274
   37CHL1   H4B 2671   0.376   3.916   7.104 -0.6519  1.6104 -1.6169
   37CHL1    C5 2672   0.294   4.000   7.288  0.4022  0.1490  0.1391
   37CHL1    C6 2673   0.415   4.034   7.333 -0.2318  0.4849 -0.7486
   37CHL1    H6 2674   0.506   4.019   7.273  0.3249  1.5591 -0.1873
   37CHL1    C7 2675   0.444   4.103   7.468  0.9486 -0.0648  0.2314
   37CHL1   H7A 2676   0.530   4.053   7.519 -0.2915 -1.8406  0.6458
   37CHL1   H7B 2677   0.460   4.212   7.455 -0.7796  0.1330 -0.2928
   37CHL1    C8 2678   0.310   4.082   7.556  0.0364 -0.5577  0.3269
   37CHL1    H8 2679   0.305   3.977   7.590 -0.8581 -0.2339  1.2399
   37CHL1   C14 2680   0.322   4.169   7.685 -0.1936 -0.0795 -0.1852
   37CHL1   H14 2681   0.328   4.275   7.650  1.1079  0.2607  1.0485
   37CHL1   C15 2682   0.448   4.157   7.779 -0.2806  0.3825  0.5818
   37CHL1  H15A 2683   0.453   4.047   7.794 -2.0269  0.2393  0.2306
   37CHL1  H15B 2684   0.548   4.172   7.733 -0.5251 -0.3238 -0.2002
   37CHL1   C16 2685   0.410   4.215   7.913 -0.3582 -0.1840 -0.5204
   37CHL1  H16A 2686   0.415   4.141   7.995 -0.5364  0.5719  0.1757
   37CHL1  H16B 2687   0.454   4.315   7.935 -1.1572 -0.0010  0.2967
   37CHL1   C17 2688   0.254   4.252   7.901 -0.6535  0.1671  0.3300
   37CHL1   H17 2689   0.244   4.358   7.870 -1.4554  1.0999  3.6355
   37CHL1   C13 2690   0.202   4.173   7.777 -0.4731 -0.1496 -0.2427
   37CHL1   C18 2691   0.186   4.033   7.830 -0.0666  0.8753 -0.5895
   37CHL1  H18A 2692   0.179   3.957   7.750  1.6336  0.6913 -0.5849
   37CHL1  H18B 2693   0.262   4.005   7.907  0.5219  1.2202 -1.0483
   37CHL1  H18C 2694   0.083   4.013   7.867 -0.3512  0.7017 -1.4621
   37CHL1   C12 2695   0.085   4.222   7.699  0.3027  0.1247 -0.2309
   37CHL1  H12A 2696  -0.009   4.220   7.758 -1.0254 -0.2692 -2.2913
   37CHL1  H12B 2697   0.100   4.327   7.665 -1.3193  0.5758  0.4277
   37CHL1   C11 2698   0.062   4.132   7.570  0.5802  0.2362  0.6059
   37CHL1  H11A 2699   0.020   4.037   7.611 -0.7527  0.6196  0.1513
   37CHL1  H11B 2700  -0.020   4.186   7.519  0.7888  1.9621  2.0372
   37CHL1    C9 2701   0.187   4.118   7.481 -0.5216  0.1856 -0.3547
   37CHL1    H9 2702   0.202   4.219   7.437  0.0768 -0.1775 -0.9976
   37CHL1   C10 2703   0.164   4.031   7.357  0.1642  0.5294  0.4285
   37CHL1   C19 2704   0.105   3.893   7.400 -0.0322  0.2022  0.0663
   37CHL1  H19A 2705   0.003   3.892   7.445 -0.5008  2.2569 -0.8813
   37CHL1  H19B 2706   0.103   3.809   7.328 -1.4604 -1.4385  1.9457
   37CHL1  H19C 2707   0.165   3.854   7.484 -0.2393  0.5497  0.3818
   37CHL1    C1 2708   0.068   4.095   7.261  0.0133 -0.2707  0.4125
   37CHL1   H1A 2709  -0.032   4.087   7.309 -0.7230 -2.4944 -1.4620
   37CHL1   H1B 2710   0.098   4.200   7.237 -1.8182  0.4676  1.2358
   37CHL1    C2 2711   0.055   4.027   7.122  0.3981  0.3895  0.0798
   37CHL1   H2A 2712  -0.016   4.070   7.048 -0.0699  0.1276  0.3757
   37CHL1   H2B 2713   0.012   3.928   7.149 -1.2431  0.9847 -0.2847
   37CHL1   C20 2714   0.176   4.242   8.031  0.3670  0.4318 -0.3130
   37CHL1   H20 2715   0.190   4.142   8.077  1.5657  0.3035 -0.9572
   37CHL1   C21 2716   0.033   4.282   8.008  0.2290  0.0069 -0.0102
   37CHL1  H21A 2717   0.024   4.368   7.939 -2.3979  0.1104  0.4029
   37CHL1  H21B 2718  -0.014   4.310   8.105  1.0588 -3.7328  1.5701
   37CHL1  H21C 2719  -0.033   4.201   7.970 -3.0307  1.8412  1.4557
   37CHL1   C22 2720   0.242   4.331   8.143 -0.1494  0.0612  0.0092
   37CHL1  H22A 2721   0.185   4.307   8.235 -0.7393  1.5569  0.0598
   37CHL1  H22B 2722   0.341   4.281   8.153  0.0738  0.2836 -1.0229
   37CHL1   C23 2723   0.245   4.484   8.126  0.5639 -0.3044  0.0545
   37CHL1  H23A 2724   0.300   4.514   8.034 -1.1604 -0.5822 -1.0946
   37CHL1  H23B 2725   0.141   4.516   8.103  0.0464 -1.5081  0.6527
   37CHL1   C24 2726   0.312   4.545   8.256 -0.0017  0.6211  0.4724
   37CHL1  H24A 2727   0.256   4.523   8.350  0.8622  1.0590  1.0939
   37CHL1  H24B 2728   0.397   4.474   8.261 -1.6036 -1.4675 -0.9713
   37CHL1   C25 2729   0.366   4.685   8.235  0.4776  0.0354  0.2843
   37CHL1   H25 2730   0.396   4.691   8.129 -1.0924 -1.3349 -0.2551
   37CHL1   C26 2731   0.249   4.789   8.255 -0.5105  0.0834  0.4512
   37CHL1  H26A 2732   0.295   4.890   8.245  0.5102 -0.6750 -2.9321
   37CHL1  H26B 2733   0.169   4.774   8.180 -1.5893  0.4522  1.5212
   37CHL1  H26C 2734   0.212   4.766   8.357 -0.5142  0.0559  0.4439
   37CHL1   C27 2735   0.486   4.712   8.323  0.0193 -0.1234  0.3397
   37CHL1  H27A 2736   0.535   4.810   8.304 -0.0751 -0.2836 -0.7521
   37CHL1  H27B 2737   0.456   4.709   8.430  1.0053  0.2695  0.6320
   37CHL1  H27C 2738   0.557   4.627   8.311 -1.1918 -1.2096  0.7613
   38CHL1    C3 2739   3.422   4.838   6.633 -0.4923  0.0239  0.5906
   38CHL1    H3 2740   3.386   4.733   6.639  0.4198 -0.2459  1.6255
   38CHL1    O3 2741   3.429   4.866   6.495  0.6384 -0.1639 -0.2777
   38CHL1   H3' 2742   3.491   4.939   6.491  0.0512  0.3035 -1.1527
   38CHL1    C4 2743   3.313   4.919   6.694  0.3815 -0.2550 -0.0952
   38CHL1   H4A 2744   3.352   5.022   6.686  5.7949 -2.2077 -0.9941
   38CHL1   H4B 2745   3.226   4.887   6.633  2.0232 -0.2793 -2.4813
   38CHL1    C5 2746   3.291   4.895   6.845  0.3179 -0.2675 -0.1772
   38CHL1    C6 2747   3.165   4.857   6.883 -0.2861 -0.1170 -0.8045
   38CHL1    H6 2748   3.087   4.842   6.807  0.6865 -1.7595 -1.4977
   38CHL1    C7 2749   3.141   4.817   7.027  0.4346 -0.3230 -0.3527
   38CHL1   H7A 2750   3.043   4.861   7.056  0.5110  1.6562 -2.8619
   38CHL1   H7B 2751   3.123   4.708   7.037 -1.6156  0.0640  0.3787
   38CHL1    C8 2752   3.249   4.871   7.131  0.5843 -0.4038  0.4332
   38CHL1    H8 2753   3.229   4.978   7.156  0.6626 -0.0465 -1.0321
   38CHL1   C14 2754   3.228   4.797   7.257  0.8821  0.7429  0.4811
   38CHL1   H14 2755   3.255   4.690   7.244 -1.1296  0.0585  1.6059
   38CHL1   C15 2756   3.091   4.811   7.315  0.3737  0.3332 -0.7878
   38CHL1  H15A 2757   3.055   4.915   7.298  0.1226  1.4664  5.3573
   38CHL1  H15B 2758   3.021   4.747   7.257  0.3949  0.2153 -0.6851
   38CHL1   C16 2759   3.107   4.767   7.456  0.4279 -0.0104  0.3768
   38CHL1  H16A 2760   3.045   4.833   7.520 -1.6370 -0.1918 -1.3766
   38CHL1  H16B 2761   3.066   4.668   7.485  0.5262 -0.2730 -0.3748
   38CHL1   C17 2762   3.256   4.747   7.482  0.2878 -0.5797 -0.8072
   38CHL1   H17 2763   3.288   4.644   7.454 -2.1499 -0.8618 -2.7543
   38CHL1   C13 2764   3.317   4.830   7.371  0.1316  0.2126 -0.8925
   38CHL1   C18 2765   3.294   4.972   7.420  0.7137  0.7157 -0.0144
   38CHL1  H18A 2766   3.190   4.992   7.453  1.0430  2.1973  0.1341
   38CHL1  H18B 2767   3.369   4.993   7.499  1.0545 -0.8798  0.1108
   38CHL1  H18C 2768   3.299   5.049   7.341  0.8921  2.0622  1.2928
   38CHL1   C12 2769   3.464   4.796   7.324  0.2804  0.4086  0.1211
   38CHL1  H12A 2770   3.546   4.830   7.392  0.1074 -0.6818  0.8794
   38CHL1  H12B 2771   3.463   4.687   7.304 -1.3493  0.3511  0.4833
   38CHL1   C11 2772   3.497   4.853   7.183 -0.4791 -0.5946 -0.1281
   38CHL1  H11A 2773   3.514   4.962   7.198 -0.9799 -0.5768  0.2835
   38CHL1  H11B 2774   3.596   4.807   7.160 -0.9231 -2.4466  1.5330
   38CHL1    C9 2775   3.392   4.836   7.080  0.5207 -0.1333  0.1489
   38CHL1    H9 2776   3.389   4.727   7.061  1.7300  0.2151 -2.2230
   38CHL1   C10 2777   3.416   4.898   6.936  0.9947 -0.4799  0.6306
   38CHL1   C19 2778   3.464   5.043   6.943 -0.3600  0.5916  0.1494
   38CHL1  H19A 2779   3.570   5.046   6.977  0.1007  1.4790 -1.3168
   38CHL1  H19B 2780   3.457   5.102   6.848  1.4343 -0.0264 -0.3878
   38CHL1  H19C 2781   3.404   5.087   7.026  1.2383 -1.7468  2.6200
   38CHL1    C1 2782   3.521   4.813   6.865  0.0919  0.8134 -0.1525
   38CHL1   H1A 2783   3.625   4.824   6.904  0.9558 -2.4185 -1.3899
   38CHL1   H1B 2784   3.501   4.705   6.879  2.5574  0.3684  0.1460
   38CHL1    C2 2785   3.550   4.843   6.715 -0.1517 -0.1402 -0.2356
   38CHL1   H2A 2786   3.627   4.777   6.669  0.3366  0.0083  0.3715
   38CHL1   H2B 2787   3.584   4.948   6.718  0.3557 -0.3221  0.6340
   38CHL1   C20 2788   3.300   4.757   7.628  0.2375  0.0986 -0.4358
   38CHL1   H20 2789   3.280   4.863   7.653  0.6089  0.3457 -1.1587
   38CHL1   C21 2790   3.447   4.723   7.652  0.4926 -0.0761  0.0619
   38CHL1  H21A 2791   3.458   4.615   7.626  0.0375  0.0458 -0.6644
   38CHL1  H21B 2792   3.484   4.745   7.754  1.6102  0.6133 -0.4790
   38CHL1  H21C 2793   3.518   4.773   7.582  0.2317 -0.5162 -0.5262
   38CHL1   C22 2794   3.215   4.670   7.723  0.2111  0.2647 -0.0117
   38CHL1  H22A 2795   3.108   4.668   7.693  1.0652  1.0412 -3.2588
   38CHL1  H22B 2796   3.261   4.569   7.728 -0.7812 -0.2019 -0.1571
   38CHL1   C23 2797   3.213   4.731   7.865 -0.9239 -0.0519 -0.0994
   38CHL1  H23A 2798   3.314   4.758   7.904 -0.3099 -0.6784 -1.2096
   38CHL1  H23B 2799   3.170   4.831   7.844  0.9707  0.3593 -2.3138
   38CHL1   C24 2800   3.125   4.666   7.972 -0.6096 -0.2443  0.1348
   38CHL1  H24A 2801   3.020   4.676   7.938 -0.4288  0.1295 -0.3121
   38CHL1  H24B 2802   3.150   4.558   7.983  3.1391  0.3863 -1.4196
   38CHL1   C25 2803   3.137   4.738   8.104 -0.1491  0.2092 -0.3285
   38CHL1   H25 2804   3.242   4.756   8.135 -0.2845 -0.7997  0.7488
   38CHL1   C26 2805   3.059   4.871   8.089  0.2544  0.5662 -1.1779
   38CHL1  H26A 2806   3.087   4.942   8.009 -3.5235 -0.0573 -3.2170
   38CHL1  H26B 2807   2.952   4.845   8.074  0.2192 -0.5052  0.7949
   38CHL1  H26C 2808   3.079   4.913   8.189 -1.0333 -0.1178 -0.6102
   38CHL1   C27 2809   3.076   4.648   8.214  0.3450 -0.5578 -0.0151
   38CHL1  H27A 2810   3.076   4.710   8.307 -0.3418 -0.4064 -0.1183
   38CHL1  H27B 2811   2.970   4.624   8.191  0.6843 -2.5591  0.4289
   38CHL1  H27C 2812   3.123   4.548   8.229 -1.7223 -1.5626 -0.1461
   39CHL1    C3 2813   2.711   3.925   7.036 -0.0669 -0.5160  0.0478
   39CHL1    H3 2814   2.740   3.821   7.058  0.3326 -0.7836 -1.6520
   39CHL1    O3 2815   2.729   3.939   6.895 -0.2074 -0.5779 -0.2481
   39CHL1   H3' 2816   2.642   3.924   6.857 -0.4226 -1.2832  0.5077
   39CHL1    C4 2817   2.565   3.949   7.067  0.1639  0.1944 -0.1334
   39CHL1   H4A 2818   2.531   4.051   7.038  0.9857 -0.3073 -2.9511
   39CHL1   H4B 2819   2.503   3.879   7.007  3.2345 -2.3805 -0.4291
   39CHL1    C5 2820   2.538   3.912   7.209 -0.4184  0.5686 -0.0517
   39CHL1    C6 2821   2.447   3.814   7.245  0.2132 -0.6445 -0.2356
   39CHL1    H6 2822   2.387   3.757   7.173  0.1454 -0.5255 -0.2724
   39CHL1    C7 2823   2.421   3.772   7.393 -0.1468  0.3066 -1.1708
   39CHL1   H7A 2824   2.316   3.751   7.420 -0.4299  2.1608 -0.7162
   39CHL1   H7B 2825   2.469   3.674   7.412  0.3613  0.5167 -1.3635
   39CHL1    C8 2826   2.472   3.874   7.497 -0.1388 -0.4938  0.5661
   39CHL1    H8 2827   2.390   3.949   7.500 -0.4358 -0.5227 -3.2812
   39CHL1   C14 2828   2.491   3.807   7.629  0.0599 -0.4167  0.2054
   39CHL1   H14 2829   2.565   3.726   7.611  2.0234  1.7884 -2.0585
   39CHL1   C15 2830   2.365   3.731   7.686 -0.2941  0.7604 -0.0825
   39CHL1  H15A 2831   2.279   3.801   7.689 -1.6520 -0.7869 -1.9246
   39CHL1  H15B 2832   2.338   3.640   7.628  0.2816 -0.8030  2.0330
   39CHL1   C16 2833   2.417   3.682   7.823 -0.0483  0.1025 -0.2102
   39CHL1  H16A 2834   2.326   3.702   7.885  1.2543 -0.6260  2.0028
   39CHL1  H16B 2835   2.440   3.574   7.817 -1.8931 -0.3707  0.5760
   39CHL1   C17 2836   2.542   3.768   7.852 -0.4110  0.2142 -0.6502
   39CHL1   H17 2837   2.625   3.698   7.829 -0.9108 -0.4168 -0.5586
   39CHL1   C13 2838   2.554   3.885   7.747 -0.4420 -0.1568 -0.2933
   39CHL1   C18 2839   2.462   4.003   7.783  0.0002  0.7894  0.6424
   39CHL1  H18A 2840   2.361   3.966   7.811  0.0710  0.0533 -0.0649
   39CHL1  H18B 2841   2.488   4.053   7.879 -2.5477  0.9239  1.2861
   39CHL1  H18C 2842   2.455   4.070   7.695  0.1117  0.8354  0.6669
   39CHL1   C12 2843   2.691   3.927   7.696 -0.0863 -0.4533 -0.6664
   39CHL1  H12A 2844   2.738   4.000   7.766  2.5803  1.4142 -4.2317
   39CHL1  H12B 2845   2.757   3.839   7.690  0.8677  0.1019  1.0340
   39CHL1   C11 2846   2.685   4.002   7.565  0.3706  0.1640 -0.0071
   39CHL1  H11A 2847   2.636   4.100   7.581 -1.8249 -0.6647 -1.3219
   39CHL1  H11B 2848   2.789   4.016   7.530  0.4410  1.4332  0.6983
   39CHL1    C9 2849   2.609   3.925   7.457 -0.0768  0.2393  0.2104
   39CHL1    H9 2850   2.671   3.834   7.445  0.2389  0.6758 -1.5450
   39CHL1   C10 2851   2.624   3.986   7.321  0.0916  0.4345  0.0328
   39CHL1   C19 2852   2.565   4.129   7.328 -0.0379 -0.8911  0.1087
   39CHL1  H19A 2853   2.464   4.132   7.373 -0.4144  0.6481 -0.8160
   39CHL1  H19B 2854   2.626   4.204   7.382  0.2272 -1.6549  0.8761
   39CHL1  H19C 2855   2.555   4.166   7.224  1.7576 -1.8886 -0.4596
   39CHL1    C1 2856   2.776   3.992   7.273 -0.0837  0.6058 -0.3645
   39CHL1   H1A 2857   2.850   4.044   7.337 -2.1482  1.4283  1.4022
   39CHL1   H1B 2858   2.797   3.883   7.286 -1.9172  0.5926  2.9785
   39CHL1    C2 2859   2.792   4.023   7.121 -0.4924 -0.5487  0.3010
   39CHL1   H2A 2860   2.900   4.014   7.097 -0.1758  2.0235  0.6078
   39CHL1   H2B 2861   2.776   4.131   7.102 -2.1280 -0.8577 -0.1252
   39CHL1   C20 2862   2.555   3.801   8.005  0.8666  0.6902 -0.0173
   39CHL1   H20 2863   2.466   3.858   8.038  0.5249  0.2739 -0.2118
   39CHL1   C21 2864   2.681   3.883   8.043 -0.6254  0.1630 -0.0749
   39CHL1  H21A 2865   2.761   3.806   8.049 -1.1376 -0.3818 -0.2018
   39CHL1  H21B 2866   2.662   3.936   8.139  1.3171  2.8225 -1.1048
   39CHL1  H21C 2867   2.696   3.971   7.977  2.9555 -1.7525 -1.9905
   39CHL1   C22 2868   2.547   3.674   8.099 -0.4822 -0.4476  0.6422
   39CHL1  H22A 2869   2.463   3.607   8.068  0.6092 -0.6212 -2.0528
   39CHL1  H22B 2870   2.642   3.616   8.096  1.3796  2.5457 -0.4916
   39CHL1   C23 2871   2.527   3.704   8.244 -0.1010 -0.6278 -0.4269
   39CHL1  H23A 2872   2.624   3.741   8.285 -0.4722 -1.3012  1.1018
   39CHL1  H23B 2873   2.455   3.787   8.258  0.2542 -0.6098  1.3972
   39CHL1   C24 2874   2.475   3.584   8.324 -0.1253 -0.0428 -0.2700
   39CHL1  H24A 2875   2.384   3.554   8.269  1.4724 -3.1359 -1.3110
   39CHL1  H24B 2876   2.549   3.502   8.319  0.7306  0.7502 -0.7311
   39CHL1   C25 2877   2.446   3.618   8.466  1.1221  0.4698  0.6359
   39CHL1   H25 2878   2.402   3.720   8.459  1.5986  0.5568 -1.4911
   39CHL1   C26 2879   2.334   3.524   8.516  0.1224 -0.3760 -0.7944
   39CHL1  H26A 2880   2.358   3.417   8.499  1.6927  0.1333 -1.9496
   39CHL1  H26B 2881   2.329   3.541   8.626 -2.2823 -1.9827 -0.6346
   39CHL1  H26C 2882   2.236   3.555   8.475  0.1368  1.1996  0.2734
   39CHL1   C27 2883   2.579   3.613   8.540 -0.1326 -1.1192  0.0430
   39CHL1  H27A 2884   2.629   3.514   8.540  0.3955 -0.8526 -0.2662
   39CHL1  H27B 2885   2.645   3.696   8.509 -1.7032  0.1434  0.0481
   39CHL1  H27C 2886   2.560   3.627   8.648 -2.1696 -2.1775 -0.1514
   40CHL1    C3 2887   5.731   1.799   6.976  0.2330  0.8084  0.3510
   40CHL1    H3 2888   5.669   1.708   6.992  0.2447  1.0787  1.9450
   40CHL1    O3 2889   5.772   1.804   6.844  0.5162  0.2668 -0.5660
   40CHL1   H3' 2890   5.802   1.715   6.825 -0.8554 -0.5648  1.0070
   40CHL1    C4 2891   5.627   1.904   7.012  0.1989 -0.5139  0.2682
   40CHL1   H4A 2892   5.671   2.001   6.980 -1.7914  0.6646  1.0620
   40CHL1   H4B 2893   5.539   1.896   6.944 -0.4250  2.0478  0.7210
   40CHL1    C5 2894   5.581   1.918   7.159  0.1931  0.5682 -0.2828
   40CHL1    C6 2895   5.451   1.923   7.197  0.3107 -0.6545 -0.3344
   40CHL1    H6 2896   5.374   1.941   7.121  0.7360 -0.3342 -0.6933
   40CHL1    C7 2897   5.407   1.914   7.345 -0.0809 -0.2360 -0.2386
   40CHL1   H7A 2898   5.322   1.986   7.356 -0.3201 -0.4320 -0.8079
   40CHL1   H7B 2899   5.366   1.811   7.357  0.5701 -0.8197 -2.7706
   40CHL1    C8 2900   5.530   1.937   7.440  0.2996 -0.0282  0.4124
   40CHL1    H8 2901   5.552   2.046   7.440 -1.1342  0.2631  0.2297
   40CHL1   C14 2902   5.495   1.895   7.581 -0.0322  0.2282 -0.3034
   40CHL1   H14 2903   5.481   1.785   7.576 -0.2014  0.1410  1.5129
   40CHL1   C15 2904   5.354   1.941   7.637 -0.0868 -0.3271 -0.0253
   40CHL1  H15A 2905   5.348   2.052   7.634  1.6092 -0.2447 -0.7906
   40CHL1  H15B 2906   5.276   1.895   7.573  1.5739 -0.1371 -2.2307
   40CHL1   C16 2907   5.365   1.906   7.788 -0.0824  0.1866  0.1399
   40CHL1  H16A 2908   5.364   2.000   7.845 -0.9540 -0.4302  1.1562
   40CHL1  H16B 2909   5.281   1.835   7.807  0.5845 -0.3953  0.9106
   40CHL1   C17 2910   5.513   1.852   7.811 -0.2351  0.0501  0.1416
   40CHL1   H17 2911   5.521   1.744   7.788 -1.0989  0.0361 -0.0908
   40CHL1   C13 2912   5.597   1.908   7.694  0.2841 -0.2631 -0.1199
   40CHL1   C18 2913   5.637   2.057   7.713  0.0513  0.7988 -0.5627
   40CHL1  H18A 2914   5.558   2.115   7.765 -0.5922 -0.4120 -0.1606
   40CHL1  H18B 2915   5.733   2.051   7.769  0.1721 -0.3106 -0.8805
   40CHL1  H18C 2916   5.660   2.115   7.621  0.8542  0.1897 -0.7554
   40CHL1   C12 2917   5.711   1.823   7.653 -0.0711 -0.6462 -0.4508
   40CHL1  H12A 2918   5.792   1.832   7.728 -1.5936  1.4549  1.0078
   40CHL1  H12B 2919   5.683   1.715   7.656  1.1731 -0.9399  1.5656
   40CHL1   C11 2920   5.759   1.866   7.510 -0.5650 -0.5920  0.5789
   40CHL1  H11A 2921   5.791   1.972   7.521  3.8504 -2.0405  3.1362
   40CHL1  H11B 2922   5.846   1.807   7.475  0.4866  1.1314  0.2579
   40CHL1    C9 2923   5.653   1.860   7.399  0.4949  0.8391  0.3595
   40CHL1    H9 2924   5.614   1.757   7.392  0.5534  0.8474 -0.1329
   40CHL1   C10 2925   5.700   1.901   7.260 -0.2298 -0.4258  0.1024
   40CHL1   C19 2926   5.774   2.039   7.268 -0.7433 -0.1078 -0.6229
   40CHL1  H19A 2927   5.865   2.029   7.331  0.5917  0.4990 -2.4272
   40CHL1  H19B 2928   5.797   2.072   7.164 -1.3250 -0.5568 -0.8943
   40CHL1  H19C 2929   5.721   2.116   7.329  3.0309  1.3124  1.0552
   40CHL1    C1 2930   5.813   1.795   7.211 -0.7501 -0.0787  0.2560
   40CHL1   H1A 2931   5.903   1.811   7.273 -0.0676 -1.4943 -0.3486
   40CHL1   H1B 2932   5.767   1.694   7.221 -0.7496 -0.0844  0.1976
   40CHL1    C2 2933   5.851   1.810   7.064 -0.2150  0.0398  0.7984
   40CHL1   H2A 2934   5.918   1.727   7.033  2.5685  1.6416  2.3302
   40CHL1   H2B 2935   5.895   1.911   7.051 -2.4519  1.0464  0.6450
   40CHL1   C20 2936   5.561   1.877   7.956 -0.2306  0.2037  0.0003
   40CHL1   H20 2937   5.571   1.988   7.960  0.0280  0.1821 -0.0041
   40CHL1   C21 2938   5.699   1.826   7.981  0.6826 -0.0531  0.1638
   40CHL1  H21A 2939   5.775   1.897   7.942 -1.5746  0.6449 -3.1561
   40CHL1  H21B 2940   5.711   1.724   7.939  2.2597  0.3862 -0.4764
   40CHL1  H21C 2941   5.712   1.813   8.091  1.2196  0.1676  0.1293
   40CHL1   C22 2942   5.460   1.841   8.064  0.3283 -0.0796  0.0132
   40CHL1  H22A 2943   5.361   1.869   8.023  0.3728 -2.5083 -1.8798
   40CHL1  H22B 2944   5.480   1.732   8.075  0.1697 -0.3796 -2.3118
   40CHL1   C23 2945   5.478   1.916   8.197 -0.0097 -0.2724 -0.9358
   40CHL1  H23A 2946   5.585   1.910   8.226 -0.1541 -0.8570 -0.4974
   40CHL1  H23B 2947   5.452   2.022   8.177 -2.0396 -0.9209 -1.8973
   40CHL1   C24 2948   5.378   1.873   8.304 -0.4011  0.2132 -0.1743
   40CHL1  H24A 2949   5.271   1.880   8.275 -1.0974 -1.6361  1.8169
   40CHL1  H24B 2950   5.382   1.762   8.314 -1.2136  0.3537  2.0019
   40CHL1   C25 2951   5.415   1.938   8.436  0.6018  0.2138 -0.2666
   40CHL1   H25 2952   5.525   1.928   8.433  0.5498 -0.3065 -0.3598
   40CHL1   C26 2953   5.380   2.085   8.452  0.5271 -0.1353  0.5293
   40CHL1  H26A 2954   5.269   2.090   8.459  0.6849  0.2471  3.1042
   40CHL1  H26B 2955   5.409   2.123   8.552  0.2307 -0.9577  0.9362
   40CHL1  H26C 2956   5.420   2.156   8.377 -0.6541 -0.3411 -0.3273
   40CHL1   C27 2957   5.375   1.855   8.559  0.1777 -0.2517  0.4778
   40CHL1  H27A 2958   5.418   1.893   8.654  2.4574 -1.2973 -0.1159
   40CHL1  H27B 2959   5.265   1.865   8.574  0.2399 -1.4981  1.8254
   40CHL1  H27C 2960   5.392   1.746   8.554 -0.2571 -0.2688 -1.3013
   41CHL1    C3 2961   6.264   2.872   6.917 -0.4243  0.0407  0.1221
   41CHL1    H3 2962   6.358   2.926   6.942  0.1914 -1.3810  0.9240
   41CHL1    O3 2963   6.238   2.885   6.778 -0.0927 -0.4546  0.1705
   41CHL1   H3' 2964   6.315   2.857   6.728 -0.1343 -0.5898  0.1807
   41CHL1    C4 2965   6.275   2.724   6.947 -0.1901 -0.6897 -0.2298
   41CHL1   H4A 2966   6.190   2.674   6.897  0.8362 -0.7039 -2.0154
   41CHL1   H4B 2967   6.364   2.685   6.893 -0.6171 -1.9588 -0.0178
   41CHL1    C5 2968   6.289   2.698   7.097  0.0082 -0.0489  0.4155
   41CHL1    C6 2969   6.397   2.625   7.146 -0.6305 -0.2912 -0.4237
   41CHL1    H6 2970   6.475   2.592   7.076 -1.2051 -5.0991  1.0223
   41CHL1    C7 2971   6.424   2.613   7.295 -0.0358  0.2591  1.1315
   41CHL1   H7A 2972   6.453   2.509   7.323  0.9309  0.5773  1.3340
   41CHL1   H7B 2973   6.512   2.676   7.321  1.6302 -1.8315  0.6811
   41CHL1    C8 2974   6.303   2.649   7.384  0.0369  0.1733 -0.4249
   41CHL1    H8 2975   6.234   2.561   7.379  0.5199 -0.1739 -0.9780
   41CHL1   C14 2976   6.355   2.672   7.525 -0.2368  1.1968 -0.0647
   41CHL1   H14 2977   6.422   2.758   7.502  2.8193 -0.9934  0.2292
   41CHL1   C15 2978   6.450   2.563   7.583 -0.2073  0.5923 -0.3139
   41CHL1  H15A 2979   6.419   2.458   7.568  3.2101 -0.9061  2.3060
   41CHL1  H15B 2980   6.553   2.583   7.546  0.0305 -1.0935 -0.5806
   41CHL1   C16 2981   6.441   2.596   7.731 -0.0243  0.2158  0.1225
   41CHL1  H16A 2982   6.407   2.501   7.777  1.4846 -1.0619 -1.3143
   41CHL1  H16B 2983   6.547   2.608   7.763  0.0546 -0.6407  0.1856
   41CHL1   C17 2984   6.352   2.715   7.757 -0.0157 -0.5162  0.5365
   41CHL1   H17 2985   6.409   2.810   7.751 -0.9983  0.2067  2.2182
   41CHL1   C13 2986   6.255   2.707   7.635  0.3690 -0.0934  0.0547
   41CHL1   C18 2987   6.150   2.596   7.652 -0.5987 -0.1049  0.0505
   41CHL1  H18A 2988   6.073   2.620   7.729  0.6464  2.1586  0.6084
   41CHL1  H18B 2989   6.095   2.580   7.556  1.6402 -2.9025 -0.8310
   41CHL1  H18C 2990   6.195   2.497   7.677 -0.6845  0.4569  2.5165
   41CHL1   C12 2991   6.178   2.835   7.585  0.6119  0.7507  0.3112
   41CHL1  H12A 2992   6.087   2.868   7.640  0.4128 -1.8724  1.6307
   41CHL1  H12B 2993   6.248   2.921   7.582  2.0548 -0.4447 -0.7841
   41CHL1   C11 2994   6.129   2.823   7.439 -0.0148 -0.3359 -0.2539
   41CHL1  H11A 2995   6.043   2.752   7.439 -1.1410  0.9944 -0.0633
   41CHL1  H11B 2996   6.074   2.914   7.407  1.1667  0.0071 -1.3424
   41CHL1    C9 2997   6.230   2.777   7.336 -0.7170  0.0793 -0.0277
   41CHL1    H9 2998   6.313   2.850   7.339 -1.7533  1.2836 -0.5375
   41CHL1   C10 2999   6.192   2.777   7.185 -0.3065 -0.2251 -0.0762
   41CHL1   C19 3000   6.051   2.713   7.169 -0.0646 -0.1451  0.4428
   41CHL1  H19A 3001   6.026   2.704   7.061  1.4366  1.3994 -0.0590
   41CHL1  H19B 3002   6.053   2.609   7.209  0.8127 -1.0467 -1.8595
   41CHL1  H19C 3003   5.981   2.783   7.218 -0.1851 -0.0666  0.1579
   41CHL1    C1 3004   6.184   2.930   7.141  0.0181  0.4960 -0.0455
   41CHL1   H1A 3005   6.095   2.965   7.199 -0.4830 -1.0922  0.1500
   41CHL1   H1B 3006   6.267   2.994   7.178 -0.1466  1.2241 -0.9062
   41CHL1    C2 3007   6.158   2.945   6.998  0.3146 -0.4704  0.2244
   41CHL1   H2A 3008   6.163   3.053   6.973  1.8957 -0.9287 -1.6347
   41CHL1   H2B 3009   6.064   2.891   6.972  2.0556 -2.6760 -1.8187
   41CHL1   C20 3010   6.290   2.723   7.900  0.7837 -0.6140  0.3067
   41CHL1   H20 3011   6.221   2.637   7.911  0.6550 -0.7058 -1.0472
   41CHL1   C21 3012   6.208   2.847   7.918 -0.1971 -0.9360  0.3450
   41CHL1  H21A 3013   6.265   2.932   7.875  0.2683 -0.8096  1.1915
   41CHL1  H21B 3014   6.169   2.880   8.017  0.3723 -1.6314  0.8079
   41CHL1  H21C 3015   6.115   2.840   7.858 -0.6717  1.2417  0.7653
   41CHL1   C22 3016   6.400   2.709   8.004 -0.6552 -0.9339 -0.2372
   41CHL1  H22A 3017   6.490   2.654   7.968 -0.9843 -2.8901  1.7956
   41CHL1  H22B 3018   6.423   2.815   8.029 -1.1680 -1.3283  2.0274
   41CHL1   C23 3019   6.353   2.641   8.137 -0.9029  0.0595 -0.2030
   41CHL1  H23A 3020   6.282   2.560   8.109 -1.7081  0.1928  1.4342
   41CHL1  H23B 3021   6.439   2.597   8.190 -0.8506 -0.5912 -0.8175
   41CHL1   C24 3022   6.293   2.744   8.243 -0.5690 -0.0619 -0.2309
   41CHL1  H24A 3023   6.368   2.824   8.255 -1.1387  0.6091 -1.1315
   41CHL1  H24B 3024   6.198   2.794   8.216 -0.1187  1.4377  0.9212
   41CHL1   C25 3025   6.267   2.680   8.377  0.4893  0.2518 -0.1512
   41CHL1   H25 3026   6.219   2.582   8.357 -1.6808  1.1504  0.5727
   41CHL1   C26 3027   6.385   2.667   8.465  0.4548 -0.7050 -1.1014
   41CHL1  H26A 3028   6.475   2.636   8.408  1.7026  3.6264 -1.6705
   41CHL1  H26B 3029   6.424   2.761   8.510  1.7442 -3.1152  3.1127
   41CHL1  H26C 3030   6.372   2.599   8.552 -0.2641 -0.1864 -0.7970
   41CHL1   C27 3031   6.166   2.762   8.458  1.1234  0.4317 -0.3016
   41CHL1  H27A 3032   6.217   2.857   8.485 -0.6832  2.1310 -2.7072
   41CHL1  H27B 3033   6.079   2.782   8.393  0.2981 -1.6578  0.1225
   41CHL1  H27C 3034   6.136   2.705   8.549 -0.9975  1.0595 -0.5865
   42CHL1    C3 3035   1.061   0.062   6.836  0.3389  0.6147  0.0950
   42CHL1    H3 3036   0.954   0.035   6.820  0.9110  0.0900 -3.0336
   42CHL1    O3 3037   1.132   0.053   6.714  0.2676  0.1360 -0.3979
   42CHL1   H3' 3038   1.219   0.085   6.739  1.0763 -2.6387  0.5799
   42CHL1    C4 3039   1.081   0.210   6.878 -0.4108 -0.6013 -0.0874
   42CHL1   H4A 3040   1.188   0.232   6.894 -0.4210  0.5451 -1.4607
   42CHL1   H4B 3041   1.049   0.278   6.796 -2.1019 -0.9008  0.2952
   42CHL1    C5 3042   1.007   0.239   7.009 -0.7100 -0.3409 -0.6581
   42CHL1    C6 3043   0.913   0.330   7.015  0.4289  0.3118  0.1277
   42CHL1    H6 3044   0.902   0.386   6.921 -0.4932  2.4708  1.4857
   42CHL1    C7 3045   0.834   0.372   7.139 -0.0620 -0.4031 -0.0745
   42CHL1   H7A 3046   0.836   0.483   7.150  0.2581 -0.3846 -0.3152
   42CHL1   H7B 3047   0.728   0.348   7.115  0.4750 -2.3259 -0.5853
   42CHL1    C8 3048   0.885   0.307   7.265 -0.1026  0.3109  0.3374
   42CHL1    H8 3049   0.974   0.366   7.294 -0.3042  1.2385 -0.8684
   42CHL1   C14 3050   0.778   0.320   7.375 -0.5744 -0.1066  0.3856
   42CHL1   H14 3051   0.689   0.267   7.335  1.3990  0.5906 -5.3042
   42CHL1   C15 3052   0.725   0.457   7.409 -0.1571  0.1637  0.0176
   42CHL1  H15A 3053   0.813   0.524   7.410 -0.0969  0.0886  2.0927
   42CHL1  H15B 3054   0.657   0.480   7.325 -0.3497  0.3465  0.2226
   42CHL1   C16 3055   0.650   0.433   7.543  0.2998  0.2504  0.1362
   42CHL1  H16A 3056   0.701   0.495   7.619  1.0316  0.7414 -0.7526
   42CHL1  H16B 3057   0.541   0.454   7.540  0.1069 -0.4912  1.6023
   42CHL1   C17 3058   0.692   0.288   7.590 -0.6031 -0.4138 -0.5525
   42CHL1   H17 3059   0.599   0.235   7.560 -0.4526 -1.2569  0.4472
   42CHL1   C13 3060   0.815   0.254   7.497  0.0791  0.4182 -0.3186
   42CHL1   C18 3061   0.944   0.317   7.559 -0.9651  0.4008  0.5955
   42CHL1  H18A 3062   0.929   0.424   7.583  1.5046  1.1897 -1.1459
   42CHL1  H18B 3063   0.964   0.263   7.655 -0.9844  0.0002  0.3778
   42CHL1  H18C 3064   1.032   0.299   7.493 -0.6159  0.7456  0.9727
   42CHL1   C12 3065   0.841   0.103   7.473 -0.1585 -0.3935  0.3230
   42CHL1  H12A 3066   0.875   0.052   7.566 -0.8281  0.3591  0.9889
   42CHL1  H12B 3067   0.741   0.062   7.445 -0.5089 -0.2318  1.3098
   42CHL1   C11 3068   0.947   0.083   7.366  0.1049  0.3718  0.9418
   42CHL1  H11A 3069   1.045   0.115   7.407  1.0107 -0.4231 -0.5264
   42CHL1  H11B 3070   0.955  -0.025   7.338 -0.8194  0.6990 -0.6598
   42CHL1    C9 3071   0.927   0.162   7.241  0.4268  0.4959  0.3069
   42CHL1    H9 3072   0.836   0.114   7.198 -0.4543  2.1642  0.2821
   42CHL1   C10 3073   1.038   0.145   7.131 -0.6061 -0.5389  0.8607
   42CHL1   C19 3074   1.164   0.198   7.195 -0.2265 -0.2929 -0.2977
   42CHL1  H19A 3075   1.154   0.307   7.215 -1.1228 -0.6350  1.2047
   42CHL1  H19B 3076   1.200   0.150   7.289 -0.8477  0.7650  0.4903
   42CHL1  H19C 3077   1.243   0.184   7.118  0.4961 -0.5187  0.4865
   42CHL1    C1 3078   1.048  -0.004   7.082  0.0188 -0.8033  0.1749
   42CHL1   H1A 3079   1.101  -0.060   7.161 -1.3008 -1.0202  0.9202
   42CHL1   H1B 3080   0.946  -0.049   7.082 -0.6319  0.5749  2.4208
   42CHL1    C2 3081   1.112  -0.033   6.945  0.0888 -0.4955 -0.3736
   42CHL1   H2A 3082   1.099  -0.140   6.918 -1.3130 -0.3364 -0.3590
   42CHL1   H2B 3083   1.223  -0.022   6.955 -0.3609  3.6327  0.9357
   42CHL1   C20 3084   0.703   0.281   7.741  0.1062 -0.8950  0.4383
   42CHL1   H20 3085   0.778   0.355   7.779  0.0120  0.1807 -1.4198
   42CHL1   C21 3086   0.743   0.143   7.790  0.2761  0.3576  0.3631
   42CHL1  H21A 3087   0.676   0.061   7.759  1.5010 -0.6435  0.3420
   42CHL1  H21B 3088   0.748   0.138   7.901 -2.4303  0.0856  0.4835
   42CHL1  H21C 3089   0.848   0.114   7.767  0.3896 -0.8788  2.3877
   42CHL1   C22 3090   0.568   0.327   7.812  0.3140 -0.2338 -0.3161
   42CHL1  H22A 3091   0.545   0.433   7.788 -2.4887 -0.3085  1.7694
   42CHL1  H22B 3092   0.482   0.271   7.768 -0.5601  0.4763  0.4783
   42CHL1   C23 3093   0.565   0.314   7.968  0.0078 -0.1612  0.5486
   42CHL1  H23A 3094   0.554   0.207   7.998  2.2386 -1.2664 -2.3954
   42CHL1  H23B 3095   0.654   0.345   8.027 -0.8726 -0.2895  1.9736
   42CHL1   C24 3096   0.447   0.395   8.022  0.1028 -0.2521  0.3436
   42CHL1  H24A 3097   0.462   0.501   7.990  1.4278  0.0045  1.7735
   42CHL1  H24B 3098   0.349   0.364   7.980  0.3620  1.4538 -1.5864
   42CHL1   C25 3099   0.443   0.398   8.179  0.1136  0.3090 -0.5926
   42CHL1   H25 3100   0.544   0.419   8.221  0.2316  0.4518 -0.9461
   42CHL1   C26 3101   0.346   0.507   8.221 -0.4560  0.0196  0.2038
   42CHL1  H26A 3102   0.337   0.504   8.332 -0.0090  1.1023  0.2769
   42CHL1  H26B 3103   0.372   0.612   8.197 -1.1011  0.1236 -0.0315
   42CHL1  H26C 3104   0.244   0.486   8.183 -0.7683  0.3990  0.8235
   42CHL1   C27 3105   0.388   0.263   8.237  0.0917  0.2415 -0.2339
   42CHL1  H27A 3106   0.289   0.242   8.192  0.1060 -0.6982  0.1659
   42CHL1  H27B 3107   0.383   0.262   8.348 -1.4417 -0.8516 -0.2974
   42CHL1  H27C 3108   0.462   0.187   8.204  1.5678  1.2554  0.6544
   43CHL1    C3 3109   0.802   4.205   6.930  0.2257  0.3407 -0.8617
   43CHL1    H3 3110   0.711   4.264   6.906 -1.4813 -1.8503  0.0955
   43CHL1    O3 3111   0.838   4.134   6.811  0.0761  0.2693 -0.0001
   43CHL1   H3' 3112   0.782   4.058   6.797  1.3492 -1.1827  2.5845
   43CHL1    C4 3113   0.924   4.291   6.980  0.5092 -0.3968  0.5841
   43CHL1   H4A 3114   1.013   4.225   6.968  0.6469  0.2343 -2.2682
   43CHL1   H4B 3115   0.936   4.371   6.903 -3.9938  0.7738  0.9927
   43CHL1    C5 3116   0.914   4.354   7.118  0.7155 -0.5320 -0.1696
   43CHL1    C6 3117   0.931   4.484   7.141 -0.6458 -0.2434  0.7913
   43CHL1    H6 3118   0.961   4.542   7.053 -0.4742 -1.1814  0.2226
   43CHL1    C7 3119   0.917   4.550   7.276 -0.1593 -0.1654 -0.2105
   43CHL1   H7A 3120   1.009   4.611   7.292  0.1475  0.0774 -2.6763
   43CHL1   H7B 3121   0.820   4.603   7.276 -1.0350 -1.7203  0.7439
   43CHL1    C8 3122   0.914   4.447   7.401  0.2684  0.7547 -0.9938
   43CHL1    H8 3123   1.020   4.424   7.426 -0.4776  2.2404  4.1409
   43CHL1   C14 3124   0.849   4.513   7.522 -0.1477  0.0188  0.2407
   43CHL1   H14 3125   0.746   4.535   7.489  0.8386  0.7685 -2.4361
   43CHL1   C15 3126   0.915   4.647   7.563  0.7414  0.1144 -0.2743
   43CHL1  H15A 3127   1.024   4.640   7.549  0.9202 -0.0402  1.1011
   43CHL1  H15B 3128   0.870   4.731   7.506 -0.2603  0.3666  0.8685
   43CHL1   C16 3129   0.887   4.659   7.716  0.9210  0.5363 -0.3808
   43CHL1  H16A 3130   0.989   4.666   7.761 -0.3498  1.1070  2.5666
   43CHL1  H16B 3131   0.835   4.753   7.744 -0.8615  0.1765 -2.3630
   43CHL1   C17 3132   0.808   4.529   7.753 -0.0320 -0.0516  0.6589
   43CHL1   H17 3133   0.704   4.559   7.732  1.2954  3.1323 -1.6568
   43CHL1   C13 3134   0.855   4.426   7.646 -0.2835 -0.5381 -0.1603
   43CHL1   C18 3135   1.000   4.375   7.682 -0.3396 -0.1468  0.4330
   43CHL1  H18A 3136   1.037   4.298   7.611 -0.4877 -1.6075  1.9007
   43CHL1  H18B 3137   1.069   4.461   7.695  1.0127 -0.8671 -1.6630
   43CHL1  H18C 3138   0.993   4.310   7.772 -0.5940 -0.1278  0.4274
   43CHL1   C12 3139   0.756   4.303   7.621 -0.3845  0.2699 -0.4115
   43CHL1  H12A 3140   0.773   4.234   7.706 -0.3869  1.4245  0.5317
   43CHL1  H12B 3141   0.652   4.341   7.625 -0.2524  0.4875  1.2943
   43CHL1   C11 3142   0.797   4.231   7.489 -0.5815 -0.2724 -0.1935
   43CHL1  H11A 3143   0.887   4.173   7.518  1.1525  3.0293  1.2900
   43CHL1  H11B 3144   0.714   4.162   7.464 -1.4119 -0.2295  2.3314
   43CHL1    C9 3145   0.824   4.328   7.370  0.3348  0.5328  0.7151
   43CHL1    H9 3146   0.722   4.370   7.353  0.7443  1.6150  0.9476
   43CHL1   C10 3147   0.864   4.262   7.228 -0.5870 -0.2537  0.5906
   43CHL1   C19 3148   0.978   4.171   7.246 -0.6555  0.1580 -0.6118
   43CHL1  H19A 3149   0.958   4.089   7.318  0.3827 -1.4044 -2.0669
   43CHL1  H19B 3150   1.014   4.122   7.153  0.7838  1.3801 -0.7309
   43CHL1  H19C 3151   1.064   4.229   7.287 -2.0924  1.7575  0.2143
   43CHL1    C1 3152   0.742   4.186   7.179 -0.1185  0.2956  0.4421
   43CHL1   H1A 3153   0.727   4.101   7.250 -0.4090  0.9549  1.1764
   43CHL1   H1B 3154   0.647   4.243   7.174 -0.8961 -1.0038  0.1437
   43CHL1    C2 3155   0.756   4.110   7.040 -0.9091 -0.3192 -0.0197
   43CHL1   H2A 3156   0.658   4.064   7.016  0.5284 -2.6111 -1.7965
   43CHL1   H2B 3157   0.835   4.033   7.056  0.3638  0.9921  0.1309
   43CHL1   C20 3158   0.816   4.489   7.900  0.2618 -0.2181 -0.2932
   43CHL1   H20 3159   0.799   4.379   7.897  1.0170 -0.3068 -1.6468
   43CHL1   C21 3160   0.692   4.553   7.968  0.3938 -0.6876  0.0302
   43CHL1  H21A 3161   0.675   4.526   8.075 -0.8504  1.6005  0.4317
   43CHL1  H21B 3162   0.595   4.527   7.922 -1.5029  0.0949  3.3839
   43CHL1  H21C 3163   0.714   4.662   7.966  0.4944 -0.7249 -0.7340
   43CHL1   C22 3164   0.953   4.519   7.979 -0.1969 -0.6273  0.4236
   43CHL1  H22A 3165   1.036   4.492   7.911 -1.0255 -2.6595  0.1682
   43CHL1  H22B 3166   0.953   4.628   8.001 -3.5412 -0.3952 -0.5000
   43CHL1   C23 3167   0.967   4.437   8.109  1.1910 -0.2102  0.2023
   43CHL1  H23A 3168   0.881   4.454   8.177  0.2123  0.3247 -1.1389
   43CHL1  H23B 3169   0.960   4.331   8.074 -0.9256 -0.6171  1.7327
   43CHL1   C24 3170   1.104   4.456   8.177 -1.3257  0.0944  0.3973
   43CHL1  H24A 3171   1.171   4.420   8.096  0.4767  1.5235  1.2044
   43CHL1  H24B 3172   1.134   4.561   8.195  1.2824 -0.7846  1.4312
   43CHL1   C25 3173   1.132   4.368   8.302  0.1084 -0.2442 -0.4825
   43CHL1   H25 3174   1.085   4.270   8.282 -1.1819  0.2906 -0.1599
   43CHL1   C26 3175   1.282   4.353   8.346  0.1009 -0.1529 -0.4060
   43CHL1  H26A 3176   1.285   4.276   8.426 -1.2291 -0.1062 -0.3040
   43CHL1  H26B 3177   1.350   4.328   8.261  1.6490  5.3044 -0.9451
   43CHL1  H26C 3178   1.312   4.452   8.386  0.0766  0.1725 -1.1898
   43CHL1   C27 3179   1.062   4.418   8.429 -0.3119 -0.0057 -0.2546
   43CHL1  H27A 3180   0.951   4.423   8.430 -0.4261 -1.8769 -1.1535
   43CHL1  H27B 3181   1.090   4.343   8.506  2.6563  0.3003 -0.9836
   43CHL1  H27C 3182   1.107   4.514   8.463 -1.9050  0.2465  1.1901
   44CHL1    C3 3183   0.616   2.612   6.676  0.0407 -0.1265  0.2869
   44CHL1    H3 3184   0.537   2.685   6.704 -1.5110 -1.7605  0.2772
   44CHL1    O3 3185   0.629   2.604   6.533 -0.5209 -0.3040 -0.0039
   44CHL1   H3' 3186   0.541   2.610   6.495 -0.2309  1.0423 -0.4840
   44CHL1    C4 3187   0.751   2.673   6.719 -0.4439  0.3266  0.8541
   44CHL1   H4A 3188   0.838   2.610   6.692 -0.1522  0.3450  1.7240
   44CHL1   H4B 3189   0.759   2.769   6.664 -1.4945 -0.7716 -1.2602
   44CHL1    C5 3190   0.741   2.693   6.870 -0.0184  0.0193  0.6265
   44CHL1    C6 3191   0.742   2.818   6.910 -0.0155  0.0111 -0.4339
   44CHL1    H6 3192   0.770   2.901   6.844  0.3641  1.0520  1.0293
   44CHL1    C7 3193   0.738   2.859   7.054  0.0157  0.5346 -0.1237
   44CHL1   H7A 3194   0.827   2.925   7.062  1.0642 -0.3932 -3.4073
   44CHL1   H7B 3195   0.642   2.913   7.072  0.5579  1.6982 -0.6898
   44CHL1    C8 3196   0.769   2.744   7.155 -0.5909 -0.3243  0.1030
   44CHL1    H8 3197   0.879   2.733   7.142 -0.6936 -1.1641 -0.1184
   44CHL1   C14 3198   0.725   2.781   7.305 -0.2319  0.6088  0.7441
   44CHL1   H14 3199   0.615   2.788   7.295 -0.1785 -0.6232 -0.8535
   44CHL1   C15 3200   0.777   2.912   7.373  0.4791  0.3142  0.8500
   44CHL1  H15A 3201   0.884   2.916   7.343  0.4327  0.5496  0.7129
   44CHL1  H15B 3202   0.722   2.999   7.331  1.0167  0.7423  1.0131
   44CHL1   C16 3203   0.760   2.881   7.522  0.2230  0.4053 -0.1310
   44CHL1  H16A 3204   0.858   2.887   7.574 -0.3556 -0.3694  1.0600
   44CHL1  H16B 3205   0.688   2.945   7.577  0.7278 -0.2309  1.2955
   44CHL1   C17 3206   0.708   2.738   7.530  0.3822  0.0603  0.4285
   44CHL1   H17 3207   0.597   2.743   7.528  0.2598 -2.3761 -2.5508
   44CHL1   C13 3208   0.758   2.669   7.401 -0.1060 -0.2463  0.2877
   44CHL1   C18 3209   0.911   2.628   7.415  0.1385  0.1545  0.4418
   44CHL1  H18A 3210   0.945   2.580   7.321  1.7761 -0.4813  1.3512
   44CHL1  H18B 3211   0.971   2.719   7.434 -0.6069  1.2482 -2.2468
   44CHL1  H18C 3212   0.925   2.552   7.494 -1.1841  0.4862  1.0168
   44CHL1   C12 3213   0.680   2.544   7.356  0.3228 -0.0830 -0.3041
   44CHL1  H12A 3214   0.699   2.458   7.423 -1.2512 -1.3159 -1.4018
   44CHL1  H12B 3215   0.573   2.572   7.348  0.0047 -1.5059 -1.1693
   44CHL1   C11 3216   0.705   2.500   7.216 -0.2598 -0.2956  0.4702
   44CHL1  H11A 3217   0.809   2.462   7.208 -0.0082  0.3143  0.7990
   44CHL1  H11B 3218   0.633   2.422   7.186 -0.0005 -1.2609  2.3122
   44CHL1    C9 3219   0.686   2.621   7.111 -0.3891  0.5443 -0.5544
   44CHL1    H9 3220   0.582   2.660   7.115 -0.7961 -0.5687  0.2701
   44CHL1   C10 3221   0.712   2.574   6.965  0.3421  0.4283  0.0265
   44CHL1   C19 3222   0.835   2.484   6.949  0.1941 -0.6396 -0.4466
   44CHL1  H19A 3223   0.924   2.533   6.994 -0.2733 -0.0524 -0.1520
   44CHL1  H19B 3224   0.810   2.387   6.996 -1.0821  0.1964  0.6528
   44CHL1  H19C 3225   0.868   2.470   6.844  1.9258  0.8162 -0.1430
   44CHL1    C1 3226   0.588   2.508   6.899  0.4207 -0.1175 -0.1230
   44CHL1   H1A 3227   0.564   2.419   6.961  1.9483 -0.7020 -0.3368
   44CHL1   H1B 3228   0.493   2.565   6.899 -1.0614 -2.5035 -1.3677
   44CHL1    C2 3229   0.592   2.481   6.751 -0.3620  0.0698  0.1388
   44CHL1   H2A 3230   0.496   2.439   6.714 -1.4976  0.4001  2.6390
   44CHL1   H2B 3231   0.663   2.401   6.721  0.7925  0.8784  0.6600
   44CHL1   C20 3232   0.734   2.676   7.670  0.5172 -1.1122  0.0654
   44CHL1   H20 3233   0.844   2.675   7.681  0.8382  1.5617 -2.4213
   44CHL1   C21 3234   0.688   2.528   7.677 -0.4092 -0.1021  0.1625
   44CHL1  H21A 3235   0.588   2.529   7.628 -0.0702  0.8446 -0.5404
   44CHL1  H21B 3236   0.674   2.501   7.783 -0.6593 -1.0004 -0.0925
   44CHL1  H21C 3237   0.762   2.464   7.624 -0.6520  1.1087 -1.7069
   44CHL1   C22 3238   0.683   2.771   7.786  0.1805  0.3776  0.8620
   44CHL1  H22A 3239   0.757   2.852   7.802  2.1414 -0.8158 -1.8389
   44CHL1  H22B 3240   0.583   2.814   7.761 -0.6867 -0.7293  2.3722
   44CHL1   C23 3241   0.680   2.702   7.925 -0.3500 -0.4937 -0.3107
   44CHL1  H23A 3242   0.601   2.624   7.919 -0.3362 -0.6261  1.0895
   44CHL1  H23B 3243   0.779   2.653   7.936  0.5233  1.3307  0.0950
   44CHL1   C24 3244   0.663   2.797   8.047  0.7058 -0.3537  0.1863
   44CHL1  H24A 3245   0.752   2.864   8.045 -1.2508  2.2863 -0.4173
   44CHL1  H24B 3246   0.576   2.861   8.023 -0.1008 -1.5030 -0.0080
   44CHL1   C25 3247   0.643   2.728   8.177  0.0252  0.4280  0.3606
   44CHL1   H25 3248   0.680   2.625   8.157 -0.7869  0.3253 -0.6832
   44CHL1   C26 3249   0.715   2.796   8.289 -0.2044 -0.6224 -0.3852
   44CHL1  H26A 3250   0.679   2.900   8.305 -3.0271 -1.5942 -0.1534
   44CHL1  H26B 3251   0.694   2.741   8.383 -1.6950 -1.0415 -0.9514
   44CHL1  H26C 3252   0.824   2.811   8.273 -0.3891  0.3296 -0.7964
   44CHL1   C27 3253   0.493   2.701   8.212 -0.3438 -0.5745 -0.2793
   44CHL1  H27A 3254   0.432   2.681   8.122  1.2532  2.1227 -2.0352
   44CHL1  H27B 3255   0.471   2.606   8.265 -2.6147 -0.3778 -0.7833
   44CHL1  H27C 3256   0.448   2.786   8.269  0.8452 -1.0787  1.4605
   45CHL1    C3 3257   1.950   1.189   6.740  0.7104  0.1229 -0.5189
   45CHL1    H3 3258   1.893   1.284   6.745  0.7367  0.0617  1.5096
   45CHL1    O3 3259   1.951   1.158   6.603 -0.3206  0.5826 -0.4581
   45CHL1   H3' 3260   2.038   1.120   6.594 -1.1121 -1.7818  1.3089
   45CHL1    C4 3261   2.092   1.209   6.797  0.0944  0.1793 -0.0553
   45CHL1   H4A 3262   2.156   1.120   6.777  0.6020  0.6018 -0.3439
   45CHL1   H4B 3263   2.134   1.292   6.736  0.9379  1.0179  1.6249
   45CHL1    C5 3264   2.096   1.248   6.943  0.4414 -0.7124  0.0248
   45CHL1    C6 3265   2.137   1.367   6.990  0.4178  0.1798 -0.1725
   45CHL1    H6 3266   2.166   1.436   6.909  0.2730 -1.6218 -1.7954
   45CHL1    C7 3267   2.145   1.400   7.135 -0.5231  0.3083  0.2628
   45CHL1   H7A 3268   2.253   1.421   7.152 -0.2794 -1.2931  0.7248
   45CHL1   H7B 3269   2.086   1.484   7.176 -0.2943 -1.0715  3.5693
   45CHL1    C8 3270   2.117   1.277   7.225  0.0657 -0.0367 -0.1544
   45CHL1    H8 3271   2.209   1.215   7.219  0.8033  1.2408 -2.7811
   45CHL1   C14 3272   2.098   1.325   7.363  0.2540  0.2214  0.1963
   45CHL1   H14 3273   1.993   1.362   7.371 -0.2344 -0.9564 -0.6313
   45CHL1   C15 3274   2.185   1.442   7.428 -0.3607  0.4814  0.7317
   45CHL1  H15A 3275   2.288   1.413   7.397 -0.1789  1.3491  0.5311
   45CHL1  H15B 3276   2.161   1.542   7.388 -1.7662 -0.3543 -0.5685
   45CHL1   C16 3277   2.166   1.425   7.580 -0.0757  0.6395  0.4895
   45CHL1  H16A 3278   2.261   1.396   7.630 -0.1426  1.5173  1.1352
   45CHL1  H16B 3279   2.123   1.516   7.627 -0.0107  1.1425 -0.4209
   45CHL1   C17 3280   2.076   1.291   7.595  0.2608 -0.6664  0.0421
   45CHL1   H17 3281   1.978   1.343   7.590  1.6024  1.9853  0.4142
   45CHL1   C13 3282   2.092   1.213   7.469 -0.0918 -0.6454 -0.3340
   45CHL1   C18 3283   2.228   1.137   7.479 -0.1381 -0.0436 -0.2381
   45CHL1  H18A 3284   2.260   1.090   7.384  1.2670 -1.7269  1.0423
   45CHL1  H18B 3285   2.312   1.177   7.540 -0.0424  0.4478 -0.6911
   45CHL1  H18C 3286   2.194   1.054   7.545 -0.2981 -0.5162 -0.9089
   45CHL1   C12 3287   1.971   1.127   7.422  0.6682 -0.0407  0.1627
   45CHL1  H12A 3288   1.972   1.037   7.487  1.0524  0.5970  1.0532
   45CHL1  H12B 3289   1.881   1.184   7.453  0.6486 -0.0324  0.0896
   45CHL1   C11 3290   1.982   1.084   7.275  0.4518  0.4797 -0.2280
   45CHL1  H11A 3291   2.071   1.018   7.275  0.9284  1.1038  0.9452
   45CHL1  H11B 3292   1.887   1.028   7.257  0.0600  1.4153 -1.0936
   45CHL1    C9 3293   1.999   1.197   7.172  0.4123  0.1234  0.3418
   45CHL1    H9 3294   1.905   1.256   7.167  1.0819  1.0518 -1.3072
   45CHL1   C10 3295   2.018   1.144   7.028 -0.7826 -0.1357  0.2148
   45CHL1   C19 3296   2.105   1.016   7.031  0.3747 -0.1343 -0.6007
   45CHL1  H19A 3297   2.194   1.032   7.096  0.2685 -4.2904  0.6782
   45CHL1  H19B 3298   2.045   0.935   7.077  0.5929 -0.8441 -1.5530
   45CHL1  H19C 3299   2.141   0.977   6.934  2.3380  1.4488 -0.5649
   45CHL1    C1 3300   1.877   1.112   6.966  0.4814 -0.3128 -0.0894
   45CHL1   H1A 3301   1.833   1.023   7.017  2.3602 -0.7600  0.8001
   45CHL1   H1B 3302   1.822   1.208   6.974 -1.5103 -1.2844 -1.5185
   45CHL1    C2 3303   1.887   1.073   6.818  0.4437  0.0080 -0.0292
   45CHL1   H2A 3304   1.788   1.051   6.773 -0.8733  2.4309  1.6145
   45CHL1   H2B 3305   1.953   0.984   6.813  0.2958 -0.1525  0.7374
   45CHL1   C20 3306   2.081   1.234   7.739  0.6983  0.1264 -0.0779
   45CHL1   H20 3307   2.168   1.165   7.749  0.1287 -0.6595 -0.4790
   45CHL1   C21 3308   1.961   1.140   7.765 -0.4088 -0.6112 -0.3806
   45CHL1  H21A 3309   1.976   1.100   7.868  1.0864  2.7896  0.7940
   45CHL1  H21B 3310   1.964   1.059   7.690 -1.6503 -0.8881 -0.1382
   45CHL1  H21C 3311   1.863   1.190   7.762 -0.6220 -1.0558 -0.8251
   45CHL1   C22 3312   2.097   1.343   7.845  0.6135 -0.4305  0.0164
   45CHL1  H22A 3313   2.200   1.381   7.828  0.8402 -0.4398  1.3529
   45CHL1  H22B 3314   2.022   1.422   7.824 -0.3636 -1.3733 -0.1130
   45CHL1   C23 3315   2.108   1.313   7.993  0.0831 -0.1953  0.1442
   45CHL1  H23A 3316   2.007   1.297   8.038  0.1070 -0.6653  0.0293
   45CHL1  H23B 3317   2.171   1.224   8.014 -0.4292 -1.1422 -2.1895
   45CHL1   C24 3318   2.158   1.441   8.067  0.4089 -0.0722 -0.1103
   45CHL1  H24A 3319   2.253   1.486   8.033  1.0259 -2.6266 -1.8856
   45CHL1  H24B 3320   2.088   1.524   8.041  3.3013  3.3582  2.4930
   45CHL1   C25 3321   2.175   1.427   8.217 -0.7877 -0.2023  0.6226
   45CHL1   H25 3322   2.077   1.399   8.260 -1.5931 -1.5391 -1.9974
   45CHL1   C26 3323   2.273   1.316   8.256  0.1494 -0.3248 -0.2790
   45CHL1  H26A 3324   2.295   1.326   8.365 -1.1603  0.7663 -0.0982
   45CHL1  H26B 3325   2.242   1.210   8.249  0.4239 -0.3988 -0.3793
   45CHL1  H26C 3326   2.368   1.324   8.199 -0.1620 -0.0437 -0.7556
   45CHL1   C27 3327   2.206   1.559   8.288 -0.4542 -0.2788 -0.1954
   45CHL1  H27A 3328   2.212   1.541   8.397  2.2839  1.3064 -0.0301
   45CHL1  H27B 3329   2.307   1.593   8.256  0.7123 -2.2619  1.2779
   45CHL1  H27C 3330   2.127   1.635   8.274  1.4769  1.5917 -1.3907
   46CHL1    C3 3331   1.660   2.192   6.915 -0.0660  0.2039 -1.0117
   46CHL1    H3 3332   1.660   2.300   6.940  0.2024  0.1253 -0.6744
   46CHL1    O3 3333   1.671   2.184   6.773  0.0730 -0.6209  0.3841
   46CHL1   H3' 3334   1.701   2.095   6.753  1.2355  0.2313 -1.8224
   46CHL1    C4 3335   1.777   2.116   6.976  1.8564 -0.4595  0.6560
   46CHL1   H4A 3336   1.752   2.009   6.959  1.6238 -0.5224  1.3628
   46CHL1   H4B 3337   1.879   2.139   6.939  2.1019 -1.0774  0.9589
   46CHL1    C5 3338   1.766   2.129   7.125 -0.2268  0.3893 -0.1539
   46CHL1    C6 3339   1.859   2.196   7.189  0.1229  0.0859 -0.1561
   46CHL1    H6 3340   1.939   2.240   7.128  1.1155 -1.3477  0.0811
   46CHL1    C7 3341   1.844   2.230   7.328  1.2452 -0.1952 -0.3820
   46CHL1   H7A 3342   1.946   2.235   7.373 -0.1867  0.4153  2.9571
   46CHL1   H7B 3343   1.808   2.335   7.338  2.0289 -0.0175  0.6112
   46CHL1    C8 3344   1.754   2.144   7.418  0.0488 -0.1535 -0.9309
   46CHL1    H8 3345   1.809   2.047   7.421 -1.1581 -0.8095  0.8592
   46CHL1   C14 3346   1.734   2.196   7.557 -0.8131 -0.0574 -0.0044
   46CHL1   H14 3347   1.682   2.293   7.543  1.1517  1.3034  1.8494
   46CHL1   C15 3348   1.861   2.229   7.632  0.5993  0.7902  0.0806
   46CHL1  H15A 3349   1.944   2.157   7.615 -1.9785 -2.2440 -0.1223
   46CHL1  H15B 3350   1.877   2.336   7.605 -2.8782  1.0568 -1.2015
   46CHL1   C16 3351   1.809   2.227   7.782 -0.2850  0.1696  0.7818
   46CHL1  H16A 3352   1.863   2.149   7.841  0.6390  0.4978  0.3865
   46CHL1  H16B 3353   1.828   2.327   7.827  3.0268 -0.5551  1.1958
   46CHL1   C17 3354   1.660   2.181   7.775  0.0017  0.5078  0.6721
   46CHL1   H17 3355   1.596   2.272   7.774  1.0646  1.2881  1.4284
   46CHL1   C13 3356   1.639   2.108   7.646 -0.4910 -0.1928  0.3239
   46CHL1   C18 3357   1.701   1.961   7.664  0.9471  0.0866 -0.7009
   46CHL1  H18A 3358   1.800   1.960   7.715  1.4029 -0.9544 -1.6003
   46CHL1  H18B 3359   1.627   1.887   7.701  1.1256 -0.8282 -2.1160
   46CHL1  H18C 3360   1.742   1.935   7.564  1.5689 -0.3171 -0.3413
   46CHL1   C12 3361   1.502   2.107   7.578 -0.1875 -0.3729 -1.0375
   46CHL1  H12A 3362   1.428   2.036   7.622 -1.7435  1.0124 -1.3791
   46CHL1  H12B 3363   1.452   2.206   7.575  0.0749 -0.2506 -1.3708
   46CHL1   C11 3364   1.516   2.056   7.432 -0.5627  0.2435 -0.2295
   46CHL1  H11A 3365   1.552   1.951   7.441 -2.3406 -0.5743 -1.9746
   46CHL1  H11B 3366   1.421   2.048   7.373 -0.5774 -0.8242 -0.0645
   46CHL1    C9 3367   1.618   2.136   7.347  0.3363 -0.3757 -0.5289
   46CHL1    H9 3368   1.583   2.241   7.339  2.1147  0.2090 -0.8598
   46CHL1   C10 3369   1.632   2.088   7.197 -0.2420  0.2947 -0.1015
   46CHL1   C19 3370   1.633   1.925   7.191 -0.2013 -0.6709  0.2635
   46CHL1  H19A 3371   1.653   1.892   7.086 -1.1606  0.9957 -0.4708
   46CHL1  H19B 3372   1.725   1.895   7.245  0.5739 -0.2177 -0.7894
   46CHL1  H19C 3373   1.536   1.883   7.226  0.4503 -0.6485  2.1245
   46CHL1    C1 3374   1.507   2.134   7.117 -1.2287  0.3571 -0.7262
   46CHL1   H1A 3375   1.411   2.081   7.138 -1.9117  2.1254  0.7187
   46CHL1   H1B 3376   1.481   2.237   7.147  0.3232  0.4026  0.5323
   46CHL1    C2 3377   1.526   2.137   6.964  0.2039  0.5081  0.3626
   46CHL1   H2A 3378   1.447   2.188   6.905 -1.1038 -1.4833  0.3352
   46CHL1   H2B 3379   1.524   2.031   6.929 -0.0631  1.1102 -1.5064
   46CHL1   C20 3380   1.603   2.120   7.904  0.6205 -0.0108 -0.6713
   46CHL1   H20 3381   1.661   2.028   7.922  2.6384  1.3605  0.0328
   46CHL1   C21 3382   1.456   2.072   7.890  0.1987 -0.2639  0.2590
   46CHL1  H21A 3383   1.422   2.013   7.978  0.6998  1.5941  1.7172
   46CHL1  H21B 3384   1.445   1.991   7.815  1.3345  0.6116 -0.8770
   46CHL1  H21C 3385   1.387   2.154   7.858  2.1895  0.8435 -1.3154
   46CHL1   C22 3386   1.622   2.214   8.030 -0.4196 -0.0259  0.1750
   46CHL1  H22A 3387   1.712   2.272   8.001 -0.9878  0.2002 -1.1940
   46CHL1  H22B 3388   1.542   2.291   8.040  0.2257  0.7925 -0.9004
   46CHL1   C23 3389   1.638   2.144   8.164  0.6608  0.8274 -0.4240
   46CHL1  H23A 3390   1.538   2.100   8.186  1.3199  0.3195  1.6537
   46CHL1  H23B 3391   1.708   2.063   8.133  0.5084 -0.2788  1.9935
   46CHL1   C24 3392   1.703   2.232   8.275 -0.0934 -0.0923 -0.3269
   46CHL1  H24A 3393   1.813   2.228   8.258  0.1473 -1.7310  1.3682
   46CHL1  H24B 3394   1.658   2.331   8.257 -0.7899 -0.4112 -0.3598
   46CHL1   C25 3395   1.654   2.202   8.415 -0.2287 -0.2250  0.5685
   46CHL1   H25 3396   1.544   2.189   8.405 -0.1546 -0.3042 -0.1644
   46CHL1   C26 3397   1.705   2.062   8.467 -0.0933 -0.0485  0.4782
   46CHL1  H26A 3398   1.674   2.049   8.573 -0.3159 -1.3671  0.2580
   46CHL1  H26B 3399   1.660   1.986   8.401  0.3035  0.8671 -0.8706
   46CHL1  H26C 3400   1.815   2.049   8.473 -0.6829 -4.9712  2.9000
   46CHL1   C27 3401   1.679   2.317   8.520 -0.6555  0.0820 -0.3159
   46CHL1  H27A 3402   1.619   2.295   8.611 -0.8521  1.2587 -0.1577
   46CHL1  H27B 3403   1.785   2.329   8.548 -0.2986  1.8814 -2.2730
   46CHL1  H27C 3404   1.657   2.413   8.468 -1.1850 -0.1799 -0.5856
   47CHL1    C3 3405   0.796   2.130   6.780 -0.0854  1.1249  0.0807
   47CHL1    H3 3406   0.777   2.239   6.791  2.9031  1.4785  2.2205
   47CHL1    O3 3407   0.773   2.093   6.648 -0.5425  0.0584  0.4116
   47CHL1   H3' 3408   0.765   1.997   6.652  0.6973  0.0045  1.9274
   47CHL1    C4 3409   0.939   2.095   6.816  0.8934  0.1306  0.4679
   47CHL1   H4A 3410   0.963   1.988   6.804  1.6681  0.3003  0.5076
   47CHL1   H4B 3411   1.008   2.135   6.740  1.7414  0.6352  1.4839
   47CHL1    C5 3412   0.960   2.133   6.961 -0.0853 -0.6681 -0.2912
   47CHL1    C6 3413   1.063   2.213   7.009 -0.0761  0.1805 -0.0877
   47CHL1    H6 3414   1.119   2.258   6.926 -2.6334  1.2822 -1.2622
   47CHL1    C7 3415   1.097   2.256   7.149 -0.3214 -0.0016  0.8746
   47CHL1   H7A 3416   1.206   2.241   7.160 -0.3215 -0.6647  0.1009
   47CHL1   H7B 3417   1.077   2.363   7.167 -0.1049  0.3810 -1.0045
   47CHL1    C8 3418   1.028   2.152   7.247  0.1467 -0.0561 -0.1813
   47CHL1    H8 3419   1.084   2.057   7.250  1.2300  0.6036  1.2548
   47CHL1   C14 3420   1.025   2.217   7.389  0.6301  0.6302 -0.1173
   47CHL1   H14 3421   0.960   2.304   7.368  0.9889  1.0107  0.3434
   47CHL1   C15 3422   1.159   2.280   7.454 -0.4870  0.0212  0.1314
   47CHL1  H15A 3423   1.238   2.203   7.448 -1.3472 -0.7222 -1.8731
   47CHL1  H15B 3424   1.186   2.369   7.394 -2.7301  1.4113  1.0907
   47CHL1   C16 3425   1.119   2.294   7.603 -0.2076 -0.9169 -0.5953
   47CHL1  H16A 3426   1.198   2.251   7.669  0.1225  4.0622  2.4893
   47CHL1  H16B 3427   1.127   2.402   7.628 -0.2493 -0.8520 -0.8683
   47CHL1   C17 3428   0.980   2.233   7.622  0.3914  0.9892  0.3877
   47CHL1   H17 3429   0.899   2.308   7.610 -0.6744 -0.3170 -0.7690
   47CHL1   C13 3430   0.958   2.135   7.501  0.2567 -0.4211  0.0770
   47CHL1   C18 3431   1.049   2.014   7.534 -0.5570 -0.5349  0.4297
   47CHL1  H18A 3432   1.075   1.958   7.441  3.1890 -0.2078  1.2007
   47CHL1  H18B 3433   1.151   2.043   7.567 -0.1605 -0.4353 -0.8466
   47CHL1  H18C 3434   1.008   1.943   7.609 -2.3697  0.2652  0.2136
   47CHL1   C12 3435   0.814   2.097   7.457 -0.3319 -0.4655 -0.4360
   47CHL1  H12A 3436   0.755   2.024   7.517  0.5873 -2.7671 -2.2810
   47CHL1  H12B 3437   0.751   2.189   7.451  0.5765  0.1148 -1.1920
   47CHL1   C11 3438   0.810   2.032   7.308 -0.5978  0.0909  0.8567
   47CHL1  H11A 3439   0.853   1.931   7.322 -2.2643 -0.5980  1.1801
   47CHL1  H11B 3440   0.704   2.018   7.277  0.9319 -3.6443 -3.1590
   47CHL1    C9 3441   0.885   2.122   7.202  0.0608 -0.0325  0.4537
   47CHL1    H9 3442   0.822   2.214   7.206 -1.2763 -0.9778  1.7288
   47CHL1   C10 3443   0.867   2.064   7.061 -0.5134 -0.8301 -0.4340
   47CHL1   C19 3444   0.904   1.912   7.056  0.0591  0.1029  0.0461
   47CHL1  H19A 3445   0.916   1.869   6.954  1.5193 -1.0074  0.6760
   47CHL1  H19B 3446   1.005   1.885   7.093 -1.0921 -1.5269  2.1121
   47CHL1  H19C 3447   0.829   1.855   7.114  2.0370 -3.0076 -0.3782
   47CHL1    C1 3448   0.722   2.093   7.013 -0.2430  0.0253  0.4713
   47CHL1   H1A 3449   0.661   2.027   7.078 -0.0812 -0.6428 -0.0413
   47CHL1   H1B 3450   0.694   2.200   7.023 -1.8071 -0.0985 -2.1532
   47CHL1    C2 3451   0.695   2.056   6.868 -0.8269 -0.2698  0.2526
   47CHL1   H2A 3452   0.598   2.090   6.826  0.1253  2.6682  0.2820
   47CHL1   H2B 3453   0.707   1.947   6.850  1.4433 -0.1410  0.9147
   47CHL1   C20 3454   0.973   2.179   7.763  0.7536  1.0897  0.2627
   47CHL1   H20 3455   1.044   2.094   7.773 -0.9193 -0.4670 -0.8746
   47CHL1   C21 3456   0.830   2.131   7.797  0.3399 -0.4069 -0.0148
   47CHL1  H21A 3457   0.801   2.049   7.728  0.0766 -0.0974 -0.2749
   47CHL1  H21B 3458   0.768   2.222   7.783 -0.6078 -1.2558 -1.4423
   47CHL1  H21C 3459   0.807   2.098   7.901 -0.9249 -1.3091 -0.5705
   47CHL1   C22 3460   1.013   2.280   7.877  0.0365  0.0970 -0.2336
   47CHL1  H22A 3461   1.121   2.298   7.856 -0.0083 -0.5097 -1.0097
   47CHL1  H22B 3462   0.955   2.374   7.876  1.6072  1.0708 -0.7322
   47CHL1   C23 3463   0.995   2.238   8.025  0.2567  0.0026 -0.4879
   47CHL1  H23A 3464   1.012   2.327   8.090 -1.3265 -0.0532  0.0408
   47CHL1  H23B 3465   0.893   2.206   8.055  0.2567 -2.0216 -2.5261
   47CHL1   C24 3466   1.095   2.124   8.042 -0.6149 -0.0747 -1.1779
   47CHL1  H24A 3467   1.040   2.038   7.996 -0.1852 -0.7016 -0.5225
   47CHL1  H24B 3468   1.187   2.145   7.983 -1.0935 -0.4375 -2.0682
   47CHL1   C25 3469   1.137   2.103   8.190 -0.4596  0.5261 -0.3473
   47CHL1   H25 3470   1.042   2.122   8.244 -0.1644  2.6257 -0.5069
   47CHL1   C26 3471   1.181   1.958   8.220 -0.0369 -0.2217 -0.2789
   47CHL1  H26A 3472   1.091   1.893   8.218 -0.8085  0.7952  0.3495
   47CHL1  H26B 3473   1.261   1.917   8.155  3.6266  2.5394  2.2660
   47CHL1  H26C 3474   1.236   1.950   8.316 -1.3501  1.2595  0.6366
   47CHL1   C27 3475   1.246   2.209   8.229  0.5112  0.0221 -0.3511
   47CHL1  H27A 3476   1.235   2.304   8.172 -0.4065  0.6633  0.8620
   47CHL1  H27B 3477   1.246   2.224   8.339  1.3201 -0.8555 -0.2200
   47CHL1  H27C 3478   1.342   2.179   8.182  0.0637  1.0818 -1.9936
   48CHL1    C3 3479   4.710   4.861   6.299  0.2307 -0.8259  0.5968
   48CHL1    H3 3480   4.798   4.805   6.336  1.8995  1.1053 -0.3231
   48CHL1    O3 3481   4.721   4.867   6.154 -0.0204 -0.3812  0.2768
   48CHL1   H3' 3482   4.798   4.922   6.139 -0.3734  0.4358  1.3641
   48CHL1    C4 3483   4.574   4.803   6.327 -0.5707  0.3353  0.2739
   48CHL1   H4A 3484   4.493   4.870   6.292  0.7457  1.6204 -0.3672
   48CHL1   H4B 3485   4.559   4.707   6.274  1.7875 -0.1766  0.4909
   48CHL1    C5 3486   4.558   4.795   6.478  0.5186 -0.2969  0.1254
   48CHL1    C6 3487   4.539   4.673   6.530  0.2707  0.0995  0.0924
   48CHL1    H6 3488   4.538   4.584   6.467  3.5906  1.2735 -1.7557
   48CHL1    C7 3489   4.515   4.646   6.679  0.5175  0.1008  0.4163
   48CHL1   H7A 3490   4.426   4.582   6.697  1.8441 -1.6880  0.7548
   48CHL1   H7B 3491   4.604   4.597   6.724  2.0547  1.3978 -1.0939
   48CHL1    C8 3492   4.492   4.784   6.752 -0.4226  0.1769  1.0915
   48CHL1    H8 3493   4.386   4.811   6.732 -0.5194  0.3500  1.8207
   48CHL1   C14 3494   4.503   4.755   6.898 -0.1853  0.2659 -0.2468
   48CHL1   H14 3495   4.611   4.736   6.920 -0.1074  0.4439 -0.4768
   48CHL1   C15 3496   4.439   4.635   6.963  0.7983 -0.4038 -0.2058
   48CHL1  H15A 3497   4.332   4.625   6.934  0.4062  1.3263  0.5717
   48CHL1  H15B 3498   4.476   4.533   6.939 -1.0484 -0.7910 -1.5873
   48CHL1   C16 3499   4.459   4.667   7.113  0.4476  0.1991  0.1860
   48CHL1  H16A 3500   4.363   4.636   7.158 -0.4344  1.9780 -0.4451
   48CHL1  H16B 3501   4.542   4.601   7.147  0.5163 -0.9689 -2.0743
   48CHL1   C17 3502   4.501   4.812   7.131  0.2062  0.1739 -0.2328
   48CHL1   H17 3503   4.612   4.815   7.135  0.2965 -1.6788 -0.8531
   48CHL1   C13 3504   4.472   4.874   6.997 -0.0513 -0.1037  0.3508
   48CHL1   C18 3505   4.320   4.918   6.992 -0.4223 -0.0488 -0.7418
   48CHL1  H18A 3506   4.255   4.853   7.054 -1.3806  2.0105  0.4102
   48CHL1  H18B 3507   4.321   5.024   7.023 -0.8079  0.1326 -1.3521
   48CHL1  H18C 3508   4.280   4.920   6.888 -0.0293 -1.0850 -0.9230
   48CHL1   C12 3509   4.576   4.984   6.955  0.2147  0.5846 -0.3673
   48CHL1  H12A 3510   4.553   5.070   7.022  1.0627 -1.3614  2.5642
   48CHL1  H12B 3511   4.681   4.950   6.969 -0.4458 -0.9984  1.0074
   48CHL1   C11 3512   4.558   5.027   6.808  0.7381 -0.5198  0.3554
   48CHL1  H11A 3513   4.462   5.079   6.788  1.5495  1.1287  0.5744
   48CHL1  H11B 3514   4.643   5.098   6.795  0.1117  0.3325  0.8056
   48CHL1    C9 3515   4.580   4.897   6.712 -0.4983  0.1778  0.3162
   48CHL1    H9 3516   4.686   4.872   6.734 -0.8159  0.8983  2.8326
   48CHL1   C10 3517   4.561   4.926   6.560  0.3398 -0.4761  0.0153
   48CHL1   C19 3518   4.434   5.000   6.537  0.3693 -0.6715 -0.5348
   48CHL1  H19A 3519   4.448   5.104   6.572 -2.6948 -0.5209  0.3975
   48CHL1  H19B 3520   4.398   4.995   6.432 -2.8077  0.1845  0.4640
   48CHL1  H19C 3521   4.359   4.954   6.604 -0.3955  2.0990  0.5783
   48CHL1    C1 3522   4.690   5.003   6.499 -0.1873  0.2489 -0.3398
   48CHL1   H1A 3523   4.686   5.110   6.531 -0.2100 -0.0719  0.7760
   48CHL1   H1B 3524   4.777   4.967   6.558 -2.1362 -1.1202  1.8198
   48CHL1    C2 3525   4.714   5.008   6.346  0.4430 -1.2538 -0.2155
   48CHL1   H2A 3526   4.811   5.050   6.313  1.4466 -1.5637  2.2269
   48CHL1   H2B 3527   4.632   5.066   6.299 -0.4384 -2.3061  0.0030
   48CHL1   C20 3528   4.452   4.881   7.258  1.0704  0.3083 -0.7018
   48CHL1   H20 3529   4.355   4.931   7.236  0.3964  0.8654  3.1994
   48CHL1   C21 3530   4.554   4.990   7.293  0.0668 -0.1729 -0.0692
   48CHL1  H21A 3531   4.519   5.042   7.386  1.4573 -0.2327  0.4976
   48CHL1  H21B 3532   4.583   5.061   7.213  4.1862  2.0850  3.2169
   48CHL1  H21C 3533   4.648   4.935   7.314 -1.0843 -1.8234  0.9630
   48CHL1   C22 3534   4.448   4.781   7.379 -0.1763 -0.0045 -0.3749
   48CHL1  H22A 3535   4.377   4.696   7.366  0.2692 -0.2892 -0.9441
   48CHL1  H22B 3536   4.547   4.737   7.401  0.2860  1.1285 -0.1447
   48CHL1   C23 3537   4.397   4.846   7.516  0.2142  0.2134 -0.2493
   48CHL1  H23A 3538   4.476   4.914   7.553 -1.6549  2.2950  0.0199
   48CHL1  H23B 3539   4.303   4.897   7.485  0.5873  2.0918  1.6318
   48CHL1   C24 3540   4.371   4.735   7.622  0.7975 -0.0873 -0.4168
   48CHL1  H24A 3541   4.337   4.639   7.577  0.7445  0.9368 -2.6432
   48CHL1  H24B 3542   4.477   4.722   7.654  1.2781  0.0755 -1.8957
   48CHL1   C25 3543   4.294   4.777   7.745 -0.4381  0.7468 -0.3144
   48CHL1   H25 3544   4.338   4.875   7.774 -0.0578 -0.0476  1.9096
   48CHL1   C26 3545   4.145   4.803   7.709 -0.2022 -0.0793  0.1063
   48CHL1  H26A 3546   4.106   4.709   7.663 -1.5819  0.0500  0.9628
   48CHL1  H26B 3547   4.094   4.817   7.806 -0.8518  1.1126 -0.3951
   48CHL1  H26C 3548   4.135   4.895   7.646  0.4655 -0.7323 -0.9697
   48CHL1   C27 3549   4.300   4.682   7.862  0.5096 -0.6068  0.3994
   48CHL1  H27A 3550   4.406   4.659   7.886 -0.1319 -0.4212  3.6850
   48CHL1  H27B 3551   4.256   4.746   7.941  0.9825 -0.0439  0.2135
   48CHL1  H27C 3552   4.239   4.589   7.855 -0.5948  0.0187  1.4672
   49CHL1    C3 3553   3.575   6.070   6.619  0.6041 -0.5023  0.9742
   49CHL1    H3 3554   3.661   6.131   6.652  0.5815 -0.0471  0.1876
   49CHL1    O3 3555   3.581   6.062   6.475 -0.4709 -0.4182  0.2369
   49CHL1   H3' 3556   3.504   6.016   6.441  1.1248 -1.5389 -1.9965
   49CHL1    C4 3557   3.586   5.918   6.668  0.1914 -0.6164  0.6417
   49CHL1   H4A 3558   3.505   5.860   6.620  0.7136 -0.0835 -0.9221
   49CHL1   H4B 3559   3.671   5.866   6.619  0.2313 -0.0775  0.1270
   49CHL1    C5 3560   3.577   5.922   6.822 -0.0677  0.1777  0.7178
   49CHL1    C6 3561   3.669   5.860   6.898  0.1454 -0.6378 -0.3444
   49CHL1    H6 3562   3.738   5.796   6.842  0.1266 -0.8331 -0.1452
   49CHL1    C7 3563   3.667   5.846   7.049 -0.1873 -0.2656 -0.0920
   49CHL1   H7A 3564   3.685   5.739   7.072  2.4507  0.5245  1.7563
   49CHL1   H7B 3565   3.743   5.912   7.096  0.3627 -2.7496  2.6745
   49CHL1    C8 3566   3.524   5.871   7.105 -0.4926  0.0568  0.0728
   49CHL1    H8 3567   3.480   5.775   7.068  1.2168 -0.9918  0.6941
   49CHL1   C14 3568   3.520   5.887   7.253 -1.0569 -0.4430  0.1536
   49CHL1   H14 3569   3.574   5.981   7.273  3.7956 -2.8321 -1.0113
   49CHL1   C15 3570   3.599   5.784   7.342  0.7693  0.3766 -0.3284
   49CHL1  H15A 3571   3.587   5.680   7.304  2.9505 -1.6568  4.2075
   49CHL1  H15B 3572   3.705   5.818   7.347  0.7547  0.3533  0.1446
   49CHL1   C16 3573   3.526   5.804   7.476 -0.2483 -0.4683  0.2069
   49CHL1  H16A 3574   3.472   5.708   7.487  2.3699 -1.9564  0.2339
   49CHL1  H16B 3575   3.601   5.819   7.557 -0.5744  2.3495  0.0692
   49CHL1   C17 3576   3.418   5.922   7.461 -0.0936  0.1472 -0.3844
   49CHL1   H17 3577   3.478   6.014   7.473  0.6261 -0.4699  0.8686
   49CHL1   C13 3578   3.377   5.910   7.315 -0.2391  0.2242  0.0487
   49CHL1   C18 3579   3.274   5.789   7.287 -0.9943  0.6679  0.8529
   49CHL1  H18A 3580   3.290   5.706   7.359 -1.3099  0.0337  0.1979
   49CHL1  H18B 3581   3.166   5.816   7.299 -2.4881 -4.0394 -0.7134
   49CHL1  H18C 3582   3.290   5.753   7.183  1.6368  0.5353  1.2739
   49CHL1   C12 3583   3.323   6.044   7.249  0.2547  0.5218  0.3502
   49CHL1  H12A 3584   3.228   6.073   7.299  1.7127 -1.2850  4.4248
   49CHL1  H12B 3585   3.399   6.123   7.271  0.5402  0.6466 -1.0778
   49CHL1   C11 3586   3.314   6.025   7.102 -0.1703 -0.4747 -0.0123
   49CHL1  H11A 3587   3.244   5.947   7.066  0.8558 -0.2678 -2.5383
   49CHL1  H11B 3588   3.281   6.124   7.065 -0.8082 -0.8105 -0.3406
   49CHL1    C9 3589   3.452   5.993   7.040 -0.4982 -0.1011 -0.5733
   49CHL1    H9 3590   3.517   6.080   7.062  1.5595 -1.3530 -1.5357
   49CHL1   C10 3591   3.449   5.994   6.882  0.4472 -0.2661  0.0087
   49CHL1   C19 3592   3.339   5.905   6.825 -0.0283  0.4609 -0.4470
   49CHL1  H19A 3593   3.334   5.900   6.714 -1.1140 -0.2359 -0.3629
   49CHL1  H19B 3594   3.343   5.804   6.871  1.4532  1.0395  0.7722
   49CHL1  H19C 3595   3.239   5.943   6.853 -0.0758 -1.3951  2.0949
   49CHL1    C1 3596   3.428   6.132   6.821 -0.1015 -0.2344  0.4547
   49CHL1   H1A 3597   3.341   6.197   6.848  0.5229 -0.5714  3.4038
   49CHL1   H1B 3598   3.513   6.194   6.856  0.5688  0.9607 -3.0657
   49CHL1    C2 3599   3.443   6.137   6.664  0.0132 -0.2333  0.2357
   49CHL1   H2A 3600   3.429   6.236   6.616  3.6187  0.0831 -0.3461
   49CHL1   H2B 3601   3.362   6.079   6.615  1.3125 -0.7828 -1.3231
   49CHL1   C20 3602   3.311   5.937   7.568 -0.0475  0.2072 -0.0354
   49CHL1   H20 3603   3.224   5.877   7.534  0.9076 -0.8867 -0.5756
   49CHL1   C21 3604   3.259   6.089   7.577 -0.6162  0.0722  0.6676
   49CHL1  H21A 3605   3.207   6.115   7.671  0.8333 -0.9538  1.7636
   49CHL1  H21B 3606   3.184   6.102   7.495 -0.4238 -0.2307  0.4423
   49CHL1  H21C 3607   3.338   6.165   7.561  0.3538 -0.2302  3.8491
   49CHL1   C22 3608   3.358   5.894   7.714 -0.2282 -0.2398  0.3362
   49CHL1  H22A 3609   3.447   5.958   7.732 -0.8784  0.4022  1.3505
   49CHL1  H22B 3610   3.288   5.928   7.793 -0.6741 -0.4135  0.0159
   49CHL1   C23 3611   3.363   5.746   7.742  0.2308 -0.1147  1.1620
   49CHL1  H23A 3612   3.269   5.709   7.696  0.4139  1.0207 -0.1697
   49CHL1  H23B 3613   3.446   5.697   7.688  0.0848  0.5869  0.2970
   49CHL1   C24 3614   3.370   5.699   7.889 -0.0642 -0.3547  0.5867
   49CHL1  H24A 3615   3.276   5.713   7.947 -0.9486  0.6531 -1.0381
   49CHL1  H24B 3616   3.388   5.590   7.881  2.2573  0.0171  0.3924
   49CHL1   C25 3617   3.489   5.750   7.971  0.0634  0.4334 -0.3673
   49CHL1   H25 3618   3.473   5.860   7.976 -0.2548  0.3893 -0.4212
   49CHL1   C26 3619   3.489   5.704   8.112  0.2886  0.6688 -0.2794
   49CHL1  H26A 3620   3.564   5.758   8.174  1.0163 -1.2623  0.5697
   49CHL1  H26B 3621   3.386   5.719   8.152  0.5886 -1.0520  1.2376
   49CHL1  H26C 3622   3.506   5.594   8.124 -0.3895  0.5912  0.0160
   49CHL1   C27 3623   3.629   5.721   7.906 -0.5555  0.2546  0.1614
   49CHL1  H27A 3624   3.641   5.766   7.805  3.3550 -2.9930 -0.9827
   49CHL1  H27B 3625   3.710   5.770   7.966  0.7773 -1.4873 -0.1618
   49CHL1  H27C 3626   3.660   5.616   7.887  2.6856  0.9713  1.0282
   50CHL1    C3 3627   3.916   0.684   6.891  0.1869  0.2724  0.3934
   50CHL1    H3 3628   3.894   0.790   6.916  0.8642  0.9751 -1.9162
   50CHL1    O3 3629   3.890   0.661   6.757  0.4870 -0.3512 -0.0853
   50CHL1   H3' 3630   3.941   0.731   6.715 -0.1767 -0.1122 -0.5004
   50CHL1    C4 3631   4.059   0.656   6.926  0.0266  0.2675  0.1872
   50CHL1   H4A 3632   4.083   0.558   6.879 -1.1794 -0.2623  0.6671
   50CHL1   H4B 3633   4.120   0.731   6.872 -0.3271  0.7734  0.4906
   50CHL1    C5 3634   4.076   0.651   7.078 -0.3279 -0.7222 -0.5732
   50CHL1    C6 3635   4.176   0.718   7.128  0.6892  0.6764 -0.1746
   50CHL1    H6 3636   4.251   0.759   7.058  0.2414  0.2921 -0.8837
   50CHL1    C7 3637   4.215   0.738   7.276 -0.8705  0.0269 -0.0737
   50CHL1   H7A 3638   4.326   0.731   7.281 -0.9360 -0.5389  0.6048
   50CHL1   H7B 3639   4.192   0.840   7.312 -2.3277 -0.0556 -0.7465
   50CHL1    C8 3640   4.132   0.641   7.363 -0.7691  0.1588 -0.5375
   50CHL1    H8 3641   4.176   0.539   7.354 -0.5708  0.2268 -0.3512
   50CHL1   C14 3642   4.119   0.682   7.507  0.4856  0.4317  0.7568
   50CHL1   H14 3643   4.078   0.785   7.514  0.9367  0.5471  1.7180
   50CHL1   C15 3644   4.258   0.710   7.565 -0.2638 -0.5435  0.4028
   50CHL1  H15A 3645   4.328   0.625   7.558  1.2138  0.6101  0.9817
   50CHL1  H15B 3646   4.291   0.799   7.508 -1.4628 -0.4675 -0.1913
   50CHL1   C16 3647   4.219   0.729   7.715 -0.3124  0.1260  0.0998
   50CHL1  H16A 3648   4.287   0.677   7.786 -1.4242  1.6563  2.3546
   50CHL1  H16B 3649   4.205   0.836   7.743 -1.3194  0.2140 -0.6933
   50CHL1   C17 3650   4.077   0.658   7.734  1.0954 -0.2320  0.6886
   50CHL1   H17 3651   4.000   0.739   7.740  0.4475 -0.6734 -1.2982
   50CHL1   C13 3652   4.047   0.592   7.601  1.1128  0.1279  0.5453
   50CHL1   C18 3653   4.110   0.448   7.601  0.0028  0.3703 -0.6511
   50CHL1  H18A 3654   4.105   0.403   7.500  1.2581 -0.4485 -0.3593
   50CHL1  H18B 3655   4.216   0.450   7.634  0.0555 -1.3238 -0.7093
   50CHL1  H18C 3656   4.062   0.367   7.660 -1.7854 -0.5241 -3.2788
   50CHL1   C12 3657   3.895   0.578   7.557 -0.4131  0.4288  0.5043
   50CHL1  H12A 3658   3.835   0.498   7.606  2.3335 -1.4213  0.9993
   50CHL1  H12B 3659   3.851   0.679   7.574 -1.7868  0.1980 -1.5614
   50CHL1   C11 3660   3.891   0.539   7.417 -0.2837 -0.3219  0.1293
   50CHL1  H11A 3661   3.921   0.435   7.394  0.5241 -0.0537 -0.0556
   50CHL1  H11B 3662   3.785   0.550   7.387  0.1732  0.3444 -1.2956
   50CHL1    C9 3663   3.987   0.628   7.317 -0.2428 -0.4698  0.1568
   50CHL1    H9 3664   3.937   0.727   7.324  0.4946  0.0956 -1.9716
   50CHL1   C10 3665   3.975   0.587   7.169  0.1871  0.1190 -0.0971
   50CHL1   C19 3666   4.019   0.436   7.152  0.4431 -0.0372 -0.8914
   50CHL1  H19A 3667   4.123   0.407   7.178  0.1108 -1.8213 -1.4806
   50CHL1  H19B 3668   3.949   0.366   7.203  0.4892  1.4728  1.2969
   50CHL1  H19C 3669   4.010   0.410   7.044 -1.4102  1.1960 -1.0691
   50CHL1    C1 3670   3.832   0.620   7.120  0.3031  0.2195 -0.4241
   50CHL1   H1A 3671   3.757   0.559   7.174  1.4563 -2.8899 -2.1497
   50CHL1   H1B 3672   3.813   0.727   7.142 -1.6461 -0.4577  1.3145
   50CHL1    C2 3673   3.818   0.600   6.970  0.7107  0.2909  0.6904
   50CHL1   H2A 3674   3.720   0.629   6.927  0.2291 -0.9541  0.9503
   50CHL1   H2B 3675   3.829   0.492   6.947 -0.7217  0.1442  0.6719
   50CHL1   C20 3676   4.056   0.586   7.863 -0.4917 -0.1352 -0.0296
   50CHL1   H20 3677   4.128   0.501   7.872  0.3348 -0.1383 -5.0498
   50CHL1   C21 3678   3.919   0.519   7.867  0.1503  0.1852 -0.6511
   50CHL1  H21A 3679   3.902   0.439   7.792  0.4835  1.0873 -1.7127
   50CHL1  H21B 3680   3.849   0.603   7.847 -0.6418  0.0670  1.5164
   50CHL1  H21C 3681   3.895   0.484   7.969 -2.2018  0.9834 -0.9019
   50CHL1   C22 3682   4.058   0.682   7.986  0.9591 -0.3095  0.2445
   50CHL1  H22A 3683   4.152   0.742   7.992 -0.0347  1.3502 -0.3449
   50CHL1  H22B 3684   3.973   0.754   7.978  0.3670 -0.8538  1.5988
   50CHL1   C23 3685   4.035   0.629   8.132 -0.1933  0.2647  0.5150
   50CHL1  H23A 3686   3.942   0.569   8.131  0.6428 -1.0576  0.3008
   50CHL1  H23B 3687   4.116   0.565   8.175  1.7687  0.7765 -2.2414
   50CHL1   C24 3688   4.011   0.736   8.238 -0.0240  0.2852  0.8492
   50CHL1  H24A 3689   4.105   0.796   8.244  1.9791 -2.7878  0.8920
   50CHL1  H24B 3690   3.921   0.794   8.207 -0.1626  0.5837  1.7894
   50CHL1   C25 3691   3.974   0.681   8.377 -0.2856 -0.6509 -0.3810
   50CHL1   H25 3692   3.884   0.617   8.369 -0.6637 -0.4698  2.0175
   50CHL1   C26 3693   4.087   0.590   8.431  0.3288  0.1274  0.1643
   50CHL1  H26A 3694   4.106   0.497   8.373  0.4749  0.0581  0.3248
   50CHL1  H26B 3695   4.177   0.654   8.443  0.1916  0.2545  0.5206
   50CHL1  H26C 3696   4.043   0.549   8.524  2.4342 -2.2636  0.1687
   50CHL1   C27 3697   3.943   0.794   8.478  0.6361  0.3152  0.6106
   50CHL1  H27A 3698   3.837   0.827   8.470  0.3623 -0.0730  2.4435
   50CHL1  H27B 3699   3.953   0.762   8.583  0.6278 -1.4144  0.0993
   50CHL1  H27C 3700   4.012   0.879   8.461  0.0113  0.6439 -0.3814
   51CHL1    C3 3701   3.867   6.390   7.037  0.3434  0.6206 -0.2697
   51CHL1    H3 3702   3.844   6.489   7.083 -1.4219 -1.4303  3.4375
   51CHL1    O3 3703   3.875   6.400   6.895  0.3613  0.2035  0.0437
   51CHL1   H3' 3704   3.930   6.325   6.869  0.4787 -0.9886  3.4983
   51CHL1    C4 3705   3.997   6.333   7.096 -0.9489  0.6027 -0.0046
   51CHL1   H4A 3706   4.008   6.236   7.043  0.5840 -0.1191  1.5891
   51CHL1   H4B 3707   4.087   6.396   7.077 -1.0373  1.5167  2.4044
   51CHL1    C5 3708   3.978   6.321   7.252  0.1657 -0.6882  0.0799
   51CHL1    C6 3709   4.058   6.389   7.333 -0.3570 -0.7959  0.2621
   51CHL1    H6 3710   4.131   6.450   7.277 -0.9959 -2.1445 -2.1070
   51CHL1    C7 3711   4.050   6.393   7.479 -0.1524  0.5422  0.1306
   51CHL1   H7A 3712   4.149   6.381   7.527 -0.8131  0.4318  1.4802
   51CHL1   H7B 3713   4.014   6.495   7.503 -2.4235  0.7115 -3.5464
   51CHL1    C8 3714   3.962   6.266   7.535 -1.1091 -0.4950 -0.3445
   51CHL1    H8 3715   4.020   6.172   7.521 -2.4742 -1.3219 -0.4983
   51CHL1   C14 3716   3.930   6.283   7.683 -0.3248  0.2595 -0.3090
   51CHL1   H14 3717   3.869   6.375   7.693 -1.4656 -0.3916 -1.2167
   51CHL1   C15 3718   4.043   6.301   7.792  0.0494 -0.3040 -0.3297
   51CHL1  H15A 3719   4.130   6.240   7.757  2.2819  2.0861  0.8928
   51CHL1  H15B 3720   4.066   6.410   7.788 -0.1014 -0.2664 -0.1917
   51CHL1   C16 3721   3.982   6.264   7.924 -0.3639  0.4325  0.1767
   51CHL1  H16A 3722   4.048   6.181   7.956  0.4951  0.8248 -0.5562
   51CHL1  H16B 3723   3.987   6.350   7.994 -1.1953  1.5180 -1.0660
   51CHL1   C17 3724   3.834   6.221   7.896 -0.5988  0.2771  0.0056
   51CHL1   H17 3725   3.773   6.313   7.907 -2.7038 -1.2203  1.0306
   51CHL1   C13 3726   3.838   6.178   7.745 -0.1060  0.5554  0.7165
   51CHL1   C18 3727   3.909   6.036   7.742 -0.6285 -0.3211 -0.1226
   51CHL1  H18A 3728   3.987   6.022   7.821 -1.3347 -2.0219  0.3140
   51CHL1  H18B 3729   3.831   5.958   7.749 -0.5160 -0.3133  1.6680
   51CHL1  H18C 3730   3.960   6.023   7.644  0.2188 -0.3122  0.3126
   51CHL1   C12 3731   3.705   6.186   7.666  0.7242 -0.3590  0.0780
   51CHL1  H12A 3732   3.629   6.110   7.693 -1.8869  2.9213  2.3337
   51CHL1  H12B 3733   3.650   6.282   7.670  0.4017 -0.4776 -1.3141
   51CHL1   C11 3734   3.728   6.164   7.511 -0.4319 -0.0755  0.2849
   51CHL1  H11A 3735   3.764   6.059   7.499  0.3481  0.0510  1.3751
   51CHL1  H11B 3736   3.637   6.184   7.451  0.8588 -0.1709 -1.7548
   51CHL1    C9 3737   3.834   6.256   7.454 -0.0009  0.0826 -0.2583
   51CHL1    H9 3738   3.791   6.356   7.478 -1.7256 -0.3884 -1.2709
   51CHL1   C10 3739   3.857   6.237   7.300 -0.0257  0.8514 -0.2454
   51CHL1   C19 3740   3.894   6.090   7.274  0.2378  0.1309 -0.3841
   51CHL1  H19A 3741   3.799   6.034   7.292  1.2172 -1.4149  0.0856
   51CHL1  H19B 3742   3.915   6.066   7.168 -0.7925  1.5372 -0.9218
   51CHL1  H19C 3743   3.972   6.042   7.338  0.0990 -0.5863 -0.7413
   51CHL1    C1 3744   3.732   6.285   7.225  0.3895  0.0085  0.0556
   51CHL1   H1A 3745   3.646   6.219   7.247  1.0478 -0.6688  0.6125
   51CHL1   H1B 3746   3.704   6.386   7.263 -0.1160  0.2615 -0.9732
   51CHL1    C2 3747   3.751   6.296   7.073  0.2372  0.6489 -0.1635
   51CHL1   H2A 3748   3.665   6.350   7.029 -0.4167 -0.8063 -0.6938
   51CHL1   H2B 3749   3.761   6.199   7.020 -1.4645 -0.1122  0.8583
   51CHL1   C20 3750   3.766   6.125   8.008 -0.1376  0.2665  1.1599
   51CHL1   H20 3751   3.811   6.024   8.001 -0.7497  0.0927 -0.3460
   51CHL1   C21 3752   3.613   6.110   7.994  0.2384 -0.0906 -0.1920
   51CHL1  H21A 3753   3.578   6.027   8.059 -1.9554 -0.6269 -2.0240
   51CHL1  H21B 3754   3.577   6.089   7.891  1.8979  4.1155 -1.7526
   51CHL1  H21C 3755   3.573   6.210   8.022  0.3353  0.5674 -2.3467
   51CHL1   C22 3756   3.791   6.180   8.153 -0.8301  0.0528 -0.2561
   51CHL1  H22A 3757   3.800   6.291   8.149  2.5766 -0.1631 -0.2316
   51CHL1  H22B 3758   3.708   6.130   8.206  0.1863  0.9737  2.2939
   51CHL1   C23 3759   3.921   6.135   8.222 -0.9809  0.2146  0.3251
   51CHL1  H23A 3760   4.006   6.130   8.151 -0.8740  2.1118  0.3098
   51CHL1  H23B 3761   3.952   6.201   8.305  1.4165 -0.6231  0.1429
   51CHL1   C24 3762   3.915   5.989   8.266 -0.6880 -0.2478  0.0596
   51CHL1  H24A 3763   3.820   5.977   8.322 -1.3896 -0.7792 -1.2344
   51CHL1  H24B 3764   3.919   5.922   8.177 -0.3599 -1.2198  0.7934
   51CHL1   C25 3765   4.034   5.950   8.352 -0.3736  0.1284 -0.3169
   51CHL1   H25 3766   4.046   6.035   8.423  1.0390 -0.8107  0.5963
   51CHL1   C26 3767   3.993   5.828   8.429  0.4134 -0.5922  0.3506
   51CHL1  H26A 3768   3.885   5.839   8.454  0.1548  0.8059 -1.3305
   51CHL1  H26B 3769   3.993   5.732   8.373 -4.4364  0.3254 -1.4511
   51CHL1  H26C 3770   4.065   5.820   8.513  1.7543  2.2933 -0.4639
   51CHL1   C27 3771   4.161   5.925   8.273  0.0223  0.0998  0.2955
   51CHL1  H27A 3772   4.186   6.015   8.214  0.5163  0.8533  1.6110
   51CHL1  H27B 3773   4.244   5.897   8.342  1.3167 -1.6878 -1.9194
   51CHL1  H27C 3774   4.155   5.837   8.206 -0.4927  1.9256 -2.0933
   52CHL1    C3 3775   5.753   0.071   6.954 -0.7464 -0.5251 -0.0263
   52CHL1    H3 3776   5.790   0.174   6.967 -1.1276 -0.5821  1.5832
   52CHL1    O3 3777   5.713   0.061   6.816 -0.1937  0.2335 -0.2222
   52CHL1   H3' 3778   5.728  -0.029   6.786 -0.9452  0.6144 -1.8298
   52CHL1    C4 3779   5.872  -0.022   6.962 -0.8047  1.5129 -0.0904
   52CHL1   H4A 3780   5.836  -0.120   6.924  2.9809 -0.4135  1.0138
   52CHL1   H4B 3781   5.943   0.030   6.895 -1.5230  1.1637 -1.1301
   52CHL1    C5 3782   5.922  -0.043   7.104 -0.1038 -0.2552  0.1699
   52CHL1    C6 3783   6.055  -0.029   7.128  0.3143 -0.7605  0.8082
   52CHL1    H6 3784   6.126  -0.005   7.047  0.5994 -0.0864  1.2544
   52CHL1    C7 3785   6.119  -0.040   7.264 -0.0283 -0.1423 -0.4509
   52CHL1   H7A 3786   6.221  -0.082   7.253  0.0531  0.5592 -2.6599
   52CHL1   H7B 3787   6.137   0.062   7.305 -0.5340  0.4531 -1.6744
   52CHL1    C8 3788   6.031  -0.128   7.360  0.1994  0.3811  0.4974
   52CHL1    H8 3789   6.027  -0.222   7.302 -0.7936  0.9913 -0.4451
   52CHL1   C14 3790   6.080  -0.125   7.503  0.1808 -0.6953 -0.7706
   52CHL1   H14 3791   6.076  -0.017   7.531 -1.1717 -1.2277  1.1895
   52CHL1   C15 3792   6.225  -0.170   7.510  0.3683  0.0757 -0.0820
   52CHL1  H15A 3793   6.231  -0.256   7.440  1.1328  0.3980 -0.4258
   52CHL1  H15B 3794   6.302  -0.104   7.464  1.1533 -1.8832 -1.6555
   52CHL1   C16 3795   6.246  -0.182   7.660 -0.0189  0.1077  0.4965
   52CHL1  H16A 3796   6.288  -0.283   7.681 -1.2093 -0.0428  2.2083
   52CHL1  H16B 3797   6.315  -0.099   7.688 -0.7281  0.6706  0.5604
   52CHL1   C17 3798   6.098  -0.181   7.722 -0.3291  0.3003 -0.1691
   52CHL1   H17 3799   6.071  -0.079   7.757 -2.3864 -0.1738 -0.3450
   52CHL1   C13 3800   6.004  -0.209   7.608 -0.2145 -0.5737  0.3262
   52CHL1   C18 3801   6.004  -0.360   7.568 -0.1299  0.1926  0.0156
   52CHL1  H18A 3802   6.109  -0.398   7.568 -0.0806  0.3324  0.2109
   52CHL1  H18B 3803   5.949  -0.407   7.652  1.1379 -0.7842  0.3307
   52CHL1  H18C 3804   5.953  -0.375   7.471 -0.9006 -0.2003  0.4826
   52CHL1   C12 3805   5.869  -0.147   7.606 -0.0762 -0.7110 -0.9784
   52CHL1  H12A 3806   5.803  -0.210   7.669 -0.2211 -0.0231 -0.4314
   52CHL1  H12B 3807   5.871  -0.043   7.645  1.8785 -0.8497 -0.6611
   52CHL1   C11 3808   5.798  -0.144   7.469 -0.4026 -0.1711 -0.5248
   52CHL1  H11A 3809   5.785  -0.251   7.441 -0.9523 -0.1370 -0.4093
   52CHL1  H11B 3810   5.693  -0.111   7.483 -1.1601 -2.6154 -0.2980
   52CHL1    C9 3811   5.885  -0.073   7.360  0.1579 -0.6200 -0.5325
   52CHL1    H9 3812   5.897   0.033   7.389  0.6531 -1.2684  1.7321
   52CHL1   C10 3813   5.815  -0.070   7.215  0.4426  0.3098  0.5283
   52CHL1   C19 3814   5.765  -0.213   7.183 -0.2136  0.3489  0.4480
   52CHL1  H19A 3815   5.685  -0.240   7.256  0.2137  0.1929  0.8564
   52CHL1  H19B 3816   5.733  -0.234   7.079 -2.6005 -0.3396  1.2831
   52CHL1  H19C 3817   5.843  -0.288   7.204  0.1282  1.0885  1.9321
   52CHL1    C1 3818   5.688   0.028   7.193 -0.3465  0.5681 -0.1676
   52CHL1   H1A 3819   5.619  -0.009   7.273  0.8996 -1.4782  0.0108
   52CHL1   H1B 3820   5.719   0.122   7.243  0.7880  0.5494 -0.8248
   52CHL1    C2 3821   5.636   0.035   7.046 -0.4288  0.1998  0.0925
   52CHL1   H2A 3822   5.561   0.117   7.051 -0.5670  0.1983 -1.5875
   52CHL1   H2B 3823   5.590  -0.064   7.023  2.4882 -1.4893  1.3091
   52CHL1   C20 3824   6.085  -0.271   7.851  0.0566  0.1635  0.3007
   52CHL1   H20 3825   6.109  -0.371   7.809  1.6488  0.8979 -0.5958
   52CHL1   C21 3826   5.937  -0.277   7.909  0.1913  0.0884  0.7502
   52CHL1  H21A 3827   5.857  -0.301   7.835  1.0510  1.0818 -0.5319
   52CHL1  H21B 3828   5.920  -0.173   7.942  1.3734 -0.6802  3.9243
   52CHL1  H21C 3829   5.927  -0.357   7.986  2.4265 -2.6874 -1.7148
   52CHL1   C22 3830   6.188  -0.240   7.970  0.2899  0.0301  0.3052
   52CHL1  H22A 3831   6.292  -0.237   7.929  0.3741 -0.8308  0.4432
   52CHL1  H22B 3832   6.159  -0.145   8.020  2.6910 -0.1403  2.1302
   52CHL1   C23 3833   6.197  -0.355   8.070 -0.2450  0.1860  0.1875
   52CHL1  H23A 3834   6.097  -0.376   8.113  0.0058  0.2165  0.7972
   52CHL1  H23B 3835   6.233  -0.446   8.016 -0.3368  1.1968 -1.6170
   52CHL1   C24 3836   6.289  -0.319   8.184  0.1073  0.4647 -0.1712
   52CHL1  H24A 3837   6.397  -0.316   8.157  0.6668  0.8543  1.9752
   52CHL1  H24B 3838   6.265  -0.214   8.211  0.7787  0.8735 -1.1326
   52CHL1   C25 3839   6.287  -0.416   8.310  0.3776 -0.6109 -0.2641
   52CHL1   H25 3840   6.374  -0.385   8.372 -0.1840  1.8368 -0.6526
   52CHL1   C26 3841   6.165  -0.390   8.400  0.6096 -0.2794  0.1966
   52CHL1  H26A 3842   6.168  -0.298   8.462 -1.2668 -0.3321  0.3791
   52CHL1  H26B 3843   6.064  -0.398   8.355  0.4308 -0.2761  0.5933
   52CHL1  H26C 3844   6.179  -0.474   8.471  0.6605 -0.4813 -0.0509
   52CHL1   C27 3845   6.302  -0.566   8.263  0.0610  0.2053  0.2798
   52CHL1  H27A 3846   6.204  -0.618   8.257  1.2964 -1.9974 -1.6203
   52CHL1  H27B 3847   6.368  -0.572   8.174 -0.2922 -0.3132  0.0513
   52CHL1  H27C 3848   6.355  -0.615   8.348 -0.2712 -0.4759  0.0981
   53CHL1    C3 3849   1.512   3.779   7.021 -0.5931 -0.4244 -1.1324
   53CHL1    H3 3850   1.415   3.728   7.043  0.6336 -2.7359 -0.8874
   53CHL1    O3 3851   1.541   3.771   6.881  0.1838  0.9653 -0.8216
   53CHL1   H3' 3852   1.626   3.812   6.865  0.9081 -0.6259 -1.0876
   53CHL1    C4 3853   1.501   3.927   7.058 -0.5175 -0.1656  0.2994
   53CHL1   H4A 3854   1.595   3.973   7.022 -0.3281 -0.6470  0.1689
   53CHL1   H4B 3855   1.420   3.974   6.999 -0.8148 -0.7779  0.2157
   53CHL1    C5 3856   1.460   3.942   7.203 -0.3070 -0.5525 -0.0588
   53CHL1    C6 3857   1.345   3.994   7.235  0.7709 -0.2614 -0.6341
   53CHL1    H6 3858   1.279   4.032   7.155  0.5018  1.3625  0.3321
   53CHL1    C7 3859   1.297   4.009   7.376  0.6196 -0.5503 -0.6854
   53CHL1   H7A 3860   1.256   4.112   7.385 -1.2196 -1.3199 -0.0984
   53CHL1   H7B 3861   1.231   3.926   7.409 -0.2121 -0.2841 -1.6680
   53CHL1    C8 3862   1.423   4.005   7.472 -0.3016 -0.3775 -0.3909
   53CHL1    H8 3863   1.489   4.094   7.465  0.4576 -0.7960  1.3397
   53CHL1   C14 3864   1.375   3.989   7.616 -1.0713  0.7686  0.5240
   53CHL1   H14 3865   1.329   3.888   7.623 -1.0047  0.3945 -3.4078
   53CHL1   C15 3866   1.267   4.094   7.659  0.3221  0.5645  0.2716
   53CHL1  H15A 3867   1.282   4.192   7.609 -0.0074  0.0269 -0.8984
   53CHL1  H15B 3868   1.169   4.050   7.631  0.8910 -1.1914  0.9793
   53CHL1   C16 3869   1.292   4.098   7.816 -0.1457 -0.2073  1.0930
   53CHL1  H16A 3870   1.312   4.203   7.845  1.0249 -0.0853 -0.1385
   53CHL1  H16B 3871   1.195   4.061   7.855  0.4606  1.0419  3.9485
   53CHL1   C17 3872   1.402   3.997   7.851  0.3355 -0.0060 -0.6515
   53CHL1   H17 3873   1.358   3.895   7.849  0.1502  0.0059  1.6644
   53CHL1   C13 3874   1.485   3.993   7.727 -0.2625 -0.3971 -0.0263
   53CHL1   C18 3875   1.555   4.124   7.715  0.5931  0.1086 -0.3304
   53CHL1  H18A 3876   1.502   4.220   7.735 -1.1683 -1.2457  1.6079
   53CHL1  H18B 3877   1.632   4.104   7.792  0.5717  1.1677 -0.0220
   53CHL1  H18C 3878   1.612   4.130   7.619  2.3245 -4.7734  0.2494
   53CHL1   C12 3879   1.571   3.867   7.703  0.2116  0.0422  0.5988
   53CHL1  H12A 3880   1.663   3.872   7.765 -1.9493 -0.5448  3.9293
   53CHL1  H12B 3881   1.515   3.776   7.734  0.9058 -1.2597 -1.8274
   53CHL1   C11 3882   1.618   3.849   7.551  0.4640  0.3884 -0.3416
   53CHL1  H11A 3883   1.703   3.921   7.546 -0.4190  1.7806  3.3557
   53CHL1  H11B 3884   1.664   3.748   7.546 -1.4185 -0.5268  0.4593
   53CHL1    C9 3885   1.512   3.881   7.441  0.0274 -0.2317  0.4173
   53CHL1    H9 3886   1.442   3.795   7.452  1.2279 -1.5509 -2.0248
   53CHL1   C10 3887   1.563   3.883   7.297  0.4243 -0.4115 -0.6233
   53CHL1   C19 3888   1.698   3.956   7.293 -0.7791 -0.0693  0.3611
   53CHL1  H19A 3889   1.767   3.888   7.347  1.0245  0.2896 -1.4520
   53CHL1  H19B 3890   1.737   3.960   7.189  0.3763  1.0458  0.8306
   53CHL1  H19C 3891   1.686   4.056   7.339  0.6544  2.2624 -4.0648
   53CHL1    C1 3892   1.583   3.734   7.251  0.2483 -0.0593 -0.0549
   53CHL1   H1A 3893   1.660   3.688   7.316  3.7277  1.7777 -2.7268
   53CHL1   H1B 3894   1.486   3.683   7.269 -0.3112 -0.0662 -2.7698
   53CHL1    C2 3895   1.625   3.722   7.102 -0.8121  0.8419  0.1890
   53CHL1   H2A 3896   1.641   3.613   7.086  0.1569  0.9750  0.2268
   53CHL1   H2B 3897   1.724   3.767   7.082 -0.9619  1.9415  1.8372
   53CHL1   C20 3898   1.473   4.024   7.989 -0.0582  0.1298 -0.5217
   53CHL1   H20 3899   1.536   4.116   7.978 -0.6052  0.3097 -2.2152
   53CHL1   C21 3900   1.581   3.915   8.017 -0.5590  0.7048  0.5724
   53CHL1  H21A 3901   1.612   3.902   8.123  0.0191 -0.8805  0.2176
   53CHL1  H21B 3902   1.672   3.939   7.959  0.1828  0.0209  1.4429
   53CHL1  H21C 3903   1.536   3.816   7.996 -1.0262  1.2382 -1.0029
   53CHL1   C22 3904   1.383   4.058   8.110 -0.3920  0.0132  0.2110
   53CHL1  H22A 3905   1.448   4.076   8.199  0.5399 -0.5333 -0.3620
   53CHL1  H22B 3906   1.321   4.150   8.103  1.1369  1.0450  0.0384
   53CHL1   C23 3907   1.289   3.946   8.147  0.6326  0.1855 -0.1549
   53CHL1  H23A 3908   1.221   3.933   8.060 -1.5706  2.1812  1.2125
   53CHL1  H23B 3909   1.341   3.848   8.158 -0.1350 -0.1419  0.5859
   53CHL1   C24 3910   1.193   3.971   8.269  0.1652 -0.1855  0.5151
   53CHL1  H24A 3911   1.262   3.988   8.355 -0.6190 -0.4753  1.2027
   53CHL1  H24B 3912   1.140   4.067   8.251 -2.2248 -1.9384 -2.2905
   53CHL1   C25 3913   1.098   3.864   8.308  0.0174 -0.7169  0.3776
   53CHL1   H25 3914   1.038   3.837   8.218 -0.0623 -1.6772  0.7135
   53CHL1   C26 3915   1.147   3.723   8.356  0.0971  0.6101 -0.0014
   53CHL1  H26A 3916   1.067   3.646   8.357 -0.6864  1.3723 -1.6392
   53CHL1  H26B 3917   1.231   3.694   8.289  0.1143  2.1737 -0.6843
   53CHL1  H26C 3918   1.180   3.749   8.459 -1.8560 -0.4282  0.9066
   53CHL1   C27 3919   0.995   3.927   8.406 -0.1715 -0.6520 -0.2995
   53CHL1  H27A 3920   1.027   3.947   8.510 -0.5936 -1.2902 -0.0476
   53CHL1  H27B 3921   0.954   4.024   8.368 -0.9770  0.1352  2.4777
   53CHL1  H27C 3922   0.905   3.863   8.420 -1.1344  0.4088 -1.4825
   54CHL1    C3 3923   2.302   5.447   7.094  0.4202 -0.2033 -0.4909
   54CHL1    H3 3924   2.201   5.464   7.137  0.6110 -1.7321  0.5972
   54CHL1    O3 3925   2.298   5.448   6.956 -0.0912 -0.3724 -0.5843
   54CHL1   H3' 3926   2.286   5.539   6.926  1.2223 -0.1148 -0.3496
   54CHL1    C4 3927   2.398   5.553   7.151  0.4992 -0.0501 -0.0237
   54CHL1   H4A 3928   2.491   5.547   7.090  0.7362  0.8914  0.2306
   54CHL1   H4B 3929   2.364   5.654   7.120 -0.4183  0.1612  1.6065
   54CHL1    C5 3930   2.419   5.562   7.304 -1.0772  1.2065 -0.0059
   54CHL1    C6 3931   2.412   5.678   7.374  0.0252  0.2097  0.1737
   54CHL1    H6 3932   2.396   5.771   7.317  0.0876 -0.6369 -1.2501
   54CHL1    C7 3933   2.428   5.682   7.520  0.0066  0.3063  0.0319
   54CHL1   H7A 3934   2.477   5.775   7.555 -1.2513  1.3912 -1.0410
   54CHL1   H7B 3935   2.324   5.704   7.553 -0.0257  1.5018 -0.8160
   54CHL1    C8 3936   2.469   5.547   7.589  0.2576 -0.1556  0.1217
   54CHL1    H8 3937   2.579   5.531   7.589  0.1170 -1.2095 -0.1073
   54CHL1   C14 3938   2.432   5.551   7.733 -0.0372  0.2252  0.2058
   54CHL1   H14 3939   2.322   5.552   7.746  0.2232 -1.9288  3.0039
   54CHL1   C15 3940   2.481   5.666   7.819  0.0865  0.4615 -0.7635
   54CHL1  H15A 3941   2.586   5.697   7.800  0.1855  0.6881  0.0976
   54CHL1  H15B 3942   2.424   5.761   7.811  0.3125  0.6565 -0.1027
   54CHL1   C16 3943   2.468   5.609   7.956 -0.5422 -0.0175  0.4826
   54CHL1  H16A 3944   2.571   5.603   7.999  0.3635  0.3630 -1.5689
   54CHL1  H16B 3945   2.400   5.668   8.020 -1.2780 -0.4308  0.0866
   54CHL1   C17 3946   2.423   5.464   7.944 -0.4983  0.9754 -0.1273
   54CHL1   H17 3947   2.312   5.455   7.934 -0.6821  2.0904  0.7621
   54CHL1   C13 3948   2.465   5.420   7.803  0.4624 -0.3382 -0.2423
   54CHL1   C18 3949   2.610   5.385   7.804 -0.2945  0.4392  0.0573
   54CHL1  H18A 3950   2.646   5.347   7.706 -0.7446 -0.3873  0.2026
   54CHL1  H18B 3951   2.681   5.457   7.850 -0.1283  0.5183 -0.3215
   54CHL1  H18C 3952   2.613   5.296   7.871  0.2265 -0.1586 -0.7407
   54CHL1   C12 3953   2.390   5.300   7.733  0.3002 -0.1971 -0.6385
   54CHL1  H12A 3954   2.405   5.201   7.781 -2.7002  0.8273  2.5669
   54CHL1  H12B 3955   2.282   5.324   7.739  0.6082  0.7932  1.1459
   54CHL1   C11 3956   2.418   5.290   7.586  0.9856 -0.2534 -0.1303
   54CHL1  H11A 3957   2.522   5.251   7.583  1.1642  0.0807  1.3072
   54CHL1  H11B 3958   2.345   5.219   7.543  0.0235 -0.9031  2.4526
   54CHL1    C9 3959   2.399   5.429   7.523  0.1050 -0.6498  0.2047
   54CHL1    H9 3960   2.290   5.449   7.525  0.3005  0.4922  0.1732
   54CHL1   C10 3961   2.431   5.421   7.364  0.3603  0.5678 -0.2064
   54CHL1   C19 3962   2.572   5.369   7.346  0.1521 -0.2318  0.6092
   54CHL1  H19A 3963   2.593   5.334   7.243  2.2018 -1.7064  1.4890
   54CHL1  H19B 3964   2.649   5.444   7.377  1.5912 -1.3105 -0.2706
   54CHL1  H19C 3965   2.593   5.281   7.411  0.1381 -0.4949  0.2587
   54CHL1    C1 3966   2.326   5.318   7.297 -0.6491 -0.3709 -0.1126
   54CHL1   H1A 3967   2.355   5.223   7.345 -0.4149 -0.0848  0.3199
   54CHL1   H1B 3968   2.221   5.346   7.324 -0.4641  1.2248 -1.0020
   54CHL1    C2 3969   2.338   5.315   7.141  0.2799  0.4814 -0.3250
   54CHL1   H2A 3970   2.260   5.247   7.103 -1.3595  1.7353  0.7391
   54CHL1   H2B 3971   2.441   5.286   7.111 -0.7831 -2.0146 -1.6980
   54CHL1   C20 3972   2.437   5.381   8.070  0.0446 -0.1917 -0.6184
   54CHL1   H20 3973   2.543   5.349   8.062 -0.4140 -2.2488  1.0675
   54CHL1   C21 3974   2.339   5.265   8.082  0.2346  0.0193  0.2005
   54CHL1  H21A 3975   2.370   5.194   8.162  0.6514 -0.8417 -0.7256
   54CHL1  H21B 3976   2.324   5.222   7.981  1.4564  2.7634 -1.2054
   54CHL1  H21C 3977   2.237   5.304   8.104  0.6444  1.4576 -0.3402
   54CHL1   C22 3978   2.434   5.464   8.198 -0.1395  0.6520  0.9208
   54CHL1  H22A 3979   2.505   5.550   8.201 -0.5626  0.9614  3.2544
   54CHL1  H22B 3980   2.340   5.515   8.228 -0.4884 -1.5639  3.8790
   54CHL1   C23 3981   2.475   5.376   8.317  0.1144 -0.6530 -0.2006
   54CHL1  H23A 3982   2.403   5.294   8.336  0.1974 -0.0617  2.8520
   54CHL1  H23B 3983   2.563   5.321   8.280  1.2886 -1.1492  3.1733
   54CHL1   C24 3984   2.518   5.449   8.446 -0.0390  0.0373  0.1389
   54CHL1  H24A 3985   2.602   5.514   8.413 -1.2691  1.5618 -0.0700
   54CHL1  H24B 3986   2.442   5.515   8.492  0.7670 -1.2435  3.4237
   54CHL1   C25 3987   2.576   5.368   8.567  0.0030 -0.2362  0.3373
   54CHL1   H25 3988   2.597   5.438   8.650  0.8801  0.9368 -0.8666
   54CHL1   C26 3989   2.476   5.265   8.619  0.5053 -0.0655 -0.3396
   54CHL1  H26A 3990   2.524   5.208   8.701  1.5821 -1.1439 -1.6856
   54CHL1  H26B 3991   2.379   5.307   8.653 -0.4871 -3.3157  1.0093
   54CHL1  H26C 3992   2.460   5.193   8.536 -3.8252 -1.4670  1.5836
   54CHL1   C27 3993   2.712   5.312   8.526 -0.1135  0.0874  1.0934
   54CHL1  H27A 3994   2.770   5.385   8.466 -0.5336  2.4896  3.4962
   54CHL1  H27B 3995   2.775   5.289   8.614  2.0857  0.0913 -0.4298
   54CHL1  H27C 3996   2.715   5.221   8.462  1.5564  1.1460 -0.3849
   55CHL1    C3 3997   2.132   6.749   6.878  0.5501  0.3870 -0.1894
   55CHL1    H3 3998   2.234   6.793   6.880  1.2704 -1.2670  0.3182
   55CHL1    O3 3999   2.116   6.688   6.754  0.3310 -0.3919  0.0578
   55CHL1   H3' 4000   2.030   6.644   6.759  0.0329  0.2841  1.2102
   55CHL1    C4 4001   2.111   6.628   6.977  0.8012  0.9580  0.1173
   55CHL1   H4A 4002   2.014   6.583   6.946  1.9766 -0.9755 -0.7831
   55CHL1   H4B 4003   2.189   6.551   6.963 -0.6758 -0.7455  1.1567
   55CHL1    C5 4004   2.111   6.690   7.120  0.4664  0.2676  0.0532
   55CHL1    C6 4005   2.206   6.653   7.209 -0.0231 -0.8788 -0.8192
   55CHL1    H6 4006   2.276   6.572   7.185  0.8132 -0.4980  0.2648
   55CHL1    C7 4007   2.209   6.712   7.350 -0.2198 -0.6797 -0.2303
   55CHL1   H7A 4008   2.237   6.634   7.424 -0.8440 -0.3685  0.3429
   55CHL1   H7B 4009   2.291   6.786   7.361  0.3530 -1.4149  0.5244
   55CHL1    C8 4010   2.072   6.777   7.391 -0.3190  0.6337 -0.0415
   55CHL1    H8 4011   1.999   6.696   7.408 -0.2949  1.1150  2.4070
   55CHL1   C14 4012   2.099   6.867   7.514 -0.0431 -0.2457  0.9186
   55CHL1   H14 4013   2.170   6.949   7.488 -1.0132  0.6660  1.1281
   55CHL1   C15 4014   2.173   6.811   7.636 -0.6373  0.1585  0.2746
   55CHL1  H15A 4015   2.139   6.708   7.659 -1.0524  0.2190 -0.0499
   55CHL1  H15B 4016   2.279   6.801   7.604 -0.5506 -1.4386  0.9868
   55CHL1   C16 4017   2.140   6.914   7.745  0.3717 -0.0876 -0.6140
   55CHL1  H16A 4018   2.097   6.867   7.837 -1.9658 -0.1597 -1.7065
   55CHL1  H16B 4019   2.229   6.960   7.792  0.0684 -2.0007  1.9775
   55CHL1   C17 4020   2.032   7.017   7.691 -0.3725  0.2148  0.1026
   55CHL1   H17 4021   2.095   7.097   7.646  2.1405 -0.7796  1.7532
   55CHL1   C13 4022   1.975   6.946   7.557  0.1472 -0.1781  0.1856
   55CHL1   C18 4023   1.868   6.847   7.600  0.7669 -0.2695  0.6224
   55CHL1  H18A 4024   1.838   6.774   7.522 -0.0899 -0.6638  1.3187
   55CHL1  H18B 4025   1.908   6.784   7.682  1.1289 -0.6059  0.1880
   55CHL1  H18C 4026   1.765   6.880   7.622  0.7619 -0.7089  1.2637
   55CHL1   C12 4027   1.921   7.038   7.446  1.0321  0.1558  0.0076
   55CHL1  H12A 4028   1.827   7.093   7.471  1.3836 -0.3852  2.6923
   55CHL1  H12B 4029   2.000   7.112   7.423 -0.3999  1.7395  0.0160
   55CHL1   C11 4030   1.893   6.953   7.330  0.0587 -0.1567  0.1765
   55CHL1  H11A 4031   1.825   6.866   7.340  1.1022 -1.2047 -1.5692
   55CHL1  H11B 4032   1.866   7.025   7.250 -2.0196  0.3416  1.2903
   55CHL1    C9 4033   2.016   6.867   7.282  0.3569  0.9217  0.3810
   55CHL1    H9 4034   2.088   6.948   7.260 -0.7385  1.2934 -1.8873
   55CHL1   C10 4035   1.997   6.793   7.137  0.0543 -0.4155  0.3090
   55CHL1   C19 4036   1.860   6.715   7.143  0.0576 -0.2763  0.6466
   55CHL1  H19A 4037   1.839   6.674   7.043  1.2384 -2.7978  1.3987
   55CHL1  H19B 4038   1.862   6.640   7.225  1.1489 -1.1505 -0.1716
   55CHL1  H19C 4039   1.785   6.797   7.149  0.3880  0.2740 -2.1366
   55CHL1    C1 4040   2.000   6.908   7.030 -0.0601  0.5734  1.0288
   55CHL1   H1A 4041   1.907   6.969   7.025  0.4427  1.2180 -1.3539
   55CHL1   H1B 4042   2.084   6.977   7.055  0.7890 -0.7838  1.9735
   55CHL1    C2 4043   2.026   6.853   6.887 -0.3431 -1.0592  0.4388
   55CHL1   H2A 4044   2.058   6.947   6.838  0.8292 -0.9331  1.4276
   55CHL1   H2B 4045   1.937   6.820   6.830 -0.5546 -2.4354  1.5313
   55CHL1   C20 4046   1.945   7.084   7.798  0.5043  0.5547 -0.3896
   55CHL1   H20 4047   1.882   7.007   7.848  0.3581  0.9814  0.0920
   55CHL1   C21 4048   1.848   7.171   7.723  0.7847 -0.6872  0.4341
   55CHL1  H21A 4049   1.777   7.110   7.663 -2.2823  1.5260  1.6883
   55CHL1  H21B 4050   1.903   7.241   7.657  0.5071 -0.3769  0.5298
   55CHL1  H21C 4051   1.779   7.228   7.789 -0.7507 -1.4227 -0.5069
   55CHL1   C22 4052   2.033   7.148   7.903 -0.0481 -0.1801 -0.2158
   55CHL1  H22A 4053   2.138   7.169   7.872  0.4602  0.6142  1.9108
   55CHL1  H22B 4054   1.983   7.242   7.931  0.6567  0.5491 -1.3606
   55CHL1   C23 4055   2.049   7.066   8.029  0.6435 -0.6517  0.4194
   55CHL1  H23A 4056   1.955   7.011   8.051 -0.4790 -0.6046 -3.7867
   55CHL1  H23B 4057   2.136   6.997   8.029  0.3169 -1.1199  2.5947
   55CHL1   C24 4058   2.085   7.153   8.152 -0.3531  0.2790 -1.1894
   55CHL1  H24A 4059   2.180   7.209   8.133 -0.1253 -0.6788 -3.0458
   55CHL1  H24B 4060   2.003   7.225   8.174  0.5057  0.5310  1.2537
   55CHL1   C25 4061   2.116   7.070   8.282  0.5329  0.1907 -0.2133
   55CHL1   H25 4062   2.195   6.995   8.257 -0.3082 -0.6439 -0.3804
   55CHL1   C26 4063   2.150   7.159   8.403 -0.4266  0.8235 -0.6614
   55CHL1  H26A 4064   2.064   7.226   8.427  0.1995  1.1345  0.7468
   55CHL1  H26B 4065   2.167   7.098   8.494 -0.2290  1.1050 -0.5080
   55CHL1  H26C 4066   2.242   7.214   8.372  0.3591  0.5613  1.1260
   55CHL1   C27 4067   1.991   6.981   8.325  0.4760  0.2577  0.3020
   55CHL1  H27A 4068   2.007   6.929   8.422  0.1036 -0.7490 -0.1711
   55CHL1  H27B 4069   1.900   7.045   8.329  0.6722  0.4278  2.6494
   55CHL1  H27C 4070   1.958   6.905   8.251  0.4084 -0.1294  0.7321
   56CHL1    C3 4071   1.470   5.555   6.960 -0.4575 -0.1302 -0.1731
   56CHL1    H3 4072   1.565   5.498   6.969 -0.5723 -0.3220 -0.1738
   56CHL1    O3 4073   1.444   5.582   6.824 -0.4189 -0.5853  0.4098
   56CHL1   H3' 4074   1.421   5.675   6.817 -0.2417 -0.5809 -0.0904
   56CHL1    C4 4075   1.352   5.486   7.024  0.5782  0.0943 -1.0255
   56CHL1   H4A 4076   1.259   5.544   7.009  0.3157 -0.4838 -1.6337
   56CHL1   H4B 4077   1.349   5.386   6.977 -0.5239 -1.1846  1.6644
   56CHL1    C5 4078   1.375   5.468   7.177 -0.0578 -0.2164 -0.6014
   56CHL1    C6 4079   1.383   5.345   7.231 -0.3150 -0.1494 -0.1084
   56CHL1    H6 4080   1.375   5.258   7.163 -0.7602 -1.1695  1.2295
   56CHL1    C7 4081   1.412   5.330   7.378 -0.1261  0.7220 -0.0135
   56CHL1   H7A 4082   1.364   5.243   7.427  1.5261 -0.0272  0.3180
   56CHL1   H7B 4083   1.522   5.317   7.387 -0.1746  1.1642  1.4050
   56CHL1    C8 4084   1.365   5.455   7.462  0.3681  0.4867  0.5499
   56CHL1    H8 4085   1.255   5.474   7.465  0.1717 -0.6533  0.5435
   56CHL1   C14 4086   1.407   5.434   7.610 -0.2326 -0.7990 -0.7395
   56CHL1   H14 4087   1.517   5.419   7.602 -0.1586 -0.7941  0.2877
   56CHL1   C15 4088   1.352   5.310   7.684  0.0461 -0.4118 -0.6577
   56CHL1  H15A 4089   1.241   5.306   7.675 -0.2391 -0.0121  2.1643
   56CHL1  H15B 4090   1.414   5.229   7.641 -0.3387 -1.6458  1.0643
   56CHL1   C16 4091   1.384   5.340   7.833 -0.0586 -0.9654 -0.1083
   56CHL1  H16A 4092   1.286   5.331   7.885  1.1842 -1.8271  2.1455
   56CHL1  H16B 4093   1.447   5.270   7.892 -1.5402 -2.0138  0.2460
   56CHL1   C17 4094   1.443   5.487   7.840  0.7619  0.2208  0.4690
   56CHL1   H17 4095   1.553   5.483   7.831  0.5825  2.7378 -4.9091
   56CHL1   C13 4096   1.391   5.548   7.709  0.0125 -0.3999 -0.2901
   56CHL1   C18 4097   1.242   5.587   7.721  0.5398  0.6956  0.1738
   56CHL1  H18A 4098   1.178   5.503   7.757  1.7685 -0.8487 -1.2095
   56CHL1  H18B 4099   1.227   5.665   7.799 -0.0371  1.3006 -0.5298
   56CHL1  H18C 4100   1.215   5.612   7.616 -0.5040 -3.6372 -0.6881
   56CHL1   C12 4101   1.475   5.666   7.649 -0.2939 -0.9242 -0.2556
   56CHL1  H12A 4102   1.466   5.762   7.704 -1.0830 -1.0860 -0.0982
   56CHL1  H12B 4103   1.581   5.637   7.665 -0.0918  0.7714  1.7258
   56CHL1   C11 4104   1.447   5.700   7.500 -0.5604 -0.1362 -0.1660
   56CHL1  H11A 4105   1.348   5.751   7.508 -0.4712  0.2251 -1.3079
   56CHL1  H11B 4106   1.511   5.780   7.456 -1.5838  1.5670  1.3895
   56CHL1    C9 4107   1.446   5.578   7.406  0.7940  0.1376 -0.5323
   56CHL1    H9 4108   1.550   5.540   7.399  0.5658 -0.9811  1.5091
   56CHL1   C10 4109   1.405   5.599   7.256  0.3135  0.0549  0.3028
   56CHL1   C19 4110   1.285   5.689   7.252 -0.4039  0.3223  0.0272
   56CHL1  H19A 4111   1.274   5.736   7.152  0.2705 -0.0210 -0.2136
   56CHL1  H19B 4112   1.195   5.629   7.276 -0.6116  0.3769 -0.6049
   56CHL1  H19C 4113   1.290   5.778   7.318 -0.6576 -2.0962  3.4021
   56CHL1    C1 4114   1.524   5.668   7.189  0.2833 -0.3956  0.8511
   56CHL1   H1A 4115   1.538   5.767   7.238 -2.3084  1.5019 -2.0490
   56CHL1   H1B 4116   1.613   5.603   7.203  0.2095 -0.5838  0.4467
   56CHL1    C2 4117   1.509   5.685   7.032  0.0808 -0.0547 -0.3697
   56CHL1   H2A 4118   1.607   5.718   6.991  0.0232  0.1035 -0.3807
   56CHL1   H2B 4119   1.442   5.773   7.019 -0.0484  0.0335  0.8265
   56CHL1   C20 4120   1.406   5.553   7.974 -0.0699 -0.4333 -0.2779
   56CHL1   H20 4121   1.299   5.581   7.983  0.3671  1.3141 -0.4842
   56CHL1   C21 4122   1.469   5.702   7.989  0.2148  0.5544  0.1853
   56CHL1  H21A 4123   1.419   5.741   8.080  0.7226  1.2870  0.1494
   56CHL1  H21B 4124   1.432   5.751   7.897 -0.5918 -0.4081 -0.0148
   56CHL1  H21C 4125   1.579   5.692   7.984  0.1161 -1.2537  1.3162
   56CHL1   C22 4126   1.454   5.469   8.094 -0.9688 -0.1568  0.2358
   56CHL1  H22A 4127   1.503   5.374   8.062  0.9497  0.9525 -0.2475
   56CHL1  H22B 4128   1.534   5.533   8.138  0.1409 -0.0939 -1.7944
   56CHL1   C23 4129   1.342   5.440   8.188  0.0950 -0.6964 -0.0087
   56CHL1  H23A 4130   1.277   5.520   8.229  1.4971 -0.2791  1.4573
   56CHL1  H23B 4131   1.274   5.377   8.127 -0.2410 -1.1923  0.8612
   56CHL1   C24 4132   1.386   5.353   8.310  0.0146 -0.6982  0.4577
   56CHL1  H24A 4133   1.481   5.298   8.297  2.0341  2.7099  0.2961
   56CHL1  H24B 4134   1.398   5.421   8.398  0.0129  0.1364 -0.1766
   56CHL1   C25 4135   1.280   5.246   8.343  0.2213  0.4546  0.5931
   56CHL1   H25 4136   1.257   5.184   8.253 -2.4378  1.7776  0.2958
   56CHL1   C26 4137   1.339   5.157   8.456 -0.4564  0.5229 -0.2109
   56CHL1  H26A 4138   1.321   5.194   8.560  2.4075 -0.7350  0.7762
   56CHL1  H26B 4139   1.448   5.137   8.447 -0.8318 -1.8040 -0.0731
   56CHL1  H26C 4140   1.274   5.067   8.446 -1.4731  1.3167 -0.9165
   56CHL1   C27 4141   1.160   5.306   8.409  0.4866  0.2915 -0.2363
   56CHL1  H27A 4142   1.099   5.368   8.341 -1.1668  0.6633  1.5103
   56CHL1  H27B 4143   1.094   5.226   8.451  1.0993 -1.0443 -1.8011
   56CHL1  H27C 4144   1.189   5.375   8.492  2.6500 -1.1396  0.2405
   57SAPC     N 4145   0.405   2.348  11.098  0.2139  0.5189  0.1434
   57SAPC   C12 4146   0.258   2.386  11.091 -0.6169 -0.2125 -0.6052
   57SAPC  H12A 4147   0.247   2.490  11.117  2.2568 -0.1679  0.5950
   57SAPC  H12B 4148   0.201   2.349  11.175 -0.1583  1.0308  0.2550
   57SAPC   C13 4149   0.424   2.206  11.059 -0.5108 -0.3165  0.0506
   57SAPC  H13A 4150   0.391   2.202  10.956  0.5390 -2.8314 -0.2243
   57SAPC  H13B 4151   0.521   2.160  11.074 -0.0490  0.8213  0.5818
   57SAPC  H13C 4152   0.346   2.154  11.112 -1.6943  1.4550  0.0472
   57SAPC   C14 4153   0.479   2.440  10.999 -0.0444  0.0975 -0.6760
   57SAPC  H14A 4154   0.431   2.536  10.996  2.0352  1.1031 -2.2700
   57SAPC  H14B 4155   0.581   2.450  11.031  0.0894 -2.4245 -0.1818
   57SAPC  H14C 4156   0.482   2.398  10.900 -0.5357 -0.0244 -0.6423
   57SAPC   C15 4157   0.448   2.381  11.241  0.2148 -0.0193  0.4994
   57SAPC  H15A 4158   0.376   2.358  11.318  0.1557 -1.9262 -0.0978
   57SAPC  H15B 4159   0.532   2.319  11.268  1.4329  1.5701  0.4854
   57SAPC  H15C 4160   0.491   2.479  11.256  3.4235 -1.4600  1.1385
   57SAPC   C11 4161   0.166   2.353  10.965 -0.8713 -0.3571 -0.1413
   57SAPC  H11A 4162   0.219   2.396  10.878 -3.1025  2.3110 -0.2460
   57SAPC  H11B 4163   0.073   2.413  10.964 -0.6167  0.0920  1.2126
   57SAPC     P 4164   0.088   2.164  10.827  0.3611  0.0645 -0.0116
   57SAPC   O13 4165   0.072   2.018  10.834  0.4699 -0.2518  0.5596
   57SAPC   O14 4166  -0.032   2.237  10.792  0.5852 -0.4174  0.2435
   57SAPC   O12 4167   0.156   2.210  10.958 -0.5393  0.0903  0.8089
   57SAPC   O11 4168   0.189   2.196  10.707 -0.1128 -0.1648  0.0371
   57SAPC    C1 4169   0.316   2.121  10.694  0.5063  0.3601 -1.2702
   57SAPC    HA 4170   0.400   2.193  10.690 -0.4266  1.5717  0.4110
   57SAPC    HB 4171   0.335   2.042  10.770  2.4696 -0.8203 -2.9382
   57SAPC    C2 4172   0.315   2.052  10.557 -0.6493 -0.5247 -0.2393
   57SAPC    HS 4173   0.266   1.954  10.576 -0.1868 -1.3486 -3.0138
   57SAPC   O21 4174   0.446   2.024  10.513 -0.3009  0.3837  0.6134
   57SAPC   C21 4175   0.510   1.935  10.584 -0.4249 -0.1694 -0.2241
   57SAPC   O22 4176   0.457   1.869  10.672  0.3090  0.4254 -0.2738
   57SAPC   C22 4177   0.650   1.952  10.548 -0.2012 -0.0165  0.7313
   57SAPC   H2R 4178   0.670   2.020  10.462  0.2147 -0.3082  0.5949
   57SAPC   H2S 4179   0.705   1.996  10.634  2.5808 -0.8986 -0.5166
   57SAPC    C3 4180   0.250   2.138  10.447 -0.0963 -0.5763 -0.5627
   57SAPC    HX 4181   0.313   2.230  10.456 -2.2366  0.8094  0.8491
   57SAPC    HY 4182   0.147   2.172  10.474  1.2139  1.3231  2.3359
   57SAPC   O31 4183   0.262   2.088  10.314  0.5570  0.2237 -0.2352
   57SAPC   C31 4184   0.144   2.048  10.258 -0.1028  0.4879  0.0402
   57SAPC   O32 4185   0.041   2.026  10.319  0.4594  0.4850  0.5999
   57SAPC   C32 4186   0.165   2.027  10.112 -0.1224 -0.4279  0.1093
   57SAPC   H2X 4187   0.268   2.059  10.083 -1.0186  1.0057 -1.5652
   57SAPC   H2Y 4188   0.083   2.085  10.065 -2.3147 -1.6605  2.2800
   57SAPC   C23 4189   0.714   1.814  10.518 -0.3445 -0.6809  0.0011
   57SAPC   H3R 4190   0.676   1.734  10.584  0.1864 -0.3774  0.6784
   57SAPC   H3S 4191   0.823   1.810  10.540 -0.3715  0.6711  0.4172
   57SAPC   C24 4192   0.722   1.786  10.366  0.1924  0.7419  0.7033
   57SAPC   H4R 4193   0.778   1.691  10.351 -0.5204  0.5066 -0.5245
   57SAPC   H4S 4194   0.786   1.867  10.323  1.0620 -1.1156 -1.6001
   57SAPC   C25 4195   0.590   1.759  10.296 -0.3439  0.1578 -0.8214
   57SAPC   H5R 4196   0.522   1.691  10.350  1.0210 -1.2921 -0.9088
   57SAPC   C26 4197   0.548   1.827  10.183 -0.6150  0.5903 -0.6018
   57SAPC   H6R 4198   0.451   1.799  10.142 -1.4286  1.2082  0.8545
   57SAPC   C27 4199   0.624   1.938  10.103 -0.0457  0.6314 -0.6507
   57SAPC   H7R 4200   0.607   1.934   9.993 -3.9675 -0.3391 -0.0639
   57SAPC   H7S 4201   0.734   1.922  10.111 -0.2126 -0.6798 -0.8485
   57SAPC   C28 4202   0.594   2.081  10.154  0.1826  0.2862 -0.1453
   57SAPC   H8R 4203   0.561   2.091  10.259 -1.1076  4.5886 -0.8668
   57SAPC   C29 4204   0.606   2.194  10.077 -0.2347  0.0700  0.1158
   57SAPC   H9R 4205   0.592   2.298  10.110  2.4299  0.3274  0.5786
   57SAPC  C210 4206   0.654   2.182   9.929 -0.1671 -0.1503 -0.4841
   57SAPC  H10R 4207   0.622   2.271   9.871 -0.1393  1.3000  1.6750
   57SAPC  H10S 4208   0.592   2.101   9.884 -1.1747  0.9464 -1.0848
   57SAPC  C211 4209   0.806   2.158   9.918  0.2379 -0.0273  0.4798
   57SAPC  H11R 4210   0.856   2.159  10.016 -0.0663 -1.0998  0.6425
   57SAPC  C212 4211   0.881   2.139   9.804  0.0067 -0.8291  0.6964
   57SAPC  H12R 4212   0.988   2.115   9.820 -0.2688 -1.4618  1.6651
   57SAPC  C213 4213   0.836   2.129   9.658  0.6827  0.3046  0.6869
   57SAPC  H13R 4214   0.892   2.203   9.598 -1.4400  1.3690 -0.0303
   57SAPC  H13S 4215   0.730   2.161   9.645  0.9432  1.3182  1.0055
   57SAPC  C214 4216   0.842   1.991   9.596  0.3730 -0.1059 -0.4852
   57SAPC  H14R 4217   0.813   1.907   9.660 -2.1057 -0.3950 -1.9076
   57SAPC  C215 4218   0.880   1.961   9.467 -0.4210  0.0732 -0.3156
   57SAPC  H15R 4219   0.858   1.862   9.426  1.0462 -1.0767  1.5869
   57SAPC  C216 4220   0.932   2.057   9.364 -0.2796  0.2263  0.0755
   57SAPC  H16R 4221   1.042   2.059   9.378 -0.4948 -1.7024  2.2765
   57SAPC  H16S 4222   0.896   2.161   9.378 -0.3310 -0.1046  2.5559
   57SAPC  C217 4223   0.899   2.003   9.217  0.6334 -0.6974 -1.0587
   57SAPC  H17R 4224   0.921   1.895   9.204 -1.9238 -1.5305  1.1584
   57SAPC  H17S 4225   0.973   2.053   9.151  1.6443 -1.5703 -0.6057
   57SAPC  C218 4226   0.758   2.031   9.180  0.5265 -0.5397  0.7561
   57SAPC  H18R 4227   0.747   2.139   9.206 -0.1097  0.0350 -1.8104
   57SAPC  H18S 4228   0.682   1.982   9.245 -0.9861  1.7083  0.7440
   57SAPC  C219 4229   0.734   1.999   9.036 -0.0334 -0.0022 -0.1656
   57SAPC  H19R 4230   0.762   1.892   9.022  0.8520  0.2007  0.0393
   57SAPC  H19S 4231   0.804   2.063   8.978  1.1343 -1.1007  0.0057
   57SAPC  C220 4232   0.585   2.020   8.995 -0.2888 -0.6555  0.3050
   57SAPC  H20R 4233   0.578   2.023   8.884 -1.5645 -3.8466  0.2519
   57SAPC  H20S 4234   0.555   2.120   9.033 -0.4196 -0.6216  0.1170
   57SAPC  H20T 4235   0.521   1.937   9.031  0.0359 -1.0364  0.0062
   57SAPC   C33 4236   0.156   1.884  10.058  0.4077  0.0357  0.3004
   57SAPC   H3X 4237   0.057   1.848  10.094 -1.1013  2.8473 -0.9142
   57SAPC   H3Y 4238   0.233   1.814  10.096  1.8199  0.8573 -1.0025
   57SAPC   C34 4239   0.167   1.875   9.907  0.3629 -0.0210  0.6368
   57SAPC   H4X 4240   0.125   1.967   9.861 -1.8788  0.1453  2.8936
   57SAPC   H4Y 4241   0.106   1.788   9.874  1.1229 -0.5982  0.7521
   57SAPC   C35 4242   0.311   1.864   9.863 -0.2202 -0.1232 -0.5410
   57SAPC   H5X 4243   0.367   1.774   9.898  1.0629 -0.0041 -2.1962
   57SAPC   H5Y 4244   0.362   1.954   9.902 -1.1464 -0.0981  0.6167
   57SAPC   C36 4245   0.330   1.871   9.709 -0.7394 -0.0876  0.2150
   57SAPC   H6X 4246   0.433   1.911   9.696 -0.5612 -0.1373  1.4042
   57SAPC   H6Y 4247   0.253   1.934   9.659 -0.3674  0.7895  0.7451
   57SAPC   C37 4248   0.310   1.738   9.627  0.8458  0.5572  0.0163
   57SAPC   H7X 4249   0.216   1.683   9.653  2.2025 -1.7050  0.2678
   57SAPC   H7Y 4250   0.389   1.667   9.658 -0.2341 -0.4148  0.6029
   57SAPC   C38 4251   0.302   1.762   9.477  0.1424 -0.1103 -0.1157
   57SAPC   H8X 4252   0.379   1.833   9.441  1.0242  0.5355  2.9233
   57SAPC   H8Y 4253   0.203   1.810   9.463  0.4545  0.8706  0.9630
   57SAPC   C39 4254   0.291   1.636   9.390 -0.3524  0.1730 -0.9312
   57SAPC   H9X 4255   0.200   1.576   9.411  0.8682 -1.1313  0.7688
   57SAPC   H9Y 4256   0.377   1.570   9.418 -0.4964 -0.3012 -1.5877
   57SAPC  C310 4257   0.301   1.661   9.240  0.7249 -0.5222  0.5035
   57SAPC  H10X 4258   0.406   1.686   9.215  0.5981 -0.7850 -0.2939
   57SAPC  H10Y 4259   0.234   1.748   9.227 -2.2767 -2.7625  0.3738
   57SAPC  C311 4260   0.243   1.554   9.160 -0.0370  0.6834  0.1674
   57SAPC  H11X 4261   0.143   1.526   9.199  0.4809 -2.2268 -0.4872
   57SAPC  H11Y 4262   0.305   1.461   9.160  0.4512  0.9949  1.6389
   57SAPC  C312 4263   0.221   1.592   9.006  0.5002  0.6932  0.4267
   57SAPC  H12X 4264   0.317   1.614   8.954  0.0510  0.9806 -0.2985
   57SAPC  H12Y 4265   0.159   1.684   8.994 -2.4532 -1.2232  0.5736
   57SAPC  C313 4266   0.172   1.472   8.922  0.1116 -0.0780  0.4722
   57SAPC  H13X 4267   0.064   1.474   8.946  0.1742  2.6531  0.7329
   57SAPC  H13Y 4268   0.213   1.372   8.946 -0.0842 -0.8687 -2.3309
   57SAPC  C314 4269   0.198   1.499   8.776 -0.3090 -0.2304  0.7165
   57SAPC  H14X 4270   0.305   1.504   8.749 -0.8421 -3.6503 -2.5784
   57SAPC  H14Y 4271   0.152   1.596   8.748  1.7963  0.8149  0.8300
   57SAPC  C315 4272   0.120   1.398   8.681 -0.0286  0.4688  0.2816
   57SAPC  H15X 4273   0.009   1.398   8.686 -0.0286  3.4943  1.1424
   57SAPC  H15Y 4274   0.155   1.295   8.702 -0.1202  0.8437  2.4245
   57SAPC  C316 4275   0.145   1.442   8.538  0.0244  0.1496 -0.4148
   57SAPC  H16X 4276   0.253   1.445   8.514 -0.0851  1.2699 -0.7958
   57SAPC  H16Y 4277   0.108   1.546   8.541 -0.5184 -0.0335 -0.6583
   57SAPC  C317 4278   0.081   1.372   8.419 -0.4504 -0.5154 -0.5724
   57SAPC  H17X 4279   0.122   1.428   8.332  0.2905  0.7317  0.5678
   57SAPC  H17Y 4280  -0.027   1.400   8.412 -0.1443  0.4149 -1.7980
   57SAPC  C318 4281   0.094   1.219   8.391  1.0296 -0.5972 -0.0828
   57SAPC  H18X 4282   0.201   1.191   8.400  1.5189  1.3501  0.2683
   57SAPC  H18Y 4283   0.042   1.182   8.299 -0.8060 -0.3265  0.8152
   57SAPC  H18Z 4284   0.038   1.162   8.468  0.0038  1.7741  0.9787
   58SAPC     N 4285   2.916   0.743  10.776 -0.4989  0.0748 -0.0837
   58SAPC   C12 4286   2.886   0.707  10.631 -0.0294 -0.6299 -0.4090
   58SAPC  H12A 4287   2.976   0.715  10.571  0.4795 -1.3623  0.2384
   58SAPC  H12B 4288   2.831   0.781  10.575  0.2878 -1.0778 -1.3189
   58SAPC   C13 4289   3.005   0.644  10.838 -0.0411  0.2956 -0.1587
   58SAPC  H13A 4290   3.108   0.647  10.803 -0.3665 -2.4475 -1.4795
   58SAPC  H13B 4291   3.007   0.645  10.946  0.4695  0.5941 -0.1668
   58SAPC  H13C 4292   2.969   0.546  10.814  0.1668  0.5713 -1.6236
   58SAPC   C14 4293   2.987   0.885  10.786  0.0649 -0.0531  0.1537
   58SAPC  H14A 4294   3.077   0.889  10.726 -0.7560  0.2827 -1.0671
   58SAPC  H14B 4295   2.931   0.967  10.743 -0.2391 -2.4681 -4.3901
   58SAPC  H14C 4296   3.010   0.899  10.890 -2.5234  0.0509  0.7286
   58SAPC   C15 4297   2.786   0.751  10.852 -0.1334  0.1693 -0.6498
   58SAPC  H15A 4298   2.741   0.653  10.844 -0.8092  0.4938 -0.8784
   58SAPC  H15B 4299   2.807   0.771  10.956  0.8845 -1.9599 -0.4311
   58SAPC  H15C 4300   2.716   0.824  10.812 -0.4000 -0.0264 -0.5442
   58SAPC   C11 4301   2.824   0.575  10.605 -0.3611  0.0902 -0.1784
   58SAPC  H11A 4302   2.792   0.574  10.498  2.1537 -0.3313 -0.9737
   58SAPC  H11B 4303   2.731   0.569  10.665 -0.0546  1.3989  0.4201
   58SAPC     P 4304   2.924   0.328  10.565  0.1216  0.3679  0.2647
   58SAPC   O13 4305   3.041   0.253  10.628 -0.7553  0.1248  0.2327
   58SAPC   O14 4306   2.790   0.266  10.564  0.1925  0.1584  0.1280
   58SAPC   O12 4307   2.913   0.465  10.638 -0.0732 -0.6843  0.6809
   58SAPC   O11 4308   2.960   0.362  10.414 -0.5860  0.3344 -0.4435
   58SAPC    C1 4309   2.990   0.253  10.325 -0.6215  0.3007 -0.3208
   58SAPC    HA 4310   2.960   0.156  10.370 -0.4733  0.2003 -0.4397
   58SAPC    HB 4311   2.930   0.259  10.232  3.1807  0.7797 -2.8130
   58SAPC    C2 4312   3.140   0.254  10.282 -0.8623 -0.2378  0.2158
   58SAPC    HS 4313   3.205   0.276  10.370  1.5353 -0.1230 -1.5278
   58SAPC   O21 4314   3.156   0.362  10.188 -0.2825  0.9653  0.7373
   58SAPC   C21 4315   3.275   0.413  10.166 -0.7024 -0.1680 -0.9720
   58SAPC   O22 4316   3.377   0.371  10.221 -0.2301  0.1550  0.5336
   58SAPC   C22 4317   3.271   0.526  10.075  0.0084 -0.0173  0.7794
   58SAPC   H2R 4318   3.170   0.556  10.040  0.1787 -0.3119  0.0359
   58SAPC   H2S 4319   3.316   0.615  10.126  3.0176 -0.6156 -0.7171
   58SAPC    C3 4320   3.193   0.117  10.221  0.2104 -0.4328 -0.0337
   58SAPC    HX 4321   3.154   0.038  10.289 -1.6543 -0.0472 -0.6023
   58SAPC    HY 4322   3.303   0.127  10.231  0.3393  1.5303 -2.7530
   58SAPC   O31 4323   3.148   0.099  10.084 -0.6642  0.4335  0.1504
   58SAPC   C31 4324   3.164  -0.025  10.033  0.3490  0.6752  1.4103
   58SAPC   O32 4325   3.188  -0.123  10.096  0.4482  0.2669 -0.3002
   58SAPC   C32 4326   3.127  -0.016   9.887  0.8031  0.4758  0.3053
   58SAPC   H2X 4327   3.152   0.087   9.855  0.7202 -0.2179 -2.1499
   58SAPC   H2Y 4328   3.018  -0.024   9.868  1.3621 -1.3933 -2.4423
   58SAPC   C23 4329   3.362   0.527   9.948  0.2802 -0.0098 -0.2882
   58SAPC   H3R 4330   3.470   0.543   9.969 -0.2438  2.6484  0.5516
   58SAPC   H3S 4331   3.335   0.621   9.895 -1.1732 -0.4787 -0.4230
   58SAPC   C24 4332   3.328   0.405   9.858  0.1365  0.3772 -0.0833
   58SAPC   H4R 4333   3.376   0.312   9.896  1.0169  1.1827  0.7882
   58SAPC   H4S 4334   3.372   0.421   9.757  0.0634 -1.8025 -0.4941
   58SAPC   C25 4335   3.179   0.375   9.840 -0.1483  0.0187  0.1555
   58SAPC   H5R 4336   3.129   0.308   9.912  2.0488 -0.0335  1.6793
   58SAPC   C26 4337   3.096   0.445   9.750 -0.0455 -0.1029 -0.5220
   58SAPC   H6R 4338   2.994   0.404   9.742 -0.2966  0.7141 -1.8217
   58SAPC   C27 4339   3.135   0.551   9.649 -0.4601 -0.8545 -0.2838
   58SAPC   H7R 4340   3.180   0.629   9.714 -0.0634 -0.4972 -0.9779
   58SAPC   H7S 4341   3.043   0.595   9.605 -0.7915 -0.1061  1.1230
   58SAPC   C28 4342   3.247   0.524   9.554  0.0015 -0.6539 -0.3749
   58SAPC   H8R 4343   3.285   0.421   9.565 -0.1277 -0.4344  2.3118
   58SAPC   C29 4344   3.298   0.606   9.462 -0.0114  0.0639 -0.0656
   58SAPC   H9R 4345   3.382   0.576   9.398  0.8703  3.5149 -0.6119
   58SAPC  C210 4346   3.249   0.743   9.430 -0.1518  0.7034  0.4101
   58SAPC  H10R 4347   3.274   0.811   9.515  1.0806 -0.0892  0.7022
   58SAPC  H10S 4348   3.140   0.738   9.409  0.2945 -1.0983 -1.6946
   58SAPC  C211 4349   3.313   0.801   9.309 -0.3847  0.5062 -0.0849
   58SAPC  H11R 4350   3.414   0.841   9.327 -0.2290  0.2239 -0.3335
   58SAPC  C212 4351   3.269   0.795   9.182  0.4108  0.3416 -0.6311
   58SAPC  H12R 4352   3.318   0.849   9.100 -1.0658 -0.4668 -2.0690
   58SAPC  C213 4353   3.138   0.738   9.135 -0.6200  0.2545 -0.2844
   58SAPC  H13R 4354   3.100   0.809   9.059 -0.5031 -1.2006 -1.7252
   58SAPC  H13S 4355   3.066   0.731   9.219  1.5211 -1.0147  1.5008
   58SAPC  C214 4356   3.153   0.604   9.066  0.1210 -0.4317  0.6265
   58SAPC  H14R 4357   3.232   0.608   8.989 -0.3424  1.1962  0.2314
   58SAPC  C215 4358   3.068   0.505   9.071  0.1232  0.0960  0.0994
   58SAPC  H15R 4359   3.098   0.414   9.017 -0.6485 -1.1296  1.7211
   58SAPC  C216 4360   2.948   0.497   9.157  0.4234  0.0856  0.4627
   58SAPC  H16R 4361   2.880   0.430   9.101 -0.1285 -1.4015  2.8355
   58SAPC  H16S 4362   2.891   0.591   9.172  0.4544  0.1991 -0.1291
   58SAPC  C217 4363   2.969   0.438   9.301  0.1430  0.7076 -0.0219
   58SAPC  H17R 4364   2.899   0.496   9.365  0.1302  0.8688 -0.1817
   58SAPC  H17S 4365   3.075   0.434   9.335 -0.1212  1.0152  0.8309
   58SAPC  C218 4366   2.925   0.290   9.315 -0.1993 -0.4498 -0.3320
   58SAPC  H18R 4367   2.937   0.262   9.422  3.0533  3.7213  0.5081
   58SAPC  H18S 4368   2.993   0.234   9.247 -0.7910  0.0621 -1.3619
   58SAPC  C219 4369   2.780   0.260   9.262  0.4167  0.3801  0.1828
   58SAPC  H19R 4370   2.789   0.157   9.223  0.8660 -0.1491  1.6265
   58SAPC  H19S 4371   2.750   0.320   9.174  2.4092 -0.3938 -1.0645
   58SAPC  C220 4372   2.669   0.270   9.368 -0.0097 -0.3694 -0.5581
   58SAPC  H20R 4373   2.685   0.361   9.430  1.0463 -0.8081 -0.1907
   58SAPC  H20S 4374   2.680   0.178   9.429 -0.1191  0.0051  0.0299
   58SAPC  H20T 4375   2.566   0.262   9.327 -0.5362  0.3368  0.5903
   58SAPC   C33 4376   3.197  -0.115   9.789  0.0426 -0.4781 -0.7385
   58SAPC   H3X 4377   3.170  -0.213   9.832 -1.4221 -0.0464 -0.6315
   58SAPC   H3Y 4378   3.307  -0.111   9.807 -0.2372  0.7906  0.8227
   58SAPC   C34 4379   3.166  -0.089   9.638  0.0012 -0.0130 -0.6988
   58SAPC   H4X 4380   3.059  -0.119   9.627 -0.3920  0.6514  1.0772
   58SAPC   H4Y 4381   3.235  -0.156   9.583  0.0769  1.6272 -2.6545
   58SAPC   C35 4382   3.199   0.056   9.583  0.2787 -0.3318  0.1344
   58SAPC   H5X 4383   3.270   0.109   9.650 -1.4842  3.0021 -0.5392
   58SAPC   H5Y 4384   3.107   0.117   9.592 -0.1860 -1.0130  0.0682
   58SAPC   C36 4385   3.245   0.057   9.441  0.1584 -0.1206  0.0131
   58SAPC   H6X 4386   3.169   0.020   9.369  1.4760 -1.3284 -0.7608
   58SAPC   H6Y 4387   3.327  -0.017   9.442  1.0659  0.8134  3.7972
   58SAPC   C37 4388   3.304   0.201   9.398 -0.0197  0.8626 -0.2161
   58SAPC   H7X 4389   3.374   0.237   9.476  0.2178  0.4895 -0.2553
   58SAPC   H7Y 4390   3.209   0.258   9.398 -0.2842  0.4654  2.5387
   58SAPC   C38 4391   3.363   0.180   9.260 -0.2420 -0.2621  0.5549
   58SAPC   H8X 4392   3.289   0.130   9.194  0.4136 -0.5515  0.0393
   58SAPC   H8Y 4393   3.451   0.114   9.273 -0.5445 -0.9369 -0.7657
   58SAPC   C39 4394   3.428   0.307   9.200  0.5606  0.3545 -0.5587
   58SAPC   H9X 4395   3.515   0.334   9.264 -0.3030  0.0891  0.7628
   58SAPC   H9Y 4396   3.353   0.389   9.202  0.2724  0.0807  0.5038
   58SAPC  C310 4397   3.475   0.287   9.055  0.4817 -0.0577  0.3502
   58SAPC  H10X 4398   3.385   0.277   8.992  0.1236  0.9237  0.6910
   58SAPC  H10Y 4399   3.542   0.201   9.033  0.4567  0.1806 -0.6821
   58SAPC  C311 4400   3.546   0.418   9.011 -0.4543  0.0301  0.1006
   58SAPC  H11X 4401   3.641   0.441   9.063 -1.0504 -0.4971  1.4365
   58SAPC  H11Y 4402   3.476   0.499   9.042  1.2480  0.6291  2.4792
   58SAPC  C312 4403   3.569   0.420   8.860  0.0901 -0.1171  0.1267
   58SAPC  H12X 4404   3.483   0.401   8.791  2.0882  1.7358 -2.9710
   58SAPC  H12Y 4405   3.654   0.351   8.841  0.7087  0.4944  0.6695
   58SAPC  C313 4406   3.610   0.554   8.806  0.5500 -0.1388  0.2543
   58SAPC  H13X 4407   3.643   0.535   8.701 -1.5563 -0.3119 -0.3999
   58SAPC  H13Y 4408   3.691   0.600   8.867  0.5663  0.0433  0.0966
   58SAPC  C314 4409   3.482   0.655   8.809  0.1651  0.4678  0.0438
   58SAPC  H14X 4410   3.470   0.678   8.917 -0.2146 -0.0591  0.1141
   58SAPC  H14Y 4411   3.395   0.602   8.765 -0.1247 -0.8043  2.0998
   58SAPC  C315 4412   3.499   0.778   8.728 -0.4400 -0.0997 -0.6238
   58SAPC  H15X 4413   3.498   0.756   8.619 -1.0536 -1.6978 -0.3011
   58SAPC  H15Y 4414   3.595   0.830   8.749  1.1788 -3.1846 -0.0499
   58SAPC  C316 4415   3.380   0.875   8.725 -1.0011 -0.6964 -0.0146
   58SAPC  H16X 4416   3.366   0.922   8.825  1.6659 -2.8545  1.4550
   58SAPC  H16Y 4417   3.282   0.826   8.705 -1.0429 -0.1522 -1.1752
   58SAPC  C317 4418   3.411   0.989   8.631  0.4108  0.6771 -0.0589
   58SAPC  H17X 4419   3.402   0.953   8.527  0.4384  1.4469 -0.3310
   58SAPC  H17Y 4420   3.513   1.032   8.626  0.8160 -0.4567 -1.8043
   58SAPC  C318 4421   3.313   1.109   8.648 -0.3220 -0.4679 -0.0122
   58SAPC  H18X 4422   3.335   1.191   8.577  1.8875 -1.3481 -0.3654
   58SAPC  H18Y 4423   3.317   1.162   8.745  2.7413 -2.0091  0.7540
   58SAPC  H18Z 4424   3.204   1.085   8.653 -0.7258  1.3307 -0.0577
   59SAPC     N 4425   4.597   1.430  11.249 -0.3130  0.6341  0.4830
   59SAPC   C12 4426   4.674   1.356  11.142 -0.3055  0.2211  0.2100
   59SAPC  H12A 4427   4.608   1.294  11.083  2.1661 -0.6723 -1.6525
   59SAPC  H12B 4428   4.738   1.280  11.183 -2.0681 -1.5651 -0.2534
   59SAPC   C13 4429   4.697   1.487  11.344  0.1057  0.8294 -0.0294
   59SAPC  H13A 4430   4.753   1.415  11.401 -0.0103  1.6777  1.1688
   59SAPC  H13B 4431   4.769   1.542  11.285 -1.8297  1.5399 -1.8326
   59SAPC  H13C 4432   4.647   1.550  11.417 -0.2641  0.8432 -0.2895
   59SAPC   C14 4433   4.518   1.547  11.198 -0.2446  0.0546  0.1422
   59SAPC  H14A 4434   4.579   1.629  11.163  2.3851 -1.2578  1.5282
   59SAPC  H14B 4435   4.445   1.518  11.123  0.0663 -0.0374 -0.1276
   59SAPC  H14C 4436   4.455   1.592  11.273 -0.1432  0.6163 -0.1080
   59SAPC   C15 4437   4.504   1.342  11.325  0.4906 -0.3750 -0.0648
   59SAPC  H15A 4438   4.464   1.394  11.411  0.6647  1.6188 -1.1513
   59SAPC  H15B 4439   4.414   1.321  11.270 -0.6010  0.8881  1.1689
   59SAPC  H15C 4440   4.547   1.245  11.343  1.2419  0.2707  1.8578
   59SAPC   C11 4441   4.755   1.440  11.042 -0.1289  0.2127 -0.5734
   59SAPC  H11A 4442   4.676   1.502  10.995  1.3994  2.2210 -0.5511
   59SAPC  H11B 4443   4.799   1.378  10.961 -1.9179 -0.8329 -0.7603
   59SAPC     P 4444   4.901   1.653  11.050  0.6332  0.1988  0.2521
   59SAPC   O13 4445   4.782   1.742  11.055  0.0279 -0.3217 -0.1139
   59SAPC   O14 4446   5.017   1.707  11.128 -0.2164 -0.4719 -1.0028
   59SAPC   O12 4447   4.860   1.512  11.107 -0.0280 -0.4548 -0.3054
   59SAPC   O11 4448   4.956   1.620  10.907  0.6371  0.2027 -0.2511
   59SAPC    C1 4449   5.040   1.515  10.863  0.0659 -0.6360 -0.3874
   59SAPC    HA 4450   5.126   1.566  10.814  0.1246 -0.5500 -0.1978
   59SAPC    HB 4451   5.072   1.441  10.940  0.3431 -1.2885 -1.1269
   59SAPC    C2 4452   4.978   1.436  10.743 -0.6302 -0.1509  0.4887
   59SAPC    HS 4453   4.903   1.360  10.773 -1.4495  0.3595 -0.2648
   59SAPC   O21 4454   5.083   1.372  10.670  0.2839 -0.4444  0.0379
   59SAPC   C21 4455   5.131   1.263  10.720  0.7576  0.2668  0.4681
   59SAPC   O22 4456   5.090   1.206  10.818  0.0993  0.4864 -0.7689
   59SAPC   C22 4457   5.237   1.209  10.627 -0.4476  0.7220  0.6418
   59SAPC   H2R 4458   5.260   1.278  10.543 -1.2202 -1.2446 -1.2139
   59SAPC   H2S 4459   5.329   1.181  10.684 -0.6882 -2.6029 -0.4840
   59SAPC    C3 4460   4.902   1.532  10.656  0.8362  0.7284 -0.7401
   59SAPC    HX 4461   4.969   1.612  10.619  0.6547  0.9401 -0.6112
   59SAPC    HY 4462   4.813   1.577  10.705 -0.2718 -2.0397 -0.1314
   59SAPC   O31 4463   4.857   1.467  10.540  0.7256 -0.3198  0.3274
   59SAPC   C31 4464   4.725   1.434  10.527 -0.0035  0.0465  0.4450
   59SAPC   O32 4465   4.635   1.467  10.604 -0.2241  0.0296  0.3045
   59SAPC   C32 4466   4.696   1.358  10.395  0.1650 -0.0199 -0.0237
   59SAPC   H2X 4467   4.593   1.319  10.381  0.7830 -2.8233  2.5916
   59SAPC   H2Y 4468   4.765   1.271  10.383  0.2661 -0.2423  2.0038
   59SAPC   C23 4469   5.206   1.067  10.565  0.0728  0.6600  0.1546
   59SAPC   H3R 4470   5.229   0.986  10.638  0.3300 -0.4553 -1.1347
   59SAPC   H3S 4471   5.290   1.047  10.495 -1.0924 -1.1278 -0.7572
   59SAPC   C24 4472   5.076   1.043  10.497 -0.1852  0.2197  0.1753
   59SAPC   H4R 4473   5.001   1.011  10.573 -0.5780  0.5949 -0.0509
   59SAPC   H4S 4474   5.082   0.961  10.422 -2.0805 -0.4752  0.7577
   59SAPC   C25 4475   5.033   1.165  10.419 -0.0319 -0.2889 -0.7682
   59SAPC   H5R 4476   4.962   1.230  10.473  0.2205 -1.4998  1.0438
   59SAPC   C26 4477   5.064   1.210  10.296  0.4530 -0.2135 -0.0234
   59SAPC   H6R 4478   5.037   1.312  10.263 -0.0150 -0.6411 -0.9745
   59SAPC   C27 4479   5.160   1.141  10.198  0.3782  1.3491 -0.3377
   59SAPC   H7R 4480   5.218   1.066  10.255 -1.2516 -0.2238 -0.6963
   59SAPC   H7S 4481   5.235   1.215  10.164  2.6643 -0.3842  0.8225
   59SAPC   C28 4482   5.082   1.081  10.091 -0.4960 -0.5226  0.1574
   59SAPC   H8R 4483   5.041   0.981  10.111 -1.0894 -0.6844 -1.7499
   59SAPC   C29 4484   5.066   1.142   9.968  0.5363 -0.3143 -0.1236
   59SAPC   H9R 4485   5.011   1.084   9.892  0.8460 -0.0012 -0.5927
   59SAPC  C210 4486   5.129   1.270   9.936 -0.6174 -0.4053  0.2564
   59SAPC  H10R 4487   5.240   1.268   9.941 -0.3776 -0.7570 -3.8805
   59SAPC  H10S 4488   5.105   1.344  10.016  0.6936  0.4020 -0.1020
   59SAPC  C211 4489   5.082   1.331   9.811 -0.0778 -0.8992  0.2202
   59SAPC  H11R 4490   5.000   1.403   9.822 -0.3031 -1.0843 -0.2175
   59SAPC  C212 4491   5.137   1.299   9.687  0.4680 -0.0917  0.1226
   59SAPC  H12R 4492   5.105   1.358   9.600 -1.9805  0.8826  1.6284
   59SAPC  C213 4493   5.244   1.199   9.647  0.3831  0.0780  0.1282
   59SAPC  H13R 4494   5.259   1.115   9.718  0.5349 -0.8388 -0.9725
   59SAPC  H13S 4495   5.336   1.262   9.645  1.7446 -1.8175  1.4495
   59SAPC  C214 4496   5.228   1.145   9.514  0.2075  0.2459 -0.1282
   59SAPC  H14R 4497   5.156   1.062   9.523  1.6258 -0.8100  1.9108
   59SAPC  C215 4498   5.273   1.185   9.394 -0.3895  0.3384 -0.1256
   59SAPC  H15R 4499   5.239   1.129   9.305  1.0304 -1.8456  0.6729
   59SAPC  C216 4500   5.370   1.297   9.366  0.7369  0.0839 -0.0174
   59SAPC  H16R 4501   5.454   1.263   9.302 -1.3022 -1.2214 -2.1042
   59SAPC  H16S 4502   5.416   1.349   9.452  2.4247 -0.3637 -0.6448
   59SAPC  C217 4503   5.282   1.390   9.286 -0.0869 -0.3095 -0.2438
   59SAPC  H17R 4504   5.204   1.432   9.353 -0.2535 -0.8864 -0.0670
   59SAPC  H17S 4505   5.236   1.325   9.208  0.2502  0.2734 -0.9292
   59SAPC  C218 4506   5.356   1.500   9.219  0.1003  0.0566 -0.5760
   59SAPC  H18R 4507   5.459   1.465   9.197 -0.2995 -0.0465 -2.3500
   59SAPC  H18S 4508   5.363   1.592   9.280 -3.4445  0.2768 -0.4177
   59SAPC  C219 4509   5.278   1.539   9.092 -0.5570 -0.1234 -0.4325
   59SAPC  H19R 4510   5.174   1.573   9.113  0.4357  1.8558  1.3551
   59SAPC  H19S 4511   5.264   1.458   9.017  0.3120 -1.0408  0.3868
   59SAPC  C220 4512   5.337   1.656   9.018 -0.1960  0.3270  0.4892
   59SAPC  H20R 4513   5.347   1.749   9.080  2.1087  0.4637 -0.0214
   59SAPC  H20S 4514   5.272   1.691   8.935 -0.4857 -0.6882  0.2820
   59SAPC  H20T 4515   5.430   1.616   8.973  0.1845  0.1442  1.4265
   59SAPC   C33 4516   4.711   1.452  10.280 -0.5151  0.2269  0.3564
   59SAPC   H3X 4517   4.794   1.523  10.296 -0.6174  1.5074 -4.1197
   59SAPC   H3Y 4518   4.614   1.506  10.280  0.2604  1.6909  3.1864
   59SAPC   C34 4519   4.739   1.380  10.147  0.9217  0.0238 -0.1543
   59SAPC   H4X 4520   4.820   1.308  10.171  0.6816 -0.1418  0.1554
   59SAPC   H4Y 4521   4.770   1.456  10.072  1.9047 -1.1153 -0.9190
   59SAPC   C35 4522   4.610   1.297  10.098  0.0642  0.0894 -0.0202
   59SAPC   H5X 4523   4.529   1.349  10.151 -0.7179 -1.2532  0.1374
   59SAPC   H5Y 4524   4.613   1.192  10.136  1.2744 -0.1481 -0.7076
   59SAPC   C36 4525   4.597   1.289   9.946 -0.3053  0.2485  0.4402
   59SAPC   H6X 4526   4.584   1.392   9.909 -1.6627  0.4032  1.3321
   59SAPC   H6Y 4527   4.511   1.226   9.915  1.1615 -1.1948 -0.8487
   59SAPC   C37 4528   4.720   1.225   9.885 -0.1225 -0.0702 -1.0405
   59SAPC   H7X 4529   4.722   1.122   9.927  0.1787  0.2256 -0.3265
   59SAPC   H7Y 4530   4.820   1.254   9.923 -1.1484  0.4756  1.2877
   59SAPC   C38 4531   4.719   1.199   9.734 -0.6680 -0.0728 -0.1534
   59SAPC   H8X 4532   4.652   1.119   9.696  0.1721 -0.4026 -0.9435
   59SAPC   H8Y 4533   4.818   1.151   9.720 -0.3325  0.7309 -0.5451
   59SAPC   C39 4534   4.711   1.330   9.653 -0.1172 -0.3485  0.5495
   59SAPC   H9X 4535   4.803   1.384   9.685  0.6536 -1.3268 -0.0107
   59SAPC   H9Y 4536   4.617   1.387   9.668 -0.6879 -1.0550 -0.3687
   59SAPC  C310 4537   4.710   1.311   9.498  0.6319 -0.5181 -0.8972
   59SAPC  H10X 4538   4.726   1.411   9.453  1.2107 -0.2257 -0.0526
   59SAPC  H10Y 4539   4.612   1.279   9.456  0.2592  0.4210 -0.7594
   59SAPC  C311 4540   4.826   1.220   9.459 -0.0783 -0.2197 -0.0186
   59SAPC  H11X 4541   4.814   1.110   9.473 -0.4661 -0.3214 -1.1092
   59SAPC  H11Y 4542   4.913   1.234   9.527 -1.4070 -0.3073  1.7611
   59SAPC  C312 4543   4.871   1.222   9.313 -0.5326 -0.4561  0.6200
   59SAPC  H12X 4544   4.934   1.135   9.284  2.3806  1.3090  1.4057
   59SAPC  H12Y 4545   4.926   1.317   9.300  0.2270 -1.1811 -1.8320
   59SAPC  C313 4546   4.753   1.214   9.207 -0.0411  0.4305 -0.2050
   59SAPC  H13X 4547   4.679   1.295   9.220 -0.3369  0.0638  0.4212
   59SAPC  H13Y 4548   4.706   1.117   9.236  0.2281  0.2889 -0.2412
   59SAPC  C314 4549   4.793   1.223   9.061 -0.3190 -0.7189  0.7008
   59SAPC  H14X 4550   4.879   1.158   9.035 -0.0140 -1.4053  3.3442
   59SAPC  H14Y 4551   4.831   1.324   9.034  1.3120 -1.4841  0.1215
   59SAPC  C315 4552   4.677   1.190   8.968 -0.0695  0.1141  0.2733
   59SAPC  H15X 4553   4.600   1.266   8.996 -0.3640  0.1839 -0.7055
   59SAPC  H15Y 4554   4.640   1.086   8.978 -1.2840  0.6573  1.6410
   59SAPC  C316 4555   4.713   1.228   8.821 -0.4843 -0.2169 -0.2679
   59SAPC  H16X 4556   4.769   1.146   8.772  0.1034 -0.5803  1.0075
   59SAPC  H16Y 4557   4.787   1.308   8.802  1.2759 -1.3931  1.4700
   59SAPC  C317 4558   4.586   1.266   8.742  0.5782 -0.0284  0.0369
   59SAPC  H17X 4559   4.550   1.364   8.780 -1.1410 -1.4888  2.2418
   59SAPC  H17Y 4560   4.504   1.197   8.772  0.4148 -0.4984 -1.4510
   59SAPC  C318 4561   4.603   1.275   8.587  0.0216  0.7239  0.0503
   59SAPC  H18X 4562   4.698   1.323   8.557 -1.2664  4.3980  1.6059
   59SAPC  H18Y 4563   4.509   1.313   8.539 -1.2183  0.2424  2.0522
   59SAPC  H18Z 4564   4.616   1.170   8.553  1.1484  0.8530  0.0668
   60SAPC     N 4565   5.920   5.913  10.927  0.3440 -0.0952 -0.2159
   60SAPC   C12 4566   5.962   5.807  10.824  0.4631  0.1336 -0.7326
   60SAPC  H12A 4567   5.870   5.759  10.795  0.3455 -1.0222  1.4187
   60SAPC  H12B 4568   6.020   5.732  10.876 -2.5022 -0.4991  1.7708
   60SAPC   C13 4569   5.796   5.981  10.872  0.1530 -0.1551  0.1663
   60SAPC  H13A 4570   5.700   5.931  10.870 -0.8758  1.7401  0.2579
   60SAPC  H13B 4571   5.775   6.063  10.939  3.2722 -0.2218  1.2804
   60SAPC  H13C 4572   5.818   6.013  10.772 -1.6861 -0.9249 -0.5159
   60SAPC   C14 4573   5.872   5.868  11.059  0.4068  0.5604  0.1888
   60SAPC  H14A 4574   5.852   5.954  11.122 -1.6534  0.4423 -0.2639
   60SAPC  H14B 4575   5.776   5.817  11.061  1.2941 -1.1702 -0.1511
   60SAPC  H14C 4576   5.942   5.809  11.117 -0.6736  1.2678  2.3037
   60SAPC   C15 4577   6.018   6.022  10.943 -0.5445  0.3343  0.2251
   60SAPC  H15A 4578   6.106   5.989  10.996 -1.5930  1.2659  2.6207
   60SAPC  H15B 4579   6.045   6.076  10.853  1.1062 -0.0498  0.4827
   60SAPC  H15C 4580   5.972   6.105  10.995 -1.7542  1.4216 -2.4575
   60SAPC   C11 4581   6.030   5.858  10.696 -0.3520  0.0355  0.5845
   60SAPC  H11A 4582   6.038   5.770  10.629 -1.5026 -0.6754  1.3549
   60SAPC  H11B 4583   6.136   5.885  10.720 -0.2470 -0.8376  1.1310
   60SAPC     P 4584   6.022   6.089  10.568  0.0374  0.1299  0.1971
   60SAPC   O13 4585   5.918   6.184  10.531  0.0591 -0.3028 -0.0291
   60SAPC   O14 4586   6.123   6.137  10.662 -0.5447 -0.0435  0.4600
   60SAPC   O12 4587   5.960   5.959  10.624  0.8242 -0.2020 -0.4871
   60SAPC   O11 4588   6.103   6.030  10.442 -0.4610 -0.4237 -0.3769
   60SAPC    C1 4589   6.040   6.026  10.315 -0.4066 -0.1483 -0.7953
   60SAPC    HA 4590   6.076   5.933  10.267 -2.0490 -1.1466 -0.1333
   60SAPC    HB 4591   5.933   6.001  10.333  0.0702 -0.2037  2.2167
   60SAPC    C2 4592   6.080   6.146  10.233 -0.4767 -0.0091  0.0672
   60SAPC    HS 4593   6.016   6.233  10.260  1.0749  1.6676 -1.4689
   60SAPC   O21 4594   6.068   6.115  10.096 -0.5491  0.2173 -0.4290
   60SAPC   C21 4595   5.949   6.128  10.045 -0.4320 -0.8845 -0.1148
   60SAPC   O22 4596   5.849   6.158  10.107 -0.3883  0.1625 -0.6472
   60SAPC   C22 4597   5.948   6.125   9.891  0.3414 -0.5330 -0.2445
   60SAPC   H2R 4598   5.862   6.192   9.870  1.1856  1.0482  1.1873
   60SAPC   H2S 4599   6.038   6.177   9.850  0.3242 -0.4152 -0.1352
   60SAPC    C3 4600   6.219   6.196  10.252  0.4889 -0.0421  0.2880
   60SAPC    HX 4601   6.287   6.110  10.236 -1.0729 -0.7617 -2.7084
   60SAPC    HY 4602   6.218   6.241  10.354 -1.8219  2.9024 -0.9660
   60SAPC   O31 4603   6.224   6.310  10.161 -0.7682  0.1323  0.4080
   60SAPC   C31 4604   6.319   6.297  10.058 -0.5464  0.0396  0.1321
   60SAPC   O32 4605   6.417   6.229  10.061 -0.1974 -0.3004 -0.0813
   60SAPC   C32 4606   6.281   6.381   9.937  0.0780  0.2863  0.1781
   60SAPC   H2X 4607   6.210   6.459   9.972  1.5489  1.8814 -0.2978
   60SAPC   H2Y 4608   6.238   6.302   9.871  1.1444  2.8752 -3.7727
   60SAPC   C23 4609   5.945   5.985   9.828  0.0133 -0.4750  0.0324
   60SAPC   H3R 4610   5.850   5.935   9.859 -0.6041  0.8927  0.3844
   60SAPC   H3S 4611   6.023   5.918   9.868 -0.3291  0.5352  2.4437
   60SAPC   C24 4612   5.948   5.993   9.669 -0.1546 -0.3461  0.8131
   60SAPC   H4R 4613   5.870   6.068   9.642  0.4150 -0.1026 -0.1750
   60SAPC   H4S 4614   5.912   5.898   9.624 -0.7065  0.5403 -0.6260
   60SAPC   C25 4615   6.069   6.050   9.607 -0.3742  0.1881  0.6917
   60SAPC   H5R 4616   6.075   6.160   9.620  0.1543  0.4127 -1.2501
   60SAPC   C26 4617   6.156   5.987   9.528  0.1370 -0.3624 -0.9956
   60SAPC   H6R 4618   6.246   6.039   9.489 -0.1067  1.0568  0.2907
   60SAPC   C27 4619   6.154   5.836   9.495 -0.2801  0.1007 -0.2162
   60SAPC   H7R 4620   6.105   5.781   9.579  1.0433 -0.5299  0.1560
   60SAPC   H7S 4621   6.257   5.796   9.488  0.1331  1.0888  0.1885
   60SAPC   C28 4622   6.085   5.788   9.368  0.2231  1.0933  0.3782
   60SAPC   H8R 4623   5.978   5.764   9.381  0.8891 -1.9717  0.5685
   60SAPC   C29 4624   6.139   5.757   9.249 -0.2269  0.4692 -0.4506
   60SAPC   H9R 4625   6.073   5.719   9.169 -1.6409  4.5200 -1.3277
   60SAPC  C210 4626   6.287   5.778   9.212 -0.4629 -0.5177  0.0098
   60SAPC  H10R 4627   6.326   5.863   9.273 -0.6381 -0.5061  0.1059
   60SAPC  H10S 4628   6.296   5.804   9.105  0.0749  1.3076  0.4705
   60SAPC  C211 4629   6.381   5.664   9.246  0.1830 -0.4226  1.1001
   60SAPC  H11R 4630   6.376   5.625   9.348 -0.4875  2.0491  2.0526
   60SAPC  C212 4631   6.472   5.608   9.162 -0.3290  0.0464  0.2876
   60SAPC  H12R 4632   6.519   5.517   9.202 -1.4567 -1.1393 -1.0414
   60SAPC  C213 4633   6.505   5.626   9.014  1.0532  0.0371  0.1567
   60SAPC  H13R 4634   6.508   5.733   8.983 -1.3074  0.3311  0.8173
   60SAPC  H13S 4635   6.412   5.606   8.956  0.7586 -1.5739  1.1471
   60SAPC  C214 4636   6.621   5.548   8.959  0.7898 -0.2636 -0.4926
   60SAPC  H14R 4637   6.714   5.606   8.957  0.4704  0.3278  1.2137
   60SAPC  C215 4638   6.615   5.424   8.911 -0.0268  0.5030 -0.2584
   60SAPC  H15R 4639   6.712   5.371   8.903  0.4482  1.1510  1.1603
   60SAPC  C216 4640   6.496   5.338   8.911  0.2283 -0.3919  0.4099
   60SAPC  H16R 4641   6.421   5.377   8.839 -1.0179 -0.8727  1.4307
   60SAPC  H16S 4642   6.441   5.350   9.007 -3.7956  1.4530 -1.9993
   60SAPC  C217 4643   6.511   5.189   8.878  0.5964 -0.1732 -0.5784
   60SAPC  H17R 4644   6.420   5.142   8.920  0.4822 -1.5086 -2.2603
   60SAPC  H17S 4645   6.597   5.144   8.931 -0.7432 -0.7101  1.1873
   60SAPC  C218 4646   6.510   5.143   8.735  0.4553 -0.5350  0.3242
   60SAPC  H18R 4647   6.423   5.185   8.681 -0.4483  0.1836  2.2880
   60SAPC  H18S 4648   6.497   5.032   8.737  0.6897 -0.5561  0.7424
   60SAPC  C219 4649   6.640   5.165   8.650 -0.2343  0.2959  0.3211
   60SAPC  H19R 4650   6.724   5.141   8.718  0.7318  0.5790 -0.7710
   60SAPC  H19S 4651   6.656   5.273   8.626 -1.5346  0.4268 -0.0282
   60SAPC  C220 4652   6.644   5.089   8.515  0.5747  0.0683 -0.0351
   60SAPC  H20R 4653   6.743   5.103   8.468  1.3198 -1.9112  0.8753
   60SAPC  H20S 4654   6.560   5.119   8.449  0.6007 -2.6454 -1.3752
   60SAPC  H20T 4655   6.634   4.981   8.541 -2.2226  0.0870 -0.9014
   60SAPC   C33 4656   6.392   6.457   9.869  0.2226  0.2653  0.1142
   60SAPC   H3X 4657   6.492   6.409   9.871  0.8651  1.1930 -4.0736
   60SAPC   H3Y 4658   6.411   6.547   9.932 -2.8662  0.7590  0.4160
   60SAPC   C34 4659   6.357   6.489   9.726  1.1407 -0.7901 -0.0418
   60SAPC   H4X 4660   6.403   6.580   9.682 -2.5942  0.8632 -0.7285
   60SAPC   H4Y 4661   6.247   6.506   9.714  0.7543 -1.8353  1.7699
   60SAPC   C35 4662   6.378   6.364   9.635 -0.0494 -0.4742  0.2289
   60SAPC   H5X 4663   6.335   6.266   9.666  1.2015 -1.2044 -0.2767
   60SAPC   H5Y 4664   6.485   6.362   9.606  0.3845  1.0531  1.6452
   60SAPC   C36 4665   6.301   6.381   9.498 -0.0870 -0.2920  0.2722
   60SAPC   H6X 4666   6.293   6.486   9.462 -2.3077 -0.1803  0.9988
   60SAPC   H6Y 4667   6.200   6.340   9.520  1.0896 -3.2249  0.3690
   60SAPC   C37 4668   6.366   6.299   9.386 -0.1881 -0.0559 -0.1767
   60SAPC   H7X 4669   6.393   6.196   9.418  0.5307  0.0932 -0.2774
   60SAPC   H7Y 4670   6.457   6.358   9.359  1.5362 -1.1348  2.9587
   60SAPC   C38 4671   6.276   6.291   9.260  0.2492 -0.6712 -0.1852
   60SAPC   H8X 4672   6.279   6.391   9.213 -1.6317  1.1208  3.2374
   60SAPC   H8Y 4673   6.169   6.268   9.276  0.8795 -2.9035  1.0256
   60SAPC   C39 4674   6.332   6.178   9.171 -0.1606  0.0125  0.2204
   60SAPC   H9X 4675   6.313   6.079   9.219  0.1617 -1.3792 -2.4022
   60SAPC   H9Y 4676   6.443   6.186   9.177  0.0702 -1.1707 -1.8780
   60SAPC  C310 4677   6.288   6.180   9.026 -0.3929  0.7961 -0.4781
   60SAPC  H10X 4678   6.302   6.284   8.989  2.4404  0.5853 -0.1227
   60SAPC  H10Y 4679   6.181   6.160   9.003 -0.0322 -2.5241  0.3823
   60SAPC  C311 4680   6.370   6.082   8.934 -0.6761  0.6629 -0.5583
   60SAPC  H11X 4681   6.344   5.978   8.965 -1.4545  0.7244 -0.9965
   60SAPC  H11Y 4682   6.476   6.100   8.962 -0.4025 -1.1795 -0.3308
   60SAPC  C312 4683   6.337   6.110   8.788  0.1754  0.5707  0.2199
   60SAPC  H12X 4684   6.354   6.216   8.759  1.6364 -0.3797 -2.5482
   60SAPC  H12Y 4685   6.231   6.083   8.769  0.6680 -0.7471 -0.7386
   60SAPC  C313 4686   6.428   6.026   8.687 -0.4140  0.2428 -0.0295
   60SAPC  H13X 4687   6.537   6.043   8.694 -0.7552  2.3765  0.6201
   60SAPC  H13Y 4688   6.399   6.073   8.591  0.9108  1.8773  0.3495
   60SAPC  C314 4689   6.389   5.875   8.662 -0.0326 -0.2460  0.5616
   60SAPC  H14X 4690   6.278   5.876   8.652  0.1220 -0.6347 -1.4191
   60SAPC  H14Y 4691   6.405   5.821   8.757 -4.3612  1.9102  2.6782
   60SAPC  C315 4692   6.465   5.807   8.543 -0.2835 -0.3448 -0.3715
   60SAPC  H15X 4693   6.571   5.801   8.577 -0.8699  0.9223  1.7959
   60SAPC  H15Y 4694   6.461   5.869   8.451 -1.9030 -0.7577 -0.5967
   60SAPC  C316 4695   6.415   5.667   8.516 -0.0343 -0.1266 -0.2309
   60SAPC  H16X 4696   6.313   5.677   8.472  0.2121 -0.3257 -0.8568
   60SAPC  H16Y 4697   6.408   5.608   8.610  0.2390  0.3135  0.0658
   60SAPC  C317 4698   6.497   5.586   8.408  0.1432  0.0064  0.2794
   60SAPC  H17X 4699   6.585   5.543   8.460  0.8036  0.4059 -0.4927
   60SAPC  H17Y 4700   6.541   5.652   8.329  0.2799 -0.8582 -0.3812
   60SAPC  C318 4701   6.411   5.477   8.348 -0.3884 -0.9628 -0.2521
   60SAPC  H18X 4702   6.335   5.519   8.278 -0.6076 -1.4734 -0.3192
   60SAPC  H18Y 4703   6.358   5.412   8.420  1.1904 -1.7022  0.2713
   60SAPC  H18Z 4704   6.472   5.416   8.277  0.2327 -0.3728 -0.2391
   61SAPC     N 4705   0.997   4.918  10.925  0.3940  0.7089 -0.0471
   61SAPC   C12 4706   0.948   5.012  10.817  0.3341 -0.1687 -0.0348
   61SAPC  H12A 4707   0.893   4.954  10.743  1.2985 -0.4598 -0.5338
   61SAPC  H12B 4708   1.034   5.064  10.778  1.5391 -1.1264  1.2954
   61SAPC   C13 4709   1.044   4.982  11.051  0.3949 -0.3094  0.1398
   61SAPC  H13A 4710   0.955   5.021  11.100 -0.5623 -1.2854 -0.7915
   61SAPC  H13B 4711   1.091   4.904  11.108  2.3552  0.5124 -0.3160
   61SAPC  H13C 4712   1.122   5.054  11.033  2.6914 -2.2850  1.9565
   61SAPC   C14 4713   0.887   4.825  10.970 -0.4931 -0.7728  0.3325
   61SAPC  H14A 4714   0.847   4.768  10.888  1.2966  0.1235 -1.2162
   61SAPC  H14B 4715   0.937   4.750  11.029  3.1677 -1.7718 -3.7924
   61SAPC  H14C 4716   0.816   4.884  11.027  1.9764  1.0725  1.6005
   61SAPC   C15 4717   1.097   4.823  10.865  0.6302  0.6538  0.4142
   61SAPC  H15A 4718   1.143   4.758  10.938 -1.9343 -1.3719  0.3043
   61SAPC  H15B 4719   1.045   4.759  10.796 -0.9071  0.3330  1.8476
   61SAPC  H15C 4720   1.177   4.874  10.813  1.4448 -0.1379  0.8744
   61SAPC   C11 4721   0.853   5.125  10.858  0.0827  0.0619  0.3830
   61SAPC  H11A 4722   0.760   5.075  10.892  0.0382  0.5048  0.9234
   61SAPC  H11B 4723   0.830   5.178  10.763 -1.4410 -2.8863 -0.9595
   61SAPC     P 4724   1.000   5.330  10.943 -0.1641 -0.0251 -0.0312
   61SAPC   O13 4725   0.952   5.437  11.032 -0.5082 -0.1590 -0.0801
   61SAPC   O14 4726   1.140   5.286  10.962  0.1026 -0.0991  0.3254
   61SAPC   O12 4727   0.910   5.205  10.960 -0.3378 -0.3772 -0.1421
   61SAPC   O11 4728   0.992   5.374  10.787  0.6679  0.2815 -0.8279
   61SAPC    C1 4729   0.930   5.496  10.756  0.5889  0.1035  0.0539
   61SAPC    HA 4730   0.823   5.482  10.781  0.8636 -1.0183  0.6091
   61SAPC    HB 4731   0.963   5.580  10.820 -1.6411 -0.4421  1.9837
   61SAPC    C2 4732   0.949   5.527  10.607 -0.3796  0.3974 -0.5531
   61SAPC    HS 4733   0.896   5.622  10.588  0.2213  0.7355 -0.5359
   61SAPC   O21 4734   0.892   5.422  10.531 -0.4330 -0.0418  0.2034
   61SAPC   C21 4735   0.816   5.442  10.430  0.6011 -0.1746 -0.0351
   61SAPC   O22 4736   0.789   5.552  10.376 -0.3068 -0.0582 -0.6891
   61SAPC   C22 4737   0.789   5.307  10.381 -0.3961 -0.4860 -0.6875
   61SAPC   H2R 4738   0.881   5.244  10.381  0.2887  0.4848  0.3255
   61SAPC   H2S 4739   0.713   5.250  10.438  0.5402  1.8312  3.0850
   61SAPC    C3 4740   1.100   5.543  10.575  0.2704  0.0363  0.0047
   61SAPC    HX 4741   1.156   5.448  10.592  1.4835  0.9204  1.0541
   61SAPC    HY 4742   1.135   5.622  10.644 -0.4308 -0.6094  1.1120
   61SAPC   O31 4743   1.127   5.587  10.439  0.1338  0.1086 -0.6499
   61SAPC   C31 4744   1.155   5.484  10.346  0.3380 -0.2479 -0.6744
   61SAPC   O32 4745   1.150   5.366  10.370  0.3209  0.0058  0.5521
   61SAPC   C32 4746   1.208   5.549  10.214 -0.0898 -0.1600  0.0080
   61SAPC   H2X 4747   1.314   5.567  10.244  0.2481 -0.1505 -1.1402
   61SAPC   H2Y 4748   1.165   5.647  10.185 -0.1147 -0.5874 -1.4290
   61SAPC   C23 4749   0.736   5.317  10.237  0.4748  0.4427 -0.4783
   61SAPC   H3R 4750   0.808   5.360  10.165  1.5531 -0.2888  0.1343
   61SAPC   H3S 4751   0.648   5.384  10.228 -0.9328 -1.1753  0.9136
   61SAPC   C24 4752   0.693   5.176  10.182  0.3197  0.2486  0.4234
   61SAPC   H4R 4753   0.631   5.180  10.090 -0.8130 -2.3836  1.0097
   61SAPC   H4S 4754   0.630   5.120  10.254 -0.7946 -0.2658 -0.9250
   61SAPC   C25 4755   0.810   5.077  10.164 -0.7349  0.7252 -0.0595
   61SAPC   H5R 4756   0.851   5.032  10.256 -0.8342  2.1191  0.6831
   61SAPC   C26 4757   0.862   5.032  10.044 -0.0398  0.4569 -0.8081
   61SAPC   H6R 4758   0.933   4.949  10.050  0.2379  0.8793  2.4009
   61SAPC   C27 4759   0.801   5.075   9.912 -0.3080 -0.2208  0.0099
   61SAPC   H7R 4760   0.787   5.185   9.904 -2.7266 -0.3311  2.0343
   61SAPC   H7S 4761   0.715   5.007   9.896 -0.0287 -0.7224  0.6343
   61SAPC   C28 4762   0.896   5.038   9.803  0.5680 -0.1546 -0.9697
   61SAPC   H8R 4763   0.911   4.929   9.799 -0.4027 -0.4529  2.3672
   61SAPC   C29 4764   0.949   5.123   9.717 -0.0348  0.4484  0.2489
   61SAPC   H9R 4765   1.013   5.071   9.644 -1.6263  0.7495 -1.4008
   61SAPC  C210 4766   0.918   5.271   9.705  0.1954 -0.0732 -0.3795
   61SAPC  H10R 4767   0.908   5.323   9.803  2.1293  1.6684 -1.0638
   61SAPC  H10S 4768   0.818   5.285   9.658 -1.5991 -3.3399  2.1599
   61SAPC  C211 4769   1.030   5.342   9.630  0.2024  0.4058  0.2534
   61SAPC  H11R 4770   1.099   5.406   9.686 -1.3294  0.8820  1.6250
   61SAPC  C212 4771   1.039   5.341   9.493 -0.2289 -0.0346 -0.3287
   61SAPC  H12R 4772   1.126   5.397   9.455  0.4916 -0.1229  1.1375
   61SAPC  C213 4773   0.952   5.263   9.401 -0.1133 -0.0028  1.0593
   61SAPC  H13R 4774   0.884   5.193   9.454  0.5824  0.3351  2.4255
   61SAPC  H13S 4775   1.025   5.203   9.343  1.2379  3.0291 -0.4854
   61SAPC  C214 4776   0.861   5.329   9.310 -0.5437 -0.7090 -0.2711
   61SAPC  H14R 4777   0.815   5.420   9.350 -1.4437 -0.2834 -2.2219
   61SAPC  C215 4778   0.843   5.302   9.182 -0.3533 -0.1994  0.9069
   61SAPC  H15R 4779   0.764   5.344   9.117 -0.6698 -0.3245  1.2091
   61SAPC  C216 4780   0.912   5.179   9.115 -0.0659 -0.8437  0.2237
   61SAPC  H16R 4781   0.915   5.090   9.182  0.7328 -0.9933 -0.0063
   61SAPC  H16S 4782   1.016   5.199   9.084 -0.5444 -0.7990 -1.4109
   61SAPC  C217 4783   0.826   5.139   8.992 -0.7572  0.3631 -0.5519
   61SAPC  H17R 4784   0.879   5.113   8.898  1.6551  0.8274  0.6345
   61SAPC  H17S 4785   0.763   5.225   8.961 -2.2104 -0.0876  1.0888
   61SAPC  C218 4786   0.735   5.025   9.048 -0.6264 -0.0216  0.2845
   61SAPC  H18R 4787   0.696   5.064   9.144 -2.3532  3.2493 -1.6338
   61SAPC  H18S 4788   0.787   4.927   9.055  0.4324  0.7647  4.7501
   61SAPC  C219 4789   0.617   5.000   8.962  0.0901 -0.6596 -0.3849
   61SAPC  H19R 4790   0.558   5.094   8.962 -1.5852 -1.6834 -0.8036
   61SAPC  H19S 4791   0.550   4.926   9.011 -1.0144 -0.1921 -1.1752
   61SAPC  C220 4792   0.640   4.949   8.825 -0.3045  0.1821 -0.2990
   61SAPC  H20R 4793   0.596   5.008   8.740  1.1634 -1.0578 -1.9436
   61SAPC  H20S 4794   0.600   4.846   8.817 -2.7852  1.2022 -2.0475
   61SAPC  H20T 4795   0.748   4.949   8.799 -0.3653  0.0202 -0.5573
   61SAPC   C33 4796   1.211   5.451  10.096 -0.5798  0.2419  0.2748
   61SAPC   H3X 4797   1.240   5.348  10.125 -0.3753  0.8311  2.2754
   61SAPC   H3Y 4798   1.282   5.502  10.028  1.6502 -1.8920  0.9535
   61SAPC   C34 4799   1.076   5.435  10.016  0.5950  0.7864  0.5347
   61SAPC   H4X 4800   0.995   5.392  10.079 -1.2031  1.3888 -1.3153
   61SAPC   H4Y 4801   1.092   5.365   9.930 -1.6903  0.8093  0.0606
   61SAPC   C35 4802   1.008   5.560   9.957  0.4563 -0.0515 -0.6584
   61SAPC   H5X 4803   0.964   5.617  10.042  0.4420 -0.3877 -0.4393
   61SAPC   H5Y 4804   0.928   5.525   9.888  0.0258  0.5041 -0.4400
   61SAPC   C36 4805   1.103   5.655   9.878  0.7218 -0.1681  0.1663
   61SAPC   H6X 4806   1.173   5.604   9.809 -0.7765 -3.3010  0.8272
   61SAPC   H6Y 4807   1.169   5.704   9.952 -1.1129  1.7959  0.5491
   61SAPC   C37 4808   1.030   5.760   9.791  0.1414 -0.4786 -0.0215
   61SAPC   H7X 4809   0.986   5.834   9.862 -1.9850 -0.3607 -1.4416
   61SAPC   H7Y 4810   0.955   5.726   9.717  1.5360 -0.2309 -1.5675
   61SAPC   C38 4811   1.132   5.839   9.703 -0.1432 -0.1888  0.4718
   61SAPC   H8X 4812   1.224   5.857   9.764  0.5256 -1.9396  0.0048
   61SAPC   H8Y 4813   1.081   5.928   9.662  1.7731  0.8220  0.2188
   61SAPC   C39 4814   1.197   5.763   9.581  0.5896 -0.4685  0.2799
   61SAPC   H9X 4815   1.233   5.664   9.613  1.0518  0.3227  2.2468
   61SAPC   H9Y 4816   1.286   5.819   9.545  1.2780 -1.1915  0.8460
   61SAPC  C310 4817   1.106   5.750   9.455 -0.2494  0.2805  0.3654
   61SAPC  H10X 4818   1.080   5.850   9.416  1.7642  0.5563 -0.2831
   61SAPC  H10Y 4819   1.017   5.690   9.485 -1.1613  2.0124  1.2328
   61SAPC  C311 4820   1.177   5.680   9.337 -0.1849 -1.4773  0.1347
   61SAPC  H11X 4821   1.205   5.575   9.360  0.7834 -0.8140  2.1098
   61SAPC  H11Y 4822   1.274   5.728   9.311 -1.2158 -0.3400 -1.6964
   61SAPC  C312 4823   1.099   5.697   9.204  0.3348 -0.8818 -0.3513
   61SAPC  H12X 4824   1.099   5.804   9.174  0.0901 -0.6031  0.6492
   61SAPC  H12Y 4825   0.996   5.661   9.225  0.5574 -0.8797  0.7730
   61SAPC  C313 4826   1.139   5.611   9.088 -0.0015  0.3167  0.2146
   61SAPC  H13X 4827   1.135   5.504   9.118 -0.9162  0.2466 -0.1399
   61SAPC  H13Y 4828   1.241   5.639   9.054  0.7107 -1.4430  0.8341
   61SAPC  C314 4829   1.050   5.608   8.959 -0.1778  0.2808  0.2859
   61SAPC  H14X 4830   1.092   5.683   8.889  0.5744 -0.4425 -0.0494
   61SAPC  H14Y 4831   0.947   5.628   8.993  0.1510  0.4488  1.1910
   61SAPC  C315 4832   1.045   5.473   8.889  0.4080 -0.3884 -0.0080
   61SAPC  H15X 4833   0.976   5.398   8.935 -0.6253  0.5919  0.0598
   61SAPC  H15Y 4834   1.145   5.424   8.887  1.0176  0.8689 -2.8134
   61SAPC  C316 4835   0.999   5.482   8.744 -0.0710 -0.1898 -0.3502
   61SAPC  H16X 4836   1.093   5.465   8.687 -1.4610  0.9772 -3.0843
   61SAPC  H16Y 4837   0.969   5.587   8.721  0.3712 -0.2557 -1.2565
   61SAPC  C317 4838   0.892   5.377   8.699  0.1625 -0.5763  0.3074
   61SAPC  H17X 4839   0.815   5.386   8.778  0.2966 -0.9222  0.4802
   61SAPC  H17Y 4840   0.941   5.277   8.696 -0.8819 -1.0786 -0.0159
   61SAPC  C318 4841   0.838   5.410   8.556 -0.5378 -0.3428 -0.4892
   61SAPC  H18X 4842   0.922   5.396   8.485  0.6188  1.2778  0.5356
   61SAPC  H18Y 4843   0.780   5.505   8.559 -1.1612 -0.7400  0.5095
   61SAPC  H18Z 4844   0.760   5.334   8.535 -0.3078 -1.1550  1.4180
   62SAPC     N 4845   6.381   3.863  11.018 -0.1202 -0.2196  0.1677
   62SAPC   C12 4846   6.442   3.994  10.968  0.0189 -0.2638  0.1543
   62SAPC  H12A 4847   6.522   3.983  10.895  0.2833  2.1518  0.0121
   62SAPC  H12B 4848   6.499   4.042  11.047 -0.2279  1.2070 -0.5332
   62SAPC   C13 4849   6.317   3.783  10.909 -0.7569  0.0684  0.7575
   62SAPC  H13A 4850   6.260   3.699  10.944 -0.8153  0.1362  0.8260
   62SAPC  H13B 4851   6.255   3.839  10.841  1.3672  1.6430  0.0465
   62SAPC  H13C 4852   6.389   3.741  10.840 -0.6548  0.5233  0.5837
   62SAPC   C14 4853   6.484   3.778  11.072  0.2557 -0.0360 -0.5854
   62SAPC  H14A 4854   6.556   3.824  11.139  2.1839 -1.6856 -1.4811
   62SAPC  H14B 4855   6.444   3.690  11.120  2.6549 -0.3647  0.9160
   62SAPC  H14C 4856   6.541   3.746  10.986  1.0109 -1.8776  0.5831
   62SAPC   C15 4857   6.276   3.881  11.123  0.0878  0.2755 -0.9415
   62SAPC  H15A 4858   6.304   3.943  11.207 -0.7329  1.6055 -1.6290
   62SAPC  H15B 4859   6.186   3.929  11.085 -0.6931 -1.1657 -0.9391
   62SAPC  H15C 4860   6.247   3.786  11.165  0.2630 -0.1533 -1.7781
   62SAPC   C11 4861   6.351   4.102  10.925 -0.2102 -0.1297  0.1016
   62SAPC  H11A 4862   6.419   4.190  10.918  1.8092 -1.7027 -0.5367
   62SAPC  H11B 4863   6.280   4.125  11.008  0.5626 -2.6763  1.5055
   62SAPC     P 4864   6.370   4.087  10.669 -0.0843 -0.1319 -0.2321
   62SAPC   O13 4865   6.507   4.136  10.702  0.1772  0.0053  0.4010
   62SAPC   O14 4866   6.362   3.960  10.595  0.2650 -0.3372  0.0415
   62SAPC   O12 4867   6.286   4.078  10.802  0.0925  0.1415 -0.1116
   62SAPC   O11 4868   6.295   4.196  10.588  0.8153 -0.2342 -0.2790
   62SAPC    C1 4869   6.169   4.170  10.536  0.2098 -0.0491 -0.1231
   62SAPC    HA 4870   6.104   4.099  10.592  1.1997  0.1339  1.2947
   62SAPC    HB 4871   6.117   4.268  10.533 -1.5080 -0.8844  1.3310
   62SAPC    C2 4872   6.182   4.123  10.382 -0.2301 -0.7451 -0.9266
   62SAPC    HS 4873   6.222   4.019  10.379  1.6986 -0.1059  0.9422
   62SAPC   O21 4874   6.264   4.226  10.314  0.3059 -0.4005 -0.3015
   62SAPC   C21 4875   6.354   4.179  10.235  0.3718 -0.5222 -0.6076
   62SAPC   O22 4876   6.399   4.067  10.233  0.1041  0.7713 -0.0133
   62SAPC   C22 4877   6.407   4.295  10.150  0.7427  0.0383  0.3427
   62SAPC   H2R 4878   6.324   4.324  10.082  0.5113 -0.8132  0.2503
   62SAPC   H2S 4879   6.443   4.380  10.211 -2.7535  1.9940 -0.1714
   62SAPC    C3 4880   6.041   4.096  10.333  0.4286 -0.4391 -0.0202
   62SAPC    HX 4881   5.980   4.187  10.354 -0.8418 -0.8356 -1.8815
   62SAPC    HY 4882   5.988   4.018  10.393  1.2068 -1.3088 -0.4563
   62SAPC   O31 4883   6.042   4.076  10.192 -0.0651  0.3963  0.4567
   62SAPC   C31 4884   6.074   3.945  10.155 -0.0167  0.2082 -0.2447
   62SAPC   O32 4885   6.088   3.855  10.235  0.2922  0.8540  0.8999
   62SAPC   C32 4886   6.079   3.928  10.004  0.4559 -1.4425  0.2178
   62SAPC   H2X 4887   6.181   3.913   9.962 -0.5971 -2.1014 -2.1328
   62SAPC   H2Y 4888   6.042   4.026   9.967 -0.3897 -1.1388  1.8125
   62SAPC   C23 4889   6.525   4.247  10.061 -0.5269 -0.5657 -0.4010
   62SAPC   H3R 4890   6.589   4.175  10.117 -1.1164 -0.7384  0.0547
   62SAPC   H3S 4891   6.593   4.331  10.034 -0.6152 -0.8707 -1.5951
   62SAPC   C24 4892   6.475   4.174   9.939 -0.6050  0.3909 -0.2312
   62SAPC   H4R 4893   6.419   4.248   9.877  0.8270  0.9252 -0.9052
   62SAPC   H4S 4894   6.398   4.100   9.969  0.1799 -0.2536  0.2245
   62SAPC   C25 4895   6.584   4.108   9.856  0.3417  0.1395 -0.1945
   62SAPC   H5R 4896   6.639   4.024   9.901 -1.1755 -0.2094  1.0271
   62SAPC   C26 4897   6.639   4.157   9.735 -0.3192  0.1985  0.0214
   62SAPC   H6R 4898   6.705   4.089   9.679 -2.2841 -1.2510 -0.6004
   62SAPC   C27 4899   6.599   4.289   9.670  0.1379  0.8075  0.4333
   62SAPC   H7R 4900   6.526   4.341   9.736 -1.5880  0.2316 -0.9594
   62SAPC   H7S 4901   6.550   4.271   9.572  3.4781 -0.5106 -1.0517
   62SAPC   C28 4902   6.716   4.374   9.633 -0.8217  0.3879 -0.3970
   62SAPC   H8R 4903   6.797   4.331   9.571  1.5148  0.8264  2.2209
   62SAPC   C29 4904   6.746   4.498   9.676  0.5592 -0.1092 -0.8600
   62SAPC   H9R 4905   6.840   4.547   9.646  1.5163 -1.1032  0.4892
   62SAPC  C210 4906   6.663   4.576   9.779  0.3943  0.1283 -0.2047
   62SAPC  H10R 4907   6.614   4.517   9.858 -0.1211 -1.9164 -2.0072
   62SAPC  H10S 4908   6.577   4.628   9.731 -0.8513 -1.4067  0.3378
   62SAPC  C211 4909   6.760   4.670   9.851  0.5408 -0.2961  0.5823
   62SAPC  H11R 4910   6.769   4.648   9.958 -0.8854 -0.0999  0.7546
   62SAPC  C212 4911   6.816   4.786   9.810 -0.1738 -0.6349 -0.6808
   62SAPC  H12R 4912   6.882   4.848   9.873 -0.4244 -0.7375 -0.3125
   62SAPC  C213 4913   6.794   4.852   9.679  0.3519 -0.6289  0.5237
   62SAPC  H13R 4914   6.749   4.788   9.600 -0.3458  0.0438  0.3678
   62SAPC  H13S 4915   6.893   4.875   9.634 -0.5511 -0.1621 -1.3053
   62SAPC  C214 4916   6.703   4.981   9.673 -0.2413 -0.4250  0.4813
   62SAPC  H14R 4917   6.596   4.958   9.666  0.1324 -2.6675  1.5655
   62SAPC  C215 4918   6.747   5.110   9.679 -0.1467 -0.8020  0.3080
   62SAPC  H15R 4919   6.688   5.201   9.658  1.2034  0.3783  1.4803
   62SAPC  C216 4920   6.896   5.145   9.701  0.2820 -0.6943 -0.1659
   62SAPC  H16R 4921   6.935   5.064   9.766 -0.1988 -0.8418 -0.0631
   62SAPC  H16S 4922   6.900   5.236   9.765  0.7462 -1.0356  0.2872
   62SAPC  C217 4923   6.979   5.159   9.574 -0.1446 -0.3130 -1.0212
   62SAPC  H17R 4924   6.934   5.238   9.509 -0.8412  0.3513  0.2548
   62SAPC  H17S 4925   6.967   5.063   9.520 -0.5726 -0.0055 -1.4811
   62SAPC  C218 4926   7.132   5.176   9.605  0.4429 -0.5058 -0.1820
   62SAPC  H18R 4927   7.159   5.095   9.676  1.4497 -0.7997 -0.9104
   62SAPC  H18S 4928   7.145   5.281   9.640 -0.9641 -0.8985  1.6240
   62SAPC  C219 4929   7.207   5.164   9.476  0.0554  0.0708  0.4120
   62SAPC  H19R 4930   7.165   5.222   9.391 -1.6041  0.1093  1.2419
   62SAPC  H19S 4931   7.210   5.057   9.445 -1.0727 -0.0575  0.7424
   62SAPC  C220 4932   7.355   5.219   9.493  0.5184  0.4510 -0.3329
   62SAPC  H20R 4933   7.426   5.147   9.538  0.5953  0.3993 -0.5376
   62SAPC  H20S 4934   7.359   5.307   9.562 -1.0070 -1.3601  2.1571
   62SAPC  H20T 4935   7.396   5.237   9.392 -0.6214  1.9818 -0.5492
   62SAPC   C33 4936   5.966   3.828   9.950  0.3580 -0.1203 -0.4517
   62SAPC   H3X 4937   5.864   3.838   9.991 -0.0429 -1.2358 -1.1783
   62SAPC   H3Y 4938   5.999   3.727   9.981  1.4977  0.5547  0.5659
   62SAPC   C34 4939   5.957   3.827   9.795  0.7228  0.5449  0.1101
   62SAPC   H4X 4940   6.054   3.789   9.757 -0.3110  0.1939 -2.2886
   62SAPC   H4Y 4941   5.969   3.932   9.760  1.1343  0.3259 -0.4212
   62SAPC   C35 4942   5.849   3.745   9.726 -0.6032 -0.7147  0.3216
   62SAPC   H5X 4943   5.751   3.768   9.774 -0.0602  2.5069  0.0287
   62SAPC   H5Y 4944   5.880   3.640   9.744 -1.5627 -0.8753  1.0469
   62SAPC   C36 4945   5.835   3.772   9.577 -0.0259  0.4655  0.0136
   62SAPC   H6X 4946   5.932   3.797   9.529  0.0519  0.5351  0.2083
   62SAPC   H6Y 4947   5.776   3.865   9.569 -1.1889 -0.4724 -3.1267
   62SAPC   C37 4948   5.749   3.667   9.496 -0.5144 -1.0261  0.4894
   62SAPC   H7X 4949   5.654   3.664   9.555 -1.0056  0.3087 -0.2305
   62SAPC   H7Y 4950   5.801   3.568   9.497  2.4052  0.4168  3.0633
   62SAPC   C38 4951   5.722   3.695   9.350  0.0882  1.2723 -0.3054
   62SAPC   H8X 4952   5.802   3.747   9.292 -0.8511  2.2738 -0.7040
   62SAPC   H8Y 4953   5.628   3.754   9.340 -1.6746 -1.2777  0.8429
   62SAPC   C39 4954   5.697   3.560   9.282 -0.2135  0.5185 -0.5958
   62SAPC   H9X 4955   5.607   3.520   9.333  0.4274  1.5265  1.3425
   62SAPC   H9Y 4956   5.781   3.491   9.302  1.0483  2.2102  0.0404
   62SAPC  C310 4957   5.668   3.561   9.133 -0.5203 -0.5564  0.6629
   62SAPC  H10X 4958   5.602   3.649   9.121  3.1511  2.0296 -1.5889
   62SAPC  H10Y 4959   5.629   3.461   9.103 -0.5415 -0.5764  0.7570
   62SAPC  C311 4960   5.800   3.572   9.048  0.1131  0.1315 -0.6430
   62SAPC  H11X 4961   5.882   3.505   9.082  1.0688  1.2020 -0.8311
   62SAPC  H11Y 4962   5.828   3.676   9.072  1.6936 -0.8769  2.2116
   62SAPC  C312 4963   5.763   3.564   8.896  0.2055  0.5621  0.7339
   62SAPC  H12X 4964   5.677   3.632   8.881 -1.4497 -1.6511 -0.0438
   62SAPC  H12Y 4965   5.734   3.460   8.867  0.2961  1.2729 -2.0830
   62SAPC  C313 4966   5.880   3.607   8.806 -0.2161 -0.5225 -0.2761
   62SAPC  H13X 4967   5.972   3.549   8.829  0.0068 -0.4750 -1.0135
   62SAPC  H13Y 4968   5.902   3.714   8.823  0.4492 -0.6212 -0.5215
   62SAPC  C314 4969   5.854   3.594   8.648  0.5248 -0.0915  0.2451
   62SAPC  H14X 4970   5.751   3.633   8.635  0.0581 -0.8771  1.5101
   62SAPC  H14Y 4971   5.848   3.483   8.639  1.2379 -0.5854  4.6439
   62SAPC  C315 4972   5.949   3.659   8.548  0.6467  0.1746 -1.5714
   62SAPC  H15X 4973   5.956   3.769   8.554  0.7722  0.0643  0.6643
   62SAPC  H15Y 4974   5.924   3.644   8.441  0.7156 -0.4882 -1.5003
   62SAPC  C316 4975   6.098   3.604   8.561 -0.1795  0.4237  0.3295
   62SAPC  H16X 4976   6.138   3.646   8.655  0.9835  1.2265 -0.5008
   62SAPC  H16Y 4977   6.170   3.645   8.486  0.4713 -0.2127  0.5984
   62SAPC  C317 4978   6.116   3.446   8.567  0.4800 -0.3037  0.6558
   62SAPC  H17X 4979   6.043   3.408   8.492 -1.5576 -0.0441  2.4461
   62SAPC  H17Y 4980   6.088   3.410   8.669 -0.6322  0.2548  0.5546
   62SAPC  C318 4981   6.260   3.401   8.531  0.5085  0.4284  0.6277
   62SAPC  H18X 4982   6.273   3.292   8.546  0.8414  0.5281  1.0757
   62SAPC  H18Y 4983   6.331   3.443   8.605 -0.3461 -0.0230  1.7176
   62SAPC  H18Z 4984   6.284   3.427   8.426  0.7858  0.8891  0.8054
   63SAPC     N 4985   4.041   3.012   6.315 -0.2770 -0.2097  0.6254
   63SAPC   C12 4986   3.988   3.032   6.455  0.2434 -0.1216  0.4667
   63SAPC  H12A 4987   4.017   3.133   6.480 -0.6414  1.0206 -2.8240
   63SAPC  H12B 4988   4.038   2.970   6.528 -1.3276 -2.5422 -0.4582
   63SAPC   C13 4989   4.193   3.014   6.298 -0.2873 -0.3333  0.1121
   63SAPC  H13A 4990   4.239   3.103   6.338 -2.1902  0.0452  1.5313
   63SAPC  H13B 4991   4.237   2.929   6.349  1.6119 -0.2019 -1.2432
   63SAPC  H13C 4992   4.217   3.012   6.193 -2.1045 -1.1790 -0.3017
   63SAPC   C14 4993   3.992   2.883   6.253  0.3366  0.4231 -0.0016
   63SAPC  H14A 4994   4.017   2.891   6.148 -0.7997  0.5508 -0.2663
   63SAPC  H14B 4995   4.044   2.801   6.299  1.2957  1.4616  0.7904
   63SAPC  H14C 4996   3.885   2.866   6.250  0.6436 -1.1746 -3.1014
   63SAPC   C15 4997   3.997   3.127   6.229 -0.5654  0.5276 -0.4422
   63SAPC  H15A 4998   3.894   3.157   6.237 -1.0305 -1.4586  1.3325
   63SAPC  H15B 4999   4.048   3.214   6.268  0.3825 -0.0211 -0.4353
   63SAPC  H15C 5000   4.005   3.110   6.122 -0.0031  0.0775 -0.3271
   63SAPC   C11 5001   3.836   3.019   6.479 -0.3263  0.3933  0.0409
   63SAPC  H11A 5002   3.830   3.033   6.589 -0.4983  0.1293  0.0651
   63SAPC  H11B 5003   3.793   2.922   6.447 -1.2985  0.6931  0.4161
   63SAPC     P 5004   3.738   3.258   6.467 -0.0764 -0.5080  0.3141
   63SAPC   O13 5005   3.729   3.340   6.343 -0.4319  0.0723 -0.1156
   63SAPC   O14 5006   3.620   3.256   6.548  0.2041  0.0912 -0.9784
   63SAPC   O12 5007   3.760   3.118   6.408 -0.4383 -0.7431  0.1567
   63SAPC   O11 5008   3.863   3.299   6.551  0.8524 -0.4399 -0.2768
   63SAPC    C1 5009   3.894   3.435   6.575  0.1602  0.9154 -0.1421
   63SAPC    HA 5010   3.937   3.476   6.481 -0.2394  4.2632  1.0620
   63SAPC    HB 5011   3.804   3.493   6.604  0.5430  1.1088  0.6721
   63SAPC    C2 5012   3.997   3.442   6.687  0.0107  0.7755  0.3171
   63SAPC    HS 5013   4.078   3.367   6.675  1.0994  2.2943 -2.1422
   63SAPC   O21 5014   3.930   3.414   6.813  0.0359 -0.4141 -0.0653
   63SAPC   C21 5015   3.914   3.286   6.846  0.1762 -0.3993  0.1248
   63SAPC   O22 5016   3.975   3.191   6.798  0.3486  0.4478 -0.2794
   63SAPC   C22 5017   3.836   3.288   6.974 -0.3339  0.7434  0.8600
   63SAPC   H2R 5018   3.875   3.201   7.031  0.3685 -0.3999 -1.3110
   63SAPC   H2S 5019   3.857   3.374   7.041  0.7160  1.7244 -0.6855
   63SAPC    C3 5020   4.068   3.579   6.697 -0.6137 -0.2987  0.1835
   63SAPC    HX 5021   3.997   3.664   6.684 -0.2420 -0.1012 -0.5629
   63SAPC    HY 5022   4.138   3.597   6.613  1.1232  0.2796  1.7117
   63SAPC   O31 5023   4.135   3.601   6.826 -0.2021 -0.8626  0.1339
   63SAPC   C31 5024   4.231   3.513   6.845  0.2077  0.2591 -0.2912
   63SAPC   O32 5025   4.290   3.452   6.757  0.6227  0.1223 -0.2071
   63SAPC   C32 5026   4.276   3.500   6.982  0.0425 -0.3197 -0.9368
   63SAPC   H2X 5027   4.292   3.606   7.012  0.1028 -0.6390  0.1497
   63SAPC   H2Y 5028   4.370   3.440   6.982 -1.3117 -2.4714  0.3150
   63SAPC   C23 5029   3.682   3.265   6.962  0.2793  0.5909  0.4705
   63SAPC   H3R 5030   3.654   3.194   6.881  1.2747 -0.8706  1.3861
   63SAPC   H3S 5031   3.630   3.361   6.943 -1.0612  0.2855  2.4917
   63SAPC   C24 5032   3.637   3.191   7.092 -0.0018 -0.8919  0.3003
   63SAPC   H4R 5033   3.692   3.097   7.112 -0.8701 -0.9841  2.3539
   63SAPC   H4S 5034   3.534   3.169   7.058 -0.0285  1.3016 -1.1798
   63SAPC   C25 5035   3.634   3.283   7.205 -0.0433  0.7082 -0.5256
   63SAPC   H5R 5036   3.565   3.366   7.185  0.8746  1.5474 -0.2457
   63SAPC   C26 5037   3.682   3.273   7.332 -0.4865  0.1982  0.0370
   63SAPC   H6R 5038   3.668   3.355   7.405  2.2118 -1.2432  2.2681
   63SAPC   C27 5039   3.761   3.156   7.384 -0.0084 -0.2887 -0.2313
   63SAPC   H7R 5040   3.833   3.107   7.315  0.3073  0.5480 -0.5040
   63SAPC   H7S 5041   3.703   3.067   7.414 -2.8124  1.4290 -0.4054
   63SAPC   C28 5042   3.851   3.207   7.493  0.9176 -0.1820 -0.3367
   63SAPC   H8R 5043   3.938   3.268   7.464 -0.0765  1.5987  0.3311
   63SAPC   C29 5044   3.828   3.186   7.624  0.5317 -0.4099 -0.8858
   63SAPC   H9R 5045   3.896   3.241   7.691 -1.4080  0.2874  0.5429
   63SAPC  C210 5046   3.716   3.119   7.694 -0.3555 -0.0593 -0.4647
   63SAPC  H10R 5047   3.754   3.064   7.784 -2.3350  1.0941  1.1319
   63SAPC  H10S 5048   3.662   3.050   7.626 -0.3719 -0.4953 -0.0205
   63SAPC  C211 5049   3.600   3.215   7.732 -0.2339 -0.3659 -0.5293
   63SAPC  H11R 5050   3.553   3.260   7.644 -0.5520 -1.4844 -0.9365
   63SAPC  C212 5051   3.557   3.232   7.858 -0.1983  0.0649  0.3851
   63SAPC  H12R 5052   3.491   3.313   7.892 -1.9191 -1.0589 -0.2177
   63SAPC  C213 5053   3.608   3.146   7.966  0.0287 -0.8111 -0.3948
   63SAPC  H13R 5054   3.580   3.198   8.060 -1.8211 -2.8555  0.2334
   63SAPC  H13S 5055   3.719   3.143   7.970  0.0174  0.5767  2.0325
   63SAPC  C214 5056   3.581   3.000   7.957 -0.1858  0.4864  0.2632
   63SAPC  H14R 5057   3.579   2.958   7.855  0.8813 -2.4934  1.4314
   63SAPC  C215 5058   3.548   2.909   8.056 -0.0965  0.4844 -0.2067
   63SAPC  H15R 5059   3.536   2.802   8.033  1.3731 -0.1034  1.6925
   63SAPC  C216 5060   3.534   2.937   8.203 -0.7338  0.2550 -0.1112
   63SAPC  H16R 5061   3.438   2.909   8.252  0.7922 -1.1814  2.1216
   63SAPC  H16S 5062   3.546   3.046   8.220  1.7838 -0.0228  0.0052
   63SAPC  C217 5063   3.638   2.858   8.292  1.2597  0.2583  0.0678
   63SAPC  H17R 5064   3.625   2.892   8.397  1.0273  1.7985 -0.4420
   63SAPC  H17S 5065   3.733   2.902   8.256  1.5241 -0.0244  0.4184
   63SAPC  C218 5066   3.611   2.707   8.305  0.2574  0.4563 -0.0095
   63SAPC  H18R 5067   3.654   2.648   8.221 -0.3442 -1.8531  1.2788
   63SAPC  H18S 5068   3.500   2.702   8.305  0.1815  1.6137  1.8318
   63SAPC  C219 5069   3.652   2.651   8.441  0.1624  0.9768  0.4914
   63SAPC  H19R 5070   3.607   2.549   8.443  0.4438  0.6751 -3.5781
   63SAPC  H19S 5071   3.599   2.713   8.516 -1.5521 -1.6894  1.5715
   63SAPC  C220 5072   3.802   2.638   8.450  0.5422 -0.1467 -0.3100
   63SAPC  H20R 5073   3.834   2.581   8.541  1.4485 -0.7507 -0.9986
   63SAPC  H20S 5074   3.860   2.732   8.461  0.3724 -0.0927  0.1543
   63SAPC  H20T 5075   3.845   2.588   8.361  2.5576  1.3976 -0.2367
   63SAPC   C33 5076   4.167   3.440   7.068 -0.7044 -0.2707  0.1007
   63SAPC   H3X 5077   4.157   3.331   7.048 -1.0079 -0.4847  1.3575
   63SAPC   H3Y 5078   4.072   3.490   7.039  0.0108  1.3623  0.4775
   63SAPC   C34 5079   4.172   3.462   7.224 -0.3152  0.0130 -0.3616
   63SAPC   H4X 5080   4.261   3.401   7.249 -0.4787 -0.7309 -1.5585
   63SAPC   H4Y 5081   4.079   3.421   7.269 -0.2413 -0.5177 -0.6932
   63SAPC   C35 5082   4.189   3.609   7.268  0.3744 -0.2160  0.0276
   63SAPC   H5X 5083   4.109   3.667   7.218  0.7598 -0.4809 -0.9042
   63SAPC   H5Y 5084   4.286   3.653   7.238  0.7522  1.6911  3.7434
   63SAPC   C36 5085   4.163   3.638   7.415  0.4049 -0.0085  0.6668
   63SAPC   H6X 5086   4.073   3.577   7.437 -0.7434  1.5868  0.4886
   63SAPC   H6Y 5087   4.144   3.747   7.427  3.3436  0.6559 -0.2100
   63SAPC   C37 5088   4.274   3.599   7.509 -0.0343 -0.2565 -0.7205
   63SAPC   H7X 5089   4.368   3.656   7.491  1.0286 -0.1967  4.2967
   63SAPC   H7Y 5090   4.298   3.490   7.502 -0.4871 -0.4764  1.0229
   63SAPC   C38 5091   4.238   3.634   7.655 -0.9700  0.3578  0.4683
   63SAPC   H8X 5092   4.150   3.577   7.691 -0.9393  0.4752  0.7311
   63SAPC   H8Y 5093   4.212   3.742   7.649 -0.7445  0.5253  2.2663
   63SAPC   C39 5094   4.360   3.612   7.747 -0.6645  0.7437 -0.9215
   63SAPC   H9X 5095   4.451   3.664   7.712 -1.5645  1.4580 -2.2572
   63SAPC   H9Y 5096   4.387   3.508   7.720  1.1281  1.2757 -1.2233
   63SAPC  C310 5097   4.342   3.633   7.896  0.2422 -0.2337 -0.6462
   63SAPC  H10X 5098   4.259   3.573   7.937 -0.5076  1.4384  0.3485
   63SAPC  H10Y 5099   4.322   3.740   7.920 -0.2180 -0.4064 -0.2765
   63SAPC  C311 5100   4.465   3.599   7.979  0.3485 -0.1182  0.0182
   63SAPC  H11X 5101   4.553   3.659   7.947  0.3407  0.0910  0.3785
   63SAPC  H11Y 5102   4.496   3.494   7.962  1.5717  0.0796  0.9339
   63SAPC  C312 5103   4.444   3.611   8.134  0.1995  0.5472  0.7521
   63SAPC  H12X 5104   4.379   3.699   8.155 -0.5137 -0.2167  1.7561
   63SAPC  H12Y 5105   4.546   3.630   8.174  1.0654  1.3884 -1.7335
   63SAPC  C313 5106   4.385   3.486   8.201  0.0300 -0.0150  0.2621
   63SAPC  H13X 5107   4.457   3.404   8.178  1.6994  1.1486  1.1627
   63SAPC  H13Y 5108   4.290   3.448   8.158  1.9295 -1.7023 -2.5854
   63SAPC  C314 5109   4.370   3.487   8.355 -0.3102 -1.2573  0.0367
   63SAPC  H14X 5110   4.470   3.461   8.397  0.1963  0.8440  0.2322
   63SAPC  H14Y 5111   4.306   3.404   8.390 -1.9723 -0.1557 -0.3118
   63SAPC  C315 5112   4.317   3.619   8.425 -0.4199 -0.0397 -0.0263
   63SAPC  H15X 5113   4.389   3.701   8.403 -0.8722  0.6866  1.1271
   63SAPC  H15Y 5114   4.326   3.593   8.532 -2.3748  1.0441  0.4241
   63SAPC  C316 5115   4.186   3.675   8.372 -0.1704  0.4494 -0.6277
   63SAPC  H16X 5116   4.170   3.688   8.263  1.4707  1.0285 -0.8153
   63SAPC  H16Y 5117   4.172   3.777   8.415 -1.4668  0.4754 -1.0910
   63SAPC  C317 5118   4.073   3.590   8.427  0.2000  0.3706  0.7194
   63SAPC  H17X 5119   4.078   3.584   8.538  0.4730 -0.3506  0.6716
   63SAPC  H17Y 5120   4.078   3.490   8.380 -0.5428  0.5232  0.3105
   63SAPC  C318 5121   3.933   3.654   8.409 -0.5047  0.0189 -0.6260
   63SAPC  H18X 5122   3.849   3.589   8.443  0.0771 -0.7151 -0.5916
   63SAPC  H18Y 5123   3.921   3.681   8.302  1.3371  1.8821 -0.3897
   63SAPC  H18Z 5124   3.929   3.755   8.455 -0.1223 -0.6447  0.8911
   64SAPC     N 5125   6.718   3.472   5.894 -0.0160 -0.1382  0.1982
   64SAPC   C12 5126   6.744   3.357   5.995  0.1678 -0.2971  0.3023
   64SAPC  H12A 5127   6.833   3.386   6.049 -0.0880  2.5880 -0.7507
   64SAPC  H12B 5128   6.778   3.272   5.937 -2.6918 -0.8984 -0.5639
   64SAPC   C13 5129   6.681   3.596   5.962 -0.1725 -0.2962 -0.0775
   64SAPC  H13A 5130   6.580   3.595   6.001 -0.7563  0.4966 -1.5023
   64SAPC  H13B 5131   6.752   3.617   6.040 -2.2575 -0.7648  2.0136
   64SAPC  H13C 5132   6.690   3.681   5.896  2.8922 -0.5171 -0.0008
   64SAPC   C14 5133   6.834   3.510   5.809 -0.1017 -0.4419 -0.1605
   64SAPC  H14A 5134   6.914   3.538   5.876 -2.1965  2.2882  1.2909
   64SAPC  H14B 5135   6.863   3.427   5.745  1.0674 -0.5339  0.4746
   64SAPC  H14C 5136   6.827   3.595   5.744 -0.6166  0.7093  1.3682
   64SAPC   C15 5137   6.618   3.432   5.799  0.6828  0.1604  1.2720
   64SAPC  H15A 5138   6.645   3.344   5.742  2.1173  1.3834  0.0115
   64SAPC  H15B 5139   6.520   3.406   5.836 -0.6768  1.5888 -1.1745
   64SAPC  H15C 5140   6.593   3.515   5.734 -3.7680 -0.6449  1.8171
   64SAPC   C11 5141   6.624   3.309   6.080  0.0334  0.0313  0.0111
   64SAPC  H11A 5142   6.586   3.396   6.137  0.0897 -0.2418  0.4613
   64SAPC  H11B 5143   6.649   3.230   6.154  1.3633  1.5265  1.1803
   64SAPC     P 5144   6.377   3.272   6.035 -0.0336  0.5405 -0.2018
   64SAPC   O13 5145   6.319   3.398   5.974 -0.4783 -0.5733 -0.4667
   64SAPC   O14 5146   6.312   3.146   5.986  0.6697  0.5214  0.5795
   64SAPC   O12 5147   6.526   3.260   5.991  0.0353  0.4846  0.3342
   64SAPC   O11 5148   6.385   3.287   6.194 -0.4329  0.1794  0.2439
   64SAPC    C1 5149   6.352   3.178   6.272  0.1873 -0.6171 -0.0678
   64SAPC    HA 5150   6.250   3.139   6.249  0.3531 -1.7646  1.0593
   64SAPC    HB 5151   6.424   3.095   6.259  0.7459 -0.2350  0.6006
   64SAPC    C2 5152   6.363   3.220   6.425 -0.7093 -0.9270 -0.2005
   64SAPC    HS 5153   6.354   3.133   6.493 -1.4168  0.4460  1.4774
   64SAPC   O21 5154   6.251   3.308   6.462 -0.3899 -0.4991  0.2291
   64SAPC   C21 5155   6.144   3.261   6.517  0.0610  0.1751  0.3351
   64SAPC   O22 5156   6.120   3.144   6.547  0.1469 -0.2104  0.0865
   64SAPC   C22 5157   6.057   3.379   6.562  0.4461 -0.3440 -0.7854
   64SAPC   H2R 5158   6.096   3.406   6.663 -0.0663 -1.7159 -0.2154
   64SAPC   H2S 5159   6.073   3.473   6.505 -2.2909  0.4137 -0.3725
   64SAPC    C3 5160   6.504   3.285   6.456  0.1648  0.2470 -0.0698
   64SAPC    HX 5161   6.506   3.373   6.388 -0.1081 -0.5928 -1.1758
   64SAPC    HY 5162   6.591   3.223   6.426 -0.0729  0.4561 -1.2271
   64SAPC   O31 5163   6.514   3.316   6.593  0.2045 -0.3243 -0.6472
   64SAPC   C31 5164   6.496   3.441   6.630 -0.0111  0.4492  0.5541
   64SAPC   O32 5165   6.466   3.538   6.565 -0.3730 -0.4762  0.3424
   64SAPC   C32 5166   6.523   3.447   6.782 -0.1893 -0.0458 -0.0548
   64SAPC   H2X 5167   6.629   3.423   6.807  0.2190 -0.2506 -1.9689
   64SAPC   H2Y 5168   6.447   3.373   6.815 -0.9371 -0.0845 -1.8247
   64SAPC   C23 5169   5.905   3.347   6.563  0.5962  0.1531 -0.3434
   64SAPC   H3R 5170   5.876   3.276   6.483 -2.5785 -0.0029  0.8578
   64SAPC   H3S 5171   5.843   3.438   6.546 -0.1507 -0.2194  0.3233
   64SAPC   C24 5172   5.868   3.279   6.703 -0.3677 -0.2256  0.1896
   64SAPC   H4R 5173   5.937   3.200   6.740  2.7716  2.6361  0.6951
   64SAPC   H4S 5174   5.768   3.232   6.689  0.0587 -1.9228  2.5546
   64SAPC   C25 5175   5.855   3.393   6.805  0.5268 -0.1834  0.0831
   64SAPC   H5R 5176   5.775   3.461   6.772  0.1139 -1.6497 -2.0634
   64SAPC   C26 5177   5.931   3.419   6.915 -0.7266 -0.2526 -0.2181
   64SAPC   H6R 5178   5.899   3.502   6.980 -0.9968 -0.5051 -0.0253
   64SAPC   C27 5179   6.053   3.349   6.959  0.1956 -0.4609  0.1800
   64SAPC   H7R 5180   6.099   3.289   6.878  1.3208 -0.6425  0.9485
   64SAPC   H7S 5181   6.038   3.288   7.050 -0.3064  0.0733  0.4616
   64SAPC   C28 5182   6.156   3.457   6.994 -0.3123 -0.3602  0.0506
   64SAPC   H8R 5183   6.161   3.544   6.927 -1.5842 -0.0964  0.2896
   64SAPC   C29 5184   6.241   3.460   7.095 -0.2348 -0.4803 -0.3375
   64SAPC   H9R 5185   6.311   3.544   7.100  0.8922 -1.3789 -0.8283
   64SAPC  C210 5186   6.251   3.355   7.207  0.3395 -0.2115  0.3687
   64SAPC  H10R 5187   6.341   3.292   7.188  0.5112  0.0707  0.2470
   64SAPC  H10S 5188   6.165   3.285   7.215  0.3366 -0.2230  0.2420
   64SAPC  C211 5189   6.268   3.426   7.339 -0.5526  0.5470 -0.4134
   64SAPC  H11R 5190   6.317   3.524   7.336  0.7090 -0.0192  1.0381
   64SAPC  C212 5191   6.234   3.374   7.463 -0.3466 -0.1227 -0.0752
   64SAPC  H12R 5192   6.248   3.433   7.555  1.0299  2.8086 -2.0966
   64SAPC  C213 5193   6.163   3.244   7.487 -0.0804  0.0225  0.3431
   64SAPC  H13R 5194   6.217   3.181   7.561 -0.0587 -1.8377 -1.2241
   64SAPC  H13S 5195   6.160   3.180   7.396 -0.1767  1.3549 -0.6159
   64SAPC  C214 5196   6.020   3.268   7.525 -0.2458  0.1274  0.5048
   64SAPC  H14R 5197   5.957   3.288   7.437  1.1540  0.0920 -0.5257
   64SAPC  C215 5198   5.973   3.245   7.651 -0.2866 -0.4509  1.2094
   64SAPC  H15R 5199   5.869   3.273   7.670 -0.7007  0.4590 -2.0877
   64SAPC  C216 5200   6.052   3.204   7.775 -0.4969  0.5637 -0.1944
   64SAPC  H16R 5201   6.146   3.263   7.779  1.8570 -3.0846  0.6693
   64SAPC  H16S 5202   6.080   3.097   7.782 -1.7168  0.3856  2.7520
   64SAPC  C217 5203   5.984   3.215   7.914  0.2360  0.4344  0.1965
   64SAPC  H17R 5204   5.887   3.163   7.902  1.3943 -1.6215 -0.4524
   64SAPC  H17S 5205   5.961   3.322   7.935  1.5689  0.4572  1.6584
   64SAPC  C218 5206   6.062   3.156   8.035 -0.4384 -0.1291  0.7847
   64SAPC  H18R 5207   6.166   3.194   8.026 -0.3494  0.4562  3.9750
   64SAPC  H18S 5208   6.073   3.048   8.009 -1.9004 -0.1826  0.3489
   64SAPC  C219 5209   6.002   3.178   8.167 -0.7090  0.1747  0.1610
   64SAPC  H19R 5210   6.005   3.284   8.202  4.5197 -0.0326  0.6793
   64SAPC  H19S 5211   6.073   3.127   8.235  2.5526  0.4833 -2.8664
   64SAPC  C220 5212   5.852   3.132   8.182 -0.1139 -0.7392 -0.0342
   64SAPC  H20R 5213   5.788   3.166   8.098  0.7790 -0.1560 -0.4924
   64SAPC  H20S 5214   5.804   3.175   8.273  1.6863 -0.6381  0.8921
   64SAPC  H20T 5215   5.839   3.022   8.190 -0.9570 -0.5046  2.4164
   64SAPC   C33 5216   6.489   3.576   6.842  0.5094  0.7827 -0.1940
   64SAPC   H3X 5217   6.378   3.589   6.843  0.3185 -0.6168 -1.2123
   64SAPC   H3Y 5218   6.539   3.659   6.787 -0.4449 -0.4697 -3.0530
   64SAPC   C34 5219   6.544   3.574   6.991 -0.9006 -0.2240 -0.6440
   64SAPC   H4X 5220   6.654   3.568   6.984 -1.0973 -5.0203 -1.3968
   64SAPC   H4Y 5221   6.508   3.481   7.039 -1.3023  0.4329  0.3493
   64SAPC   C35 5222   6.509   3.694   7.076  0.4220 -0.3913 -0.1070
   64SAPC   H5X 5223   6.402   3.719   7.060 -0.3185 -2.9487  0.7094
   64SAPC   H5Y 5224   6.558   3.785   7.034 -0.5570  1.0799  1.8233
   64SAPC   C36 5225   6.537   3.685   7.223  0.3260  0.2908 -0.1963
   64SAPC   H6X 5226   6.644   3.660   7.243  0.1692 -0.7687 -0.5999
   64SAPC   H6Y 5227   6.478   3.599   7.261 -0.4340  1.0135  0.2453
   64SAPC   C37 5228   6.503   3.804   7.306 -0.3283 -0.1564  0.0332
   64SAPC   H7X 5229   6.398   3.839   7.291 -0.6464  0.3425  2.9342
   64SAPC   H7Y 5230   6.575   3.886   7.284  0.6018 -0.1752  2.7772
   64SAPC   C38 5231   6.519   3.761   7.450  0.0057  0.2940 -0.1639
   64SAPC   H8X 5232   6.614   3.711   7.479 -0.6493 -0.8589  0.0602
   64SAPC   H8Y 5233   6.447   3.680   7.479 -2.1147  2.4845  0.9128
   64SAPC   C39 5234   6.494   3.877   7.560  0.0843  0.8164 -0.2322
   64SAPC   H9X 5235   6.386   3.905   7.552 -0.7104 -2.7350 -2.9131
   64SAPC   H9Y 5236   6.550   3.965   7.521  1.1138 -0.1699 -0.9789
   64SAPC  C310 5237   6.543   3.845   7.705  0.2996  0.1089  0.0598
   64SAPC  H10X 5238   6.652   3.827   7.718  0.8282  1.5283 -2.2107
   64SAPC  H10Y 5239   6.495   3.751   7.738  1.9620 -1.8551 -2.9143
   64SAPC  C311 5240   6.517   3.957   7.810  0.0939 -0.0550  0.3628
   64SAPC  H11X 5241   6.406   3.968   7.806  0.0984 -0.6748 -2.1386
   64SAPC  H11Y 5242   6.571   4.049   7.779  0.2996  1.4025  4.6315
   64SAPC  C312 5243   6.552   3.930   7.956  0.5083  0.6431  0.2560
   64SAPC  H12X 5244   6.660   3.951   7.973  0.3907 -0.4808  2.4989
   64SAPC  H12Y 5245   6.532   3.825   7.983  1.0210  0.4573 -0.0752
   64SAPC  C313 5246   6.483   4.034   8.046  0.6290 -0.4516  0.6210
   64SAPC  H13X 5247   6.374   4.014   8.058 -0.0175  0.6249 -2.8256
   64SAPC  H13Y 5248   6.487   4.139   8.009  1.0950 -0.6623  0.0619
   64SAPC  C314 5249   6.550   4.021   8.186  0.1390  0.7894  0.2286
   64SAPC  H14X 5250   6.656   4.051   8.173  0.3817 -1.0246 -2.2488
   64SAPC  H14Y 5251   6.531   3.914   8.210 -1.4351  0.9272 -0.3394
   64SAPC  C315 5252   6.478   4.115   8.289 -0.3216 -0.1178 -0.2911
   64SAPC  H15X 5253   6.368   4.097   8.292 -0.3503  0.0026 -0.5446
   64SAPC  H15Y 5254   6.489   4.222   8.262  2.2066 -0.9409 -2.8140
   64SAPC  C316 5255   6.528   4.108   8.435 -0.2232  0.1549 -0.1829
   64SAPC  H16X 5256   6.564   4.005   8.456  0.0484  0.4081  0.6294
   64SAPC  H16Y 5257   6.435   4.121   8.495  1.3085  0.2507  2.2240
   64SAPC  C317 5258   6.636   4.212   8.477 -0.0552  0.5684 -0.6009
   64SAPC  H17X 5259   6.606   4.311   8.436 -0.5445  0.8071  0.3031
   64SAPC  H17Y 5260   6.735   4.184   8.436  0.1336  0.9321 -0.4006
   64SAPC  C318 5261   6.655   4.214   8.632  0.2193 -0.5282  0.8574
   64SAPC  H18X 5262   6.747   4.266   8.665 -1.7149  2.7570  1.2517
   64SAPC  H18Y 5263   6.649   4.111   8.674  0.9614 -0.6898  0.5749
   64SAPC  H18Z 5264   6.572   4.269   8.681  1.1908  2.2327 -0.5383
   65SAPC     N 5265   0.382   5.033   5.681  0.0715  0.4251  0.1189
   65SAPC   C12 5266   0.449   5.137   5.762  0.5873  0.1506  0.7121
   65SAPC  H12A 5267   0.372   5.203   5.799  0.4509 -0.7783  2.1400
   65SAPC  H12B 5268   0.515   5.197   5.702 -1.3383  0.4369 -1.1737
   65SAPC   C13 5269   0.299   5.104   5.567  0.4823  0.3380  0.0042
   65SAPC  H13A 5270   0.262   5.039   5.489 -1.0536  2.1619 -0.8113
   65SAPC  H13B 5271   0.212   5.154   5.606 -0.2843 -0.1309 -1.0810
   65SAPC  H13C 5272   0.361   5.184   5.531 -1.9991  2.5818  0.5752
   65SAPC   C14 5273   0.483   4.932   5.614  0.0073  0.1411 -0.6002
   65SAPC  H14A 5274   0.572   4.984   5.582 -0.1089 -0.4994 -2.0284
   65SAPC  H14B 5275   0.509   4.853   5.682 -2.1166 -1.0949 -1.1654
   65SAPC  H14C 5276   0.435   4.889   5.527 -0.1169  0.1903 -0.5554
   65SAPC   C15 5277   0.285   4.965   5.772 -0.3513  0.0337  0.2048
   65SAPC  H15A 5278   0.218   5.038   5.815 -0.5732 -0.3107  0.4529
   65SAPC  H15B 5279   0.231   4.893   5.713 -0.4814  0.8794 -0.7116
   65SAPC  H15C 5280   0.337   4.906   5.846 -1.9002 -0.8342  0.6274
   65SAPC   C11 5281   0.531   5.088   5.888 -0.0226 -0.1144 -0.0181
   65SAPC  H11A 5282   0.606   5.167   5.906 -0.5642  1.1443 -2.9420
   65SAPC  H11B 5283   0.592   5.003   5.851 -0.3118 -0.6530  0.7433
   65SAPC     P 5284   0.374   5.160   6.082 -0.1272  0.1534  0.1452
   65SAPC   O13 5285   0.440   5.180   6.212 -0.0028 -0.1634  0.7754
   65SAPC   O14 5286   0.351   5.279   5.994  0.1152  0.1169  0.2017
   65SAPC   O12 5287   0.448   5.050   6.004  0.4789 -0.5788  0.7403
   65SAPC   O11 5288   0.240   5.084   6.093  0.2351  0.2118  0.5196
   65SAPC    C1 5289   0.231   4.967   6.177 -0.6268  1.1369  0.0230
   65SAPC    HA 5290   0.225   4.876   6.113 -2.1644  0.4842  1.0839
   65SAPC    HB 5291   0.316   4.945   6.245 -2.5855 -1.1778  1.8043
   65SAPC    C2 5292   0.122   4.990   6.284  0.4462 -0.1700  0.0362
   65SAPC    HS 5293   0.161   4.988   6.388 -1.0132  1.2136  0.6335
   65SAPC   O21 5294   0.024   4.886   6.270  0.2365  0.0697 -0.2321
   65SAPC   C21 5295   0.052   4.761   6.308  0.1985 -0.0228 -0.1710
   65SAPC   O22 5296   0.160   4.733   6.358  0.0531 -0.8767 -0.1144
   65SAPC   C22 5297  -0.052   4.657   6.260 -0.6109  0.3617  0.1955
   65SAPC   H2R 5298  -0.033   4.651   6.151 -2.4468  0.9130 -0.1756
   65SAPC   H2S 5299  -0.021   4.559   6.302  0.4218  0.4656 -0.3198
   65SAPC    C3 5300   0.052   5.126   6.259 -0.0549 -0.6138  0.3309
   65SAPC    HX 5301  -0.011   5.128   6.168 -1.8961 -2.0820  1.5405
   65SAPC    HY 5302   0.125   5.210   6.257 -1.4600  0.6023 -1.4090
   65SAPC   O31 5303  -0.032   5.151   6.371  0.0521  0.0473 -0.3816
   65SAPC   C31 5304  -0.164   5.172   6.359 -0.6850  0.1784  0.5138
   65SAPC   O32 5305  -0.221   5.170   6.248 -0.1656 -0.1372 -0.0545
   65SAPC   C32 5306  -0.226   5.194   6.496  0.5205 -0.4241  0.0920
   65SAPC   H2X 5307  -0.220   5.304   6.509  1.1966 -0.5061  0.5197
   65SAPC   H2Y 5308  -0.160   5.144   6.570  1.8531  0.5462 -0.4288
   65SAPC   C23 5309  -0.203   4.680   6.292  0.8386 -0.2367 -0.2891
   65SAPC   H3R 5310  -0.248   4.581   6.269  1.9850 -0.7634 -0.3095
   65SAPC   H3S 5311  -0.231   4.771   6.236 -0.9115  0.1036  1.0972
   65SAPC   C24 5312  -0.217   4.707   6.446  0.1245 -0.3421  0.7620
   65SAPC   H4R 5313  -0.327   4.695   6.459 -0.2045  2.3359  0.7423
   65SAPC   H4S 5314  -0.179   4.810   6.457  1.9985 -1.2073  2.6739
   65SAPC   C25 5315  -0.139   4.617   6.536  0.6613  0.3534  0.0258
   65SAPC   H5R 5316  -0.155   4.510   6.514  0.9318 -0.3915  3.1709
   65SAPC   C26 5317  -0.064   4.652   6.645 -0.2631  0.3833 -0.2150
   65SAPC   H6R 5318  -0.012   4.573   6.700 -0.0803 -0.5841 -1.7408
   65SAPC   C27 5319  -0.049   4.794   6.699 -0.1333 -0.8832 -1.2597
   65SAPC   H7R 5320  -0.085   4.796   6.804 -1.1958  1.7700 -1.6380
   65SAPC   H7S 5321  -0.113   4.870   6.649  1.9747  1.0949 -1.0432
   65SAPC   C28 5322   0.095   4.830   6.698 -0.5182 -0.3039  0.0607
   65SAPC   H8R 5323   0.146   4.821   6.601  0.1761 -0.3807  0.4249
   65SAPC   C29 5324   0.167   4.880   6.798  0.4333 -0.1233  0.7470
   65SAPC   H9R 5325   0.275   4.896   6.785  0.4539  0.0838  1.1857
   65SAPC  C210 5326   0.134   4.923   6.941 -0.1342 -0.2191  0.2941
   65SAPC  H10R 5327   0.029   4.896   6.967 -0.5747 -0.0279 -1.2390
   65SAPC  H10S 5328   0.124   5.033   6.949  1.1879 -0.2132  2.1729
   65SAPC  C211 5329   0.231   4.898   7.052 -0.2821 -0.7628  0.0135
   65SAPC  H11R 5330   0.330   4.865   7.017 -0.1804 -1.2717  0.7768
   65SAPC  C212 5331   0.207   4.893   7.181  0.3337 -0.2830 -0.0934
   65SAPC  H12R 5332   0.282   4.846   7.247 -0.0173 -0.3820  0.2325
   65SAPC  C213 5333   0.074   4.915   7.251  0.1726  0.3534 -0.1501
   65SAPC  H13R 5334   0.029   4.820   7.287 -0.6226  0.2728 -1.3231
   65SAPC  H13S 5335  -0.011   4.949   7.188 -0.5920  0.5252  0.9641
   65SAPC  C214 5336   0.089   5.001   7.370 -0.6820  0.0740 -0.2944
   65SAPC  H14R 5337   0.111   4.938   7.458  0.5906  1.0549  0.1039
   65SAPC  C215 5338   0.064   5.133   7.394  0.3104  0.4756  0.0369
   65SAPC  H15R 5339   0.064   5.173   7.496  0.3201  3.1361 -0.9711
   65SAPC  C216 5340   0.022   5.222   7.287  0.7322 -0.4576 -0.5943
   65SAPC  H16R 5341  -0.089   5.222   7.290  0.7533 -2.1102  1.4420
   65SAPC  H16S 5342   0.057   5.197   7.184 -1.2175 -1.7838 -0.9630
   65SAPC  C217 5343   0.056   5.372   7.308  0.4292  0.4280  0.0623
   65SAPC  H17R 5344   0.163   5.400   7.307  0.3812  0.5871 -0.6209
   65SAPC  H17S 5345   0.030   5.388   7.415  1.2475  1.4063  0.1224
   65SAPC  C218 5346  -0.031   5.464   7.229  0.5535 -0.3208  0.2739
   65SAPC  H18R 5347  -0.130   5.463   7.279  0.2151 -1.7666 -0.4207
   65SAPC  H18S 5348  -0.040   5.438   7.122 -0.7893 -1.2640  0.6084
   65SAPC  C219 5349   0.022   5.615   7.223 -0.0934  0.0409 -0.6550
   65SAPC  H19R 5350   0.123   5.612   7.178 -0.8817 -1.9373 -2.3860
   65SAPC  H19S 5351   0.029   5.662   7.324 -0.3705 -1.0745 -0.1066
   65SAPC  C220 5352  -0.077   5.693   7.131  0.2309  0.2409 -0.5226
   65SAPC  H20R 5353  -0.179   5.696   7.173  0.2128  5.3795 -0.6355
   65SAPC  H20S 5354  -0.081   5.652   7.027 -3.7793 -0.2184 -0.2356
   65SAPC  H20T 5355  -0.051   5.801   7.132 -0.9031  0.5163 -1.0389
   65SAPC   C33 5356  -0.371   5.147   6.502  0.0550  0.6154 -0.1098
   65SAPC   H3X 5357  -0.435   5.202   6.429 -0.4163 -2.0545 -1.8074
   65SAPC   H3Y 5358  -0.402   5.175   6.605 -2.5255 -1.2553 -0.3257
   65SAPC   C34 5359  -0.376   4.994   6.492 -0.4292 -0.0495  0.1317
   65SAPC   H4X 5360  -0.322   4.938   6.571  2.5226  0.9797 -1.0862
   65SAPC   H4Y 5361  -0.327   4.970   6.396  0.3034 -0.3366  0.5753
   65SAPC   C35 5362  -0.524   4.955   6.488 -0.3908  0.0040  0.0829
   65SAPC   H5X 5363  -0.543   4.849   6.461 -0.0882  0.2805 -1.2522
   65SAPC   H5Y 5364  -0.573   5.010   6.405  1.2317  0.6139 -0.4926
   65SAPC   C36 5365  -0.589   4.972   6.621  0.2027  0.2409 -1.0501
   65SAPC   H6X 5366  -0.595   5.079   6.650  0.3303 -0.6980  2.6316
   65SAPC   H6Y 5367  -0.521   4.928   6.697 -0.7052 -1.0476 -0.9718
   65SAPC   C37 5368  -0.726   4.913   6.626 -0.7779  0.3578  0.6915
   65SAPC   H7X 5369  -0.719   4.802   6.622  0.8426  0.4853 -0.6928
   65SAPC   H7Y 5370  -0.768   4.949   6.530  0.5335 -1.2961 -0.5426
   65SAPC   C38 5371  -0.808   4.967   6.746  0.0607  0.1777 -0.3034
   65SAPC   H8X 5372  -0.910   4.934   6.718  0.6426 -1.7816 -0.1843
   65SAPC   H8Y 5373  -0.806   5.078   6.737 -0.0458  0.1413 -0.8210
   65SAPC   C39 5374  -0.764   4.921   6.885 -0.0471  0.9304 -0.2754
   65SAPC   H9X 5375  -0.665   4.970   6.900  0.0893  1.1423 -1.8014
   65SAPC   H9Y 5376  -0.758   4.811   6.896 -0.7613  0.8555 -0.6530
   65SAPC  C310 5377  -0.866   4.951   6.991  0.2583  0.1690 -0.7309
   65SAPC  H10X 5378  -0.959   4.902   6.955  0.0268  0.7511 -0.9422
   65SAPC  H10Y 5379  -0.876   5.062   6.994  0.5439  0.1761 -0.0326
   65SAPC  C311 5380  -0.836   4.907   7.130 -0.3846  0.6810 -0.8140
   65SAPC  H11X 5381  -0.736   4.945   7.160 -0.2957 -1.2830  1.5140
   65SAPC  H11Y 5382  -0.827   4.797   7.139  0.5992  0.6503 -2.0913
   65SAPC  C312 5383  -0.949   4.950   7.222 -0.1400 -0.8534 -0.0693
   65SAPC  H12X 5384  -1.038   4.889   7.194  1.0746 -1.5258 -2.6505
   65SAPC  H12Y 5385  -0.982   5.056   7.211  1.0304 -0.5831 -1.0687
   65SAPC  C313 5386  -0.918   4.927   7.369 -0.0891 -0.3750 -0.3377
   65SAPC  H13X 5387  -0.818   4.969   7.396  0.0608  0.1347 -1.6603
   65SAPC  H13Y 5388  -0.898   4.818   7.382 -1.1978 -0.3109  2.1879
   65SAPC  C314 5389  -1.023   4.978   7.467  0.7197 -0.4616  0.8375
   65SAPC  H14X 5390  -1.125   4.960   7.426  1.9713  1.8060 -3.6190
   65SAPC  H14Y 5391  -1.019   5.089   7.464 -0.5983 -0.3903  1.4826
   65SAPC  C315 5392  -1.034   4.924   7.616 -0.3125  0.6123 -0.0770
   65SAPC  H15X 5393  -0.936   4.932   7.669 -0.9375  3.1488  0.7566
   65SAPC  H15Y 5394  -1.082   4.824   7.611 -0.0050  0.3765  1.3518
   65SAPC  C316 5395  -1.124   5.026   7.701  0.9722  0.0464 -0.1772
   65SAPC  H16X 5396  -1.128   4.993   7.807  2.6413  0.2243 -0.0392
   65SAPC  H16Y 5397  -1.226   5.037   7.660  0.9483  0.2769 -0.0585
   65SAPC  C317 5398  -1.080   5.177   7.696  0.1297  0.6843  0.0151
   65SAPC  H17X 5399  -1.121   5.227   7.606  0.2627  2.0603  0.7115
   65SAPC  H17Y 5400  -0.969   5.174   7.704  0.0507 -1.3410  0.9061
   65SAPC  C318 5401  -1.132   5.256   7.811  0.0579  0.0449 -0.6722
   65SAPC  H18X 5402  -1.237   5.292   7.799 -0.7314 -2.0433 -0.1936
   65SAPC  H18Y 5403  -1.075   5.350   7.825 -1.2839  0.5388  1.8112
   65SAPC  H18Z 5404  -1.128   5.186   7.897 -2.2391 -2.0818 -2.2238
   66SAPC     N 5405   4.184   5.727   6.161 -0.3002 -0.1767  0.3422
   66SAPC   C12 5406   4.043   5.719   6.212 -0.2245  0.3169  0.0409
   66SAPC  H12A 5407   3.993   5.810   6.184  0.1387 -0.0715 -1.9081
   66SAPC  H12B 5408   4.041   5.712   6.320  0.5669 -1.3560 -0.0304
   66SAPC   C13 5409   4.253   5.588   6.170 -0.3594 -0.2610  0.6537
   66SAPC  H13A 5410   4.199   5.520   6.105 -1.1210 -0.3238  1.3500
   66SAPC  H13B 5411   4.356   5.591   6.139 -0.2400  0.1558  1.0848
   66SAPC  H13C 5412   4.242   5.545   6.268  1.3602  2.4761  2.0906
   66SAPC   C14 5413   4.187   5.781   6.017  0.8133 -0.3190 -0.4957
   66SAPC  H14A 5414   4.282   5.745   5.981  2.7024  2.2731  1.7955
   66SAPC  H14B 5415   4.100   5.743   5.965 -0.7642  1.0097  1.1328
   66SAPC  H14C 5416   4.175   5.888   6.013 -0.4325 -0.4241  0.2741
   66SAPC   C15 5417   4.259   5.820   6.246 -0.3124  0.0250  0.1981
   66SAPC  H15A 5418   4.365   5.806   6.236 -0.2948 -0.1133  0.6070
   66SAPC  H15B 5419   4.240   5.920   6.209  0.0076 -0.0386 -0.1384
   66SAPC  H15C 5420   4.232   5.808   6.350 -1.1781 -1.6229 -0.1909
   66SAPC   C11 5421   3.947   5.607   6.162 -0.4514  0.4991  0.8688
   66SAPC  H11A 5422   3.949   5.608   6.051 -0.9302  0.7724  0.8625
   66SAPC  H11B 5423   3.841   5.611   6.195 -1.1241  0.7297 -1.2404
   66SAPC     P 5424   3.998   5.348   6.114  0.0272  0.1268  0.2650
   66SAPC   O13 5425   3.864   5.281   6.121  0.1335 -0.5138 -0.1612
   66SAPC   O14 5426   4.053   5.390   5.983 -0.0358  0.1889 -0.6620
   66SAPC   O12 5427   3.995   5.478   6.204 -0.7308  0.1618  0.4832
   66SAPC   O11 5428   4.101   5.255   6.185  0.2804  0.2591  0.0730
   66SAPC    C1 5429   4.109   5.252   6.325  0.4165 -0.1021  0.2733
   66SAPC    HA 5430   4.215   5.256   6.361  0.7874  1.1108 -0.9180
   66SAPC    HB 5431   4.059   5.332   6.383 -0.2957 -0.2386 -0.1479
   66SAPC    C2 5432   4.037   5.127   6.371  0.4333  0.0283 -1.1292
   66SAPC    HS 5433   3.933   5.117   6.336 -0.5847  1.8966  1.2258
   66SAPC   O21 5434   4.046   5.122   6.516  0.0926 -0.6510 -0.4440
   66SAPC   C21 5435   3.939   5.067   6.578  0.0589 -0.2610  0.3587
   66SAPC   O22 5436   3.840   5.017   6.526  0.0890  0.7197 -0.4733
   66SAPC   C22 5437   3.963   5.094   6.725 -0.5557  0.6599  0.3163
   66SAPC   H2R 5438   4.067   5.057   6.742 -0.0927  1.9751  0.4178
   66SAPC   H2S 5439   3.953   5.199   6.761  2.2863  0.5626  1.5205
   66SAPC    C3 5440   4.123   5.014   6.310  0.7109  0.6434 -0.6403
   66SAPC    HX 5441   4.227   5.050   6.325  0.8734  0.1853 -0.6676
   66SAPC    HY 5442   4.113   4.999   6.200  1.9329 -1.1099 -0.5436
   66SAPC   O31 5443   4.091   4.894   6.384  0.6430  0.0964  0.3483
   66SAPC   C31 5444   4.171   4.796   6.350  0.6467 -0.8865 -0.8117
   66SAPC   O32 5445   4.251   4.802   6.262 -0.1184  0.0552  0.1225
   66SAPC   C32 5446   4.159   4.683   6.442 -0.0526 -0.4173 -1.3574
   66SAPC   H2X 5447   4.256   4.640   6.473  0.0680  1.5207  1.1102
   66SAPC   H2Y 5448   4.104   4.601   6.391 -0.8948 -0.2498 -0.7228
   66SAPC   C23 5449   3.874   5.010   6.813  0.0538  0.7740  0.4897
   66SAPC   H3R 5450   3.885   4.902   6.788 -3.2401  0.0265  1.8952
   66SAPC   H3S 5451   3.766   5.032   6.797  0.2159  0.8887 -0.4583
   66SAPC   C24 5452   3.900   5.005   6.962 -0.4131 -0.3856  0.9922
   66SAPC   H4R 5453   4.004   4.972   6.985 -0.0668  0.3345  0.4950
   66SAPC   H4S 5454   3.841   4.914   6.987 -2.2938  0.0436 -1.6238
   66SAPC   C25 5455   3.862   5.132   7.034  0.4825 -0.3476 -0.3654
   66SAPC   H5R 5456   3.758   5.159   7.010  0.1484 -1.1535  0.1448
   66SAPC   C26 5457   3.928   5.206   7.119  0.1532  0.2670  0.6850
   66SAPC   H6R 5458   3.879   5.302   7.142  0.0208  0.9439 -2.2191
   66SAPC   C27 5459   4.066   5.175   7.174 -0.0924 -0.2307  0.5400
   66SAPC   H7R 5460   4.103   5.264   7.230 -1.2937 -0.3719  1.5642
   66SAPC   H7S 5461   4.139   5.170   7.090 -1.1261  0.1493 -0.3816
   66SAPC   C28 5462   4.084   5.049   7.254  0.3227  0.3162  0.0244
   66SAPC   H8R 5463   4.112   4.963   7.191  1.4520  0.3620  0.4463
   66SAPC   C29 5464   4.060   5.038   7.386 -0.1350  0.4662  0.2987
   66SAPC   H9R 5465   4.054   4.933   7.420 -2.7333  0.5775  0.2864
   66SAPC  C210 5466   4.025   5.141   7.485  1.1086  0.2522  0.3944
   66SAPC  H10R 5467   4.019   5.241   7.437 -1.4860  0.7915  1.7735
   66SAPC  H10S 5468   4.113   5.157   7.551  1.7853  3.2322 -1.1262
   66SAPC  C211 5469   3.910   5.118   7.578  0.8554 -0.7615 -0.1782
   66SAPC  H11R 5470   3.809   5.113   7.535  0.1996  0.5720  1.1543
   66SAPC  C212 5471   3.913   5.127   7.715  0.7857 -0.5503  0.2698
   66SAPC  H12R 5472   3.819   5.127   7.772  1.7796 -0.9910  1.9444
   66SAPC  C213 5473   4.023   5.141   7.808 -0.0619 -0.0457  0.4067
   66SAPC  H13R 5474   4.098   5.220   7.783  1.6151 -1.5532  0.5581
   66SAPC  H13S 5475   4.077   5.044   7.808 -1.2771 -0.7341  0.5409
   66SAPC  C214 5476   3.972   5.177   7.945 -0.4020  0.4742 -0.7806
   66SAPC  H14R 5477   3.935   5.279   7.963 -2.0661 -0.5018  1.6689
   66SAPC  C215 5478   3.941   5.092   8.042 -0.5029  0.0722 -0.0572
   66SAPC  H15R 5479   3.902   5.129   8.138 -1.4267 -0.1415 -0.3453
   66SAPC  C216 5480   3.958   4.941   8.045 -0.0792  0.4767 -0.0161
   66SAPC  H16R 5481   3.945   4.904   8.149  4.1537 -0.9095  0.1366
   66SAPC  H16S 5482   4.056   4.907   8.005 -1.0813 -0.2835 -1.8919
   66SAPC  C217 5483   3.856   4.858   7.957  0.3978 -0.1988  0.2066
   66SAPC  H17R 5484   3.885   4.873   7.850  0.2277 -0.6224  0.1027
   66SAPC  H17S 5485   3.749   4.885   7.968  0.1446 -1.6294  1.3266
   66SAPC  C218 5486   3.887   4.709   7.976  0.3196 -0.3754  0.1784
   66SAPC  H18R 5487   3.899   4.701   8.086  2.3043  0.7405  0.0846
   66SAPC  H18S 5488   3.978   4.667   7.927  1.1652  1.2045  0.3455
   66SAPC  C219 5489   3.775   4.614   7.950  0.4197 -0.2937  0.3881
   66SAPC  H19R 5490   3.808   4.515   7.988 -0.7355 -0.3139  1.3656
   66SAPC  H19S 5491   3.747   4.621   7.842 -2.5456 -0.3282  1.1151
   66SAPC  C220 5492   3.646   4.645   8.027 -0.2787  0.2711  0.3077
   66SAPC  H20R 5493   3.588   4.718   7.967 -0.9988 -2.3349 -2.2909
   66SAPC  H20S 5494   3.664   4.691   8.126 -0.3458  1.1759 -0.0960
   66SAPC  H20T 5495   3.581   4.555   8.038 -1.4986  1.3810  2.5145
   66SAPC   C33 5496   4.089   4.710   6.576 -0.1127 -0.4674 -0.9504
   66SAPC   H3X 5497   3.982   4.737   6.561  0.1673  1.1781 -0.1365
   66SAPC   H3Y 5498   4.143   4.792   6.629 -1.1754 -1.4183  1.6673
   66SAPC   C34 5499   4.083   4.588   6.671 -0.6045 -0.6621  0.1054
   66SAPC   H4X 5500   4.183   4.539   6.671 -1.1752 -1.8483  0.9193
   66SAPC   H4Y 5501   4.002   4.520   6.637 -0.9461 -0.1638 -0.0685
   66SAPC   C35 5502   4.048   4.617   6.824 -0.1575 -0.0203 -0.3500
   66SAPC   H5X 5503   4.091   4.710   6.866  1.7570  0.0483 -2.3713
   66SAPC   H5Y 5504   4.099   4.533   6.876  1.0361  0.1569 -1.1936
   66SAPC   C36 5505   3.901   4.610   6.849 -0.3994  0.3331 -0.2614
   66SAPC   H6X 5506   3.863   4.511   6.813 -1.5782  0.8961 -0.5844
   66SAPC   H6Y 5507   3.851   4.683   6.782 -0.4322 -0.0279 -0.6317
   66SAPC   C37 5508   3.863   4.641   6.999  0.4107  0.6024  0.1533
   66SAPC   H7X 5509   3.758   4.673   7.020 -0.2276 -0.7781 -0.8690
   66SAPC   H7Y 5510   3.930   4.725   7.029  2.5517 -0.6744 -0.9750
   66SAPC   C38 5511   3.884   4.526   7.100 -0.3137  0.1337 -0.7121
   66SAPC   H8X 5512   3.986   4.494   7.071  0.6506  1.1503  1.4267
   66SAPC   H8Y 5513   3.813   4.441   7.088 -0.4036  0.2219 -0.7991
   66SAPC   C39 5514   3.884   4.580   7.248  0.4391 -0.0316  0.2016
   66SAPC   H9X 5515   3.780   4.608   7.275 -0.2044 -0.2178 -1.9891
   66SAPC   H9Y 5516   3.948   4.671   7.247 -0.1258  0.3816  1.4899
   66SAPC  C310 5517   3.954   4.470   7.326 -0.8596 -0.0293  0.0999
   66SAPC  H10X 5518   4.060   4.460   7.293 -0.4247  3.1646  0.3648
   66SAPC  H10Y 5519   3.895   4.378   7.307  0.4226 -0.3475 -2.5740
   66SAPC  C311 5520   3.964   4.503   7.479  0.5942  0.0894  0.3239
   66SAPC  H11X 5521   3.870   4.552   7.512 -0.2627 -0.7587 -0.8248
   66SAPC  H11Y 5522   4.035   4.586   7.499 -1.1073  2.0256 -1.4286
   66SAPC  C312 5523   4.011   4.385   7.569  0.0821 -0.1517 -0.6498
   66SAPC  H12X 5524   4.120   4.370   7.557  0.0650 -0.1317 -0.8384
   66SAPC  H12Y 5525   3.968   4.287   7.539 -0.8099 -0.5982  1.9451
   66SAPC  C313 5526   3.992   4.411   7.715 -0.3879  0.0777 -0.2581
   66SAPC  H13X 5527   3.886   4.395   7.743 -0.0878  0.8336  1.3472
   66SAPC  H13Y 5528   4.015   4.515   7.747 -0.6506  0.0565  0.0037
   66SAPC  C314 5529   4.065   4.305   7.804 -0.1975 -0.6564  0.4957
   66SAPC  H14X 5530   4.171   4.299   7.771 -0.7595  1.4785 -1.8789
   66SAPC  H14Y 5531   4.020   4.212   7.763 -0.1328  0.2272 -1.6692
   66SAPC  C315 5532   4.032   4.319   7.955 -0.2101  0.3070 -0.4000
   66SAPC  H15X 5533   3.921   4.317   7.967 -0.1352  0.2497  0.3128
   66SAPC  H15Y 5534   4.043   4.426   7.985  3.2163 -0.2687  0.5835
   66SAPC  C316 5535   4.105   4.218   8.039  0.0382 -0.4845  0.7583
   66SAPC  H16X 5536   4.072   4.231   8.144  0.1912 -0.6350  0.8251
   66SAPC  H16Y 5537   4.215   4.235   8.036 -0.1724  1.0825  1.3268
   66SAPC  C317 5538   4.056   4.075   8.021  0.1003 -0.9766  0.1079
   66SAPC  H17X 5539   4.063   4.057   7.912  0.0129 -1.5440  0.1946
   66SAPC  H17Y 5540   3.948   4.068   8.047  0.9518 -0.3799  4.0914
   66SAPC  C318 5541   4.136   3.978   8.104 -0.2206 -0.3258 -0.3849
   66SAPC  H18X 5542   4.106   3.871   8.100 -0.6901 -0.1948 -0.3626
   66SAPC  H18Y 5543   4.138   4.009   8.210  1.6610 -1.5899 -0.0154
   66SAPC  H18Z 5544   4.246   3.975   8.083 -0.1259 -4.6761  0.1143
   67SAPC     N 5545   6.055   6.491   6.153  0.3260 -0.3702  0.0103
   67SAPC   C12 5546   6.126   6.452   6.280  0.6625 -0.2298 -0.5317
   67SAPC  H12A 5547   6.212   6.395   6.251  0.9134  0.0831 -0.3994
   67SAPC  H12B 5548   6.068   6.382   6.339 -0.7013  0.7326 -0.6865
   67SAPC   C13 5549   5.942   6.577   6.184  0.4227  0.1934  0.2916
   67SAPC  H13A 5550   5.906   6.603   6.085  0.6031  2.4304  0.7906
   67SAPC  H13B 5551   5.864   6.525   6.239  0.5618  0.5189  0.7923
   67SAPC  H13C 5552   5.974   6.663   6.241 -1.0741  0.1556  1.2326
   67SAPC   C14 5553   6.143   6.558   6.056  0.2670 -0.7713  0.4609
   67SAPC  H14A 5554   6.184   6.647   6.102  0.7636 -0.5737 -0.3583
   67SAPC  H14B 5555   6.223   6.498   6.015  1.7311  0.0781  1.9938
   67SAPC  H14C 5556   6.086   6.586   5.969 -0.9814  1.2545  1.8755
   67SAPC   C15 5557   6.012   6.365   6.085  0.7256  0.3977 -0.2596
   67SAPC  H15A 5558   5.957   6.389   5.996 -0.6511  3.7478  1.4013
   67SAPC  H15B 5559   6.095   6.304   6.054  0.4097  0.4150 -1.1468
   67SAPC  H15C 5560   5.938   6.312   6.143  0.4169  0.3995 -0.6481
   67SAPC   C11 5561   6.172   6.560   6.381 -0.6900  0.5224 -0.0844
   67SAPC  H11A 5562   6.213   6.514   6.474  0.8638  1.6228 -0.1974
   67SAPC  H11B 5563   6.082   6.613   6.420  0.9896  2.1578  1.7200
   67SAPC     P 5564   6.315   6.773   6.410  0.1169 -0.4048 -0.0523
   67SAPC   O13 5565   6.372   6.872   6.320 -0.1567  0.0861  0.3611
   67SAPC   O14 5566   6.203   6.819   6.495 -0.3501 -0.9063 -0.1924
   67SAPC   O12 5567   6.263   6.653   6.329  0.0554  0.3675 -0.2711
   67SAPC   O11 5568   6.435   6.705   6.496 -0.3538 -0.0205 -0.2615
   67SAPC    C1 5569   6.458   6.568   6.534  0.5122 -0.0410  0.2239
   67SAPC    HA 5570   6.426   6.486   6.466 -0.0383 -0.0718  0.5129
   67SAPC    HB 5571   6.565   6.540   6.533  1.0074  1.7659  1.6912
   67SAPC    C2 5572   6.399   6.550   6.681  0.1467 -0.3395  0.3821
   67SAPC    HS 5573   6.289   6.544   6.666  0.4198  0.4443 -2.2493
   67SAPC   O21 5574   6.451   6.662   6.757 -0.2551 -0.3263  0.2976
   67SAPC   C21 5575   6.361   6.731   6.824 -0.5954 -0.5712  0.1580
   67SAPC   O22 5576   6.238   6.713   6.825  0.2979 -0.5613 -1.1008
   67SAPC   C22 5577   6.435   6.834   6.917  0.2236 -0.5478 -0.5511
   67SAPC   H2R 5578   6.436   6.785   7.017 -1.9184 -1.2348 -0.8280
   67SAPC   H2S 5579   6.541   6.854   6.891 -0.2465  0.9428 -1.3739
   67SAPC    C3 5580   6.451   6.428   6.753  0.2078  0.0147  0.6872
   67SAPC    HX 5581   6.557   6.452   6.778 -0.0807  0.3958  1.5845
   67SAPC    HY 5582   6.435   6.339   6.688  0.1643  0.0270  0.6811
   67SAPC   O31 5583   6.379   6.407   6.882  0.6951  0.0240 -0.1221
   67SAPC   C31 5584   6.259   6.365   6.865 -0.3795  0.2197  0.9441
   67SAPC   O32 5585   6.204   6.353   6.754 -0.5647 -0.1741  0.0308
   67SAPC   C32 5586   6.201   6.344   7.007  0.3967  0.3040  0.6668
   67SAPC   H2X 5587   6.226   6.438   7.060 -0.8431  0.9339  0.1604
   67SAPC   H2Y 5588   6.260   6.266   7.058  0.1205  0.5345  1.3383
   67SAPC   C23 5589   6.348   6.960   6.940  0.1564 -0.7720 -1.0004
   67SAPC   H3R 5590   6.239   6.940   6.932 -0.0261  0.4918 -2.0735
   67SAPC   H3S 5591   6.370   7.022   6.849 -1.5162  0.8048 -0.3629
   67SAPC   C24 5592   6.397   7.039   7.065  0.4669  0.0095  0.2803
   67SAPC   H4R 5593   6.363   6.969   7.145 -1.4913  0.8086  0.1809
   67SAPC   H4S 5594   6.347   7.136   7.082  1.1419  0.1589  1.4848
   67SAPC   C25 5595   6.543   7.078   7.067  0.2057  0.0896 -0.2914
   67SAPC   H5R 5596   6.567   7.150   6.986 -0.1571 -0.6624 -1.0802
   67SAPC   C26 5597   6.640   7.040   7.157 -0.5221  0.7119  0.0229
   67SAPC   H6R 5598   6.740   7.085   7.144 -1.1315  2.2424  0.4306
   67SAPC   C27 5599   6.617   6.952   7.271  0.8329  1.0276 -0.2609
   67SAPC   H7R 5600   6.544   6.873   7.243  0.6705  1.5168 -1.2440
   67SAPC   H7S 5601   6.557   6.995   7.355 -0.4350 -0.4513 -0.3847
   67SAPC   C28 5602   6.735   6.871   7.330 -0.0200  0.1835 -0.3666
   67SAPC   H8R 5603   6.825   6.865   7.267  1.4262 -0.7310  1.7202
   67SAPC   C29 5604   6.737   6.814   7.454  0.5429 -0.2477 -0.1125
   67SAPC   H9R 5605   6.825   6.764   7.498  1.7252  1.0081 -0.9784
   67SAPC  C210 5606   6.618   6.834   7.542 -0.1317 -0.7969  0.2697
   67SAPC  H10R 5607   6.526   6.822   7.481 -0.9283 -1.7799  1.6338
   67SAPC  H10S 5608   6.610   6.936   7.586  2.9479 -0.4801  0.2014
   67SAPC  C211 5609   6.619   6.725   7.647 -0.0302 -0.7755  0.5935
   67SAPC  H11R 5610   6.620   6.624   7.603  0.4462 -0.5296  0.0319
   67SAPC  C212 5611   6.611   6.729   7.782 -0.0979  0.2149  0.1791
   67SAPC  H12R 5612   6.609   6.636   7.840 -0.5094  0.6463  0.8641
   67SAPC  C213 5613   6.594   6.847   7.878  0.4460 -0.2013 -0.2246
   67SAPC  H13R 5614   6.575   6.946   7.831  1.4382  0.8758  1.6111
   67SAPC  H13S 5615   6.690   6.864   7.932  0.6988  2.3701 -1.4200
   67SAPC  C214 5616   6.478   6.825   7.961  0.7547 -0.0709 -0.4333
   67SAPC  H14R 5617   6.380   6.830   7.910  1.2615 -0.5062 -1.4756
   67SAPC  C215 5618   6.480   6.797   8.096  0.2049  0.3798 -0.1993
   67SAPC  H15R 5619   6.383   6.764   8.136 -0.0845  1.1025 -0.2807
   67SAPC  C216 5620   6.600   6.788   8.191 -0.1277  0.0903  0.2596
   67SAPC  H16R 5621   6.589   6.871   8.264 -0.3443 -0.1505  0.5005
   67SAPC  H16S 5622   6.702   6.799   8.148  0.7726 -2.2817  1.6935
   67SAPC  C217 5623   6.618   6.657   8.271  0.2983 -0.6719  0.0870
   67SAPC  H17R 5624   6.723   6.654   8.307 -0.4053 -1.5343  2.1445
   67SAPC  H17S 5625   6.611   6.574   8.198  1.1345  1.1602 -2.1488
   67SAPC  C218 5626   6.514   6.649   8.379  0.5434 -0.3640 -0.5551
   67SAPC  H18R 5627   6.517   6.542   8.409  0.6260  0.0916  1.1323
   67SAPC  H18S 5628   6.417   6.684   8.338  1.5605  0.7365 -2.0632
   67SAPC  C219 5629   6.551   6.741   8.501 -0.0299 -0.3724 -0.3296
   67SAPC  H19R 5630   6.648   6.791   8.480 -0.1576 -0.5639 -1.4193
   67SAPC  H19S 5631   6.568   6.675   8.589 -2.7003 -0.0057  0.4935
   67SAPC  C220 5632   6.439   6.845   8.521 -0.0176 -0.4229 -0.0326
   67SAPC  H20R 5633   6.468   6.909   8.607 -0.9821  0.5844 -0.4520
   67SAPC  H20S 5634   6.346   6.790   8.547 -1.3698  1.6629 -0.3192
   67SAPC  H20T 5635   6.440   6.912   8.432  2.5352  1.1746  1.1261
   67SAPC   C33 5636   6.051   6.316   7.002  0.1442  0.3717  0.3184
   67SAPC   H3X 5637   6.041   6.232   6.930 -0.2034 -1.1570  2.0950
   67SAPC   H3Y 5638   5.996   6.408   6.970 -1.2039 -0.6264 -0.2998
   67SAPC   C34 5639   5.999   6.263   7.135  0.1654 -0.0123  0.2531
   67SAPC   H4X 5640   5.971   6.350   7.198  2.3726  1.4435 -0.7016
   67SAPC   H4Y 5641   6.079   6.203   7.184  1.5057  2.4768  1.1635
   67SAPC   C35 5642   5.883   6.157   7.120  0.3092  0.0760  0.6852
   67SAPC   H5X 5643   5.931   6.067   7.077  0.6326  0.4532  0.2493
   67SAPC   H5Y 5644   5.811   6.201   7.047 -0.6829 -0.8077  1.1245
   67SAPC   C36 5645   5.810   6.126   7.246  0.6615  0.2893 -0.1092
   67SAPC   H6X 5646   5.723   6.059   7.228  0.2645  0.8998 -0.4817
   67SAPC   H6Y 5647   5.765   6.215   7.293 -0.5998  0.6388 -1.9192
   67SAPC   C37 5648   5.885   6.055   7.364  0.0584 -0.1838  0.5522
   67SAPC   H7X 5649   5.956   6.122   7.416  1.8054 -1.7946  0.2938
   67SAPC   H7Y 5650   5.938   5.969   7.318 -0.6691 -1.5688  2.2402
   67SAPC   C38 5651   5.775   6.007   7.468 -0.4980 -0.5601  0.1419
   67SAPC   H8X 5652   5.709   5.934   7.417 -0.9178  0.6205 -1.0497
   67SAPC   H8Y 5653   5.727   6.105   7.491 -0.2317 -0.0054 -1.5754
   67SAPC   C39 5654   5.823   5.952   7.604 -0.3940 -0.2637 -0.6056
   67SAPC   H9X 5655   5.742   5.959   7.680 -0.3219  1.8138 -0.6872
   67SAPC   H9Y 5656   5.906   6.004   7.656  1.1009 -0.5023 -2.6763
   67SAPC  C310 5657   5.854   5.799   7.594 -0.0768  0.4201 -0.1795
   67SAPC  H10X 5658   5.941   5.812   7.526 -2.2959  1.7708 -2.8585
   67SAPC  H10Y 5659   5.772   5.750   7.538 -0.7819 -0.0535  1.2320
   67SAPC  C311 5660   5.875   5.742   7.737  0.0045 -0.7145 -0.2718
   67SAPC  H11X 5661   5.794   5.760   7.811  0.7914  1.3765  0.1247
   67SAPC  H11Y 5662   5.951   5.814   7.774 -0.4651 -0.3348 -0.0226
   67SAPC  C312 5663   5.909   5.591   7.738 -0.3047  0.1757 -0.5215
   67SAPC  H12X 5664   5.963   5.566   7.644  1.9664  0.8370  0.5673
   67SAPC  H12Y 5665   5.816   5.531   7.745 -0.2363  0.3286  2.3913
   67SAPC  C313 5666   6.005   5.562   7.855 -0.0736  0.7387  0.7012
   67SAPC  H13X 5667   6.088   5.636   7.844  1.2060 -0.9447 -1.5490
   67SAPC  H13Y 5668   6.054   5.462   7.849  0.7193  1.0627  1.5271
   67SAPC  C314 5669   5.944   5.576   7.990 -0.6886 -0.5147  0.2733
   67SAPC  H14X 5670   5.853   5.513   8.002 -0.5629 -0.6936  0.2740
   67SAPC  H14Y 5671   5.916   5.683   8.002  0.0455 -0.2127 -0.6726
   67SAPC  C315 5672   6.040   5.533   8.105  1.0895  0.2096 -0.0579
   67SAPC  H15X 5673   6.131   5.596   8.093 -0.0032  1.5154 -1.6719
   67SAPC  H15Y 5674   6.073   5.429   8.087  1.7214  0.4323 -0.2150
   67SAPC  C316 5675   5.977   5.555   8.241  0.5974  0.3694 -0.0647
   67SAPC  H16X 5676   5.991   5.473   8.315 -2.3845 -1.2469 -1.2116
   67SAPC  H16Y 5677   5.866   5.555   8.233  0.6463  0.4022 -0.7696
   67SAPC  C317 5678   6.033   5.680   8.315  0.0627 -0.1572  0.1027
   67SAPC  H17X 5679   6.000   5.771   8.261  0.9350 -0.5651 -1.1419
   67SAPC  H17Y 5680   6.145   5.679   8.318  0.1605  2.6460 -1.0537
   67SAPC  C318 5681   5.992   5.685   8.455  0.6617  0.1542  0.5172
   67SAPC  H18X 5682   5.882   5.694   8.465  0.4273 -0.1440 -1.4959
   67SAPC  H18Y 5683   6.010   5.787   8.495  0.4877  0.9608 -1.3934
   67SAPC  H18Z 5684   6.030   5.601   8.517  1.5439 -0.6696 -1.1050
   68SAPC     N 5685   4.465   5.121   5.948  0.2039 -0.6148 -0.0312
   68SAPC   C12 5686   4.388   5.226   6.028 -0.1906  0.2579 -0.0653
   68SAPC  H12A 5687   4.290   5.181   6.024  0.5018 -1.4742  1.7156
   68SAPC  H12B 5688   4.391   5.322   5.978  4.4384 -0.4219 -1.2565
   68SAPC   C13 5689   4.472   4.991   6.022  0.5181  0.3548 -0.7380
   68SAPC  H13A 5690   4.370   4.977   6.053  0.3524  0.4279 -1.2611
   68SAPC  H13B 5691   4.502   4.902   5.969 -1.3338  0.0689 -1.3376
   68SAPC  H13C 5692   4.542   4.991   6.105 -0.6460  1.3318  0.2663
   68SAPC   C14 5693   4.400   5.094   5.815  0.1937 -0.7850 -0.1420
   68SAPC  H14A 5694   4.309   5.040   5.836 -1.6225  2.4129  0.4929
   68SAPC  H14B 5695   4.373   5.181   5.758 -2.2106 -0.8778  0.7821
   68SAPC  H14C 5696   4.464   5.029   5.757  1.4577  2.0383 -2.0382
   68SAPC   C15 5697   4.605   5.167   5.926 -0.5887  0.7699  0.5171
   68SAPC  H15A 5698   4.614   5.264   5.881  1.2977  0.6383  0.5642
   68SAPC  H15B 5699   4.654   5.182   6.022  0.0347 -0.0713  0.3367
   68SAPC  H15C 5700   4.663   5.100   5.864 -1.0632  1.3542 -0.5589
   68SAPC   C11 5701   4.427   5.256   6.178  0.1529  0.0888  0.0352
   68SAPC  H11A 5702   4.398   5.178   6.252 -0.9792  0.3528 -0.1136
   68SAPC  H11B 5703   4.359   5.341   6.202  0.1878  0.0577  0.2509
   68SAPC     P 5704   4.622   5.442   6.205 -0.2665 -0.4565 -0.0863
   68SAPC   O13 5705   4.756   5.430   6.275 -0.0364  0.4919 -0.0458
   68SAPC   O14 5706   4.625   5.511   6.076 -0.0944  0.1804  0.1358
   68SAPC   O12 5707   4.561   5.294   6.192 -0.1685  0.4779  0.0938
   68SAPC   O11 5708   4.520   5.516   6.306  0.4779 -0.4292  0.6673
   68SAPC    C1 5709   4.560   5.638   6.369  0.5609 -0.3672  0.5140
   68SAPC    HA 5710   4.618   5.706   6.302 -1.0221  1.0805  0.5659
   68SAPC    HB 5711   4.469   5.693   6.400  1.3241  0.4811  1.2728
   68SAPC    C2 5712   4.646   5.609   6.500 -0.9649  0.0041 -0.2084
   68SAPC    HS 5713   4.732   5.543   6.478 -1.1126 -0.1849 -0.2145
   68SAPC   O21 5714   4.564   5.546   6.594 -0.0592  0.1213 -0.0011
   68SAPC   C21 5715   4.594   5.436   6.658 -0.1724  0.0279  0.7924
   68SAPC   O22 5716   4.701   5.377   6.650 -0.0437  0.3956 -0.6927
   68SAPC   C22 5717   4.490   5.396   6.758 -0.4498 -0.4479 -0.1893
   68SAPC   H2R 5718   4.403   5.361   6.700 -0.6145 -1.6427  0.7493
   68SAPC   H2S 5719   4.526   5.309   6.817  2.2603 -1.1517 -2.7750
   68SAPC    C3 5720   4.699   5.739   6.554 -0.1544  0.2783 -0.1835
   68SAPC    HX 5721   4.618   5.815   6.555  0.0979  0.5788 -1.2771
   68SAPC    HY 5722   4.781   5.773   6.487 -0.4491  1.4512  0.0302
   68SAPC   O31 5723   4.756   5.730   6.688 -0.2689  0.6788  0.3621
   68SAPC   C31 5724   4.693   5.787   6.792  0.2355 -0.4158 -0.2561
   68SAPC   O32 5725   4.599   5.863   6.786  0.0373  0.2858  0.3606
   68SAPC   C32 5726   4.757   5.749   6.928 -0.6114 -0.3008 -0.2455
   68SAPC   H2X 5727   4.858   5.794   6.919 -1.0882  0.9769  0.6079
   68SAPC   H2Y 5728   4.760   5.639   6.915 -1.5574 -0.7251  2.7759
   68SAPC   C23 5729   4.449   5.508   6.863 -0.7960  0.2777  0.1853
   68SAPC   H3R 5730   4.415   5.599   6.810  3.4825  3.2991  2.2994
   68SAPC   H3S 5731   4.536   5.546   6.922  0.5910 -2.2102 -0.1876
   68SAPC   C24 5732   4.334   5.460   6.954  0.1737  0.3226  0.1212
   68SAPC   H4R 5733   4.240   5.446   6.898 -0.1910  1.2952  0.4843
   68SAPC   H4S 5734   4.321   5.550   7.019 -0.4069  0.6339 -0.4341
   68SAPC   C25 5735   4.355   5.328   7.021  0.3254  0.4165  0.0515
   68SAPC   H5R 5736   4.329   5.243   6.955  1.2044 -0.0703  0.3285
   68SAPC   C26 5737   4.397   5.311   7.148  0.7536  0.3518  1.0011
   68SAPC   H6R 5738   4.421   5.207   7.175  2.1927  0.3686 -0.1453
   68SAPC   C27 5739   4.425   5.423   7.235 -0.0841  0.2675  0.1292
   68SAPC   H7R 5740   4.450   5.516   7.181  3.0465 -1.2345 -1.1216
   68SAPC   H7S 5741   4.518   5.380   7.280 -1.2561 -0.7144  1.6739
   68SAPC   C28 5742   4.331   5.437   7.349 -0.3448  0.6532  0.6965
   68SAPC   H8R 5743   4.225   5.438   7.322 -0.5714 -1.4656  1.4235
   68SAPC   C29 5744   4.366   5.438   7.477  0.7072  0.1149  0.0159
   68SAPC   H9R 5745   4.287   5.435   7.553 -1.1274 -2.2891 -1.9204
   68SAPC  C210 5746   4.501   5.440   7.538  0.2570  0.1100  0.7081
   68SAPC  H10R 5747   4.587   5.443   7.467  0.5104 -2.2011  0.8542
   68SAPC  H10S 5748   4.519   5.347   7.597 -2.7388  0.7336  2.7136
   68SAPC  C211 5749   4.517   5.545   7.643  0.0291 -0.8504  0.6357
   68SAPC  H11R 5750   4.440   5.624   7.650  1.3018  0.4800 -0.1193
   68SAPC  C212 5751   4.624   5.566   7.724  0.0824 -0.1654 -0.7438
   68SAPC  H12R 5752   4.627   5.656   7.787  1.9714 -1.2347  0.7586
   68SAPC  C213 5753   4.757   5.491   7.728  0.4610  0.7084  0.0474
   68SAPC  H13R 5754   4.753   5.417   7.645 -2.9380 -1.1325  1.7368
   68SAPC  H13S 5755   4.775   5.428   7.817 -0.7639  0.9580  0.4880
   68SAPC  C214 5756   4.876   5.588   7.716 -0.0580  0.7320  0.4710
   68SAPC  H14R 5757   4.879   5.640   7.812 -1.6472 -1.4136  1.7201
   68SAPC  C215 5758   4.978   5.599   7.626 -0.2435  0.2079 -0.3245
   68SAPC  H15R 5759   5.062   5.669   7.641 -1.1475  1.2897 -0.2102
   68SAPC  C216 5760   4.997   5.527   7.502  0.2616  0.7694  0.4877
   68SAPC  H16R 5761   5.061   5.437   7.514 -1.3070 -0.2231  1.6726
   68SAPC  H16S 5762   5.053   5.594   7.433  0.6158 -0.1065 -0.0810
   68SAPC  C217 5763   4.875   5.474   7.425 -0.8467  0.1380 -0.4998
   68SAPC  H17R 5764   4.782   5.534   7.428 -1.3245 -0.6374  0.6306
   68SAPC  H17S 5765   4.842   5.377   7.469 -0.2439  0.0840 -0.1613
   68SAPC  C218 5766   4.910   5.446   7.277  0.0509 -0.9051 -0.2763
   68SAPC  H18R 5767   4.936   5.544   7.233 -1.1028  0.5382  2.1374
   68SAPC  H18S 5768   4.814   5.421   7.228  0.0687  0.8892 -1.2468
   68SAPC  C219 5769   5.010   5.337   7.251  0.4652  1.0400 -0.3375
   68SAPC  H19R 5770   5.001   5.259   7.330  1.8400  1.4122  0.2069
   68SAPC  H19S 5771   5.112   5.381   7.259  0.1959  1.5511  0.4714
   68SAPC  C220 5772   4.990   5.258   7.124  0.2109  0.2535 -0.6460
   68SAPC  H20R 5773   4.903   5.193   7.148  1.4866 -0.7962  1.2193
   68SAPC  H20S 5774   5.081   5.200   7.098 -0.8859 -1.2618 -1.1699
   68SAPC  H20T 5775   4.949   5.323   7.043 -3.6962  0.7140  1.5656
   68SAPC   C33 5776   4.663   5.791   7.043  0.2897  0.2184  0.1111
   68SAPC   H3X 5777   4.566   5.736   7.039  0.0387  0.7679 -1.8300
   68SAPC   H3Y 5778   4.632   5.896   7.026 -0.5022 -0.6533 -4.6067
   68SAPC   C34 5779   4.719   5.765   7.184 -0.0182 -0.7177 -0.5647
   68SAPC   H4X 5780   4.829   5.784   7.186  0.3753 -2.9163  0.2218
   68SAPC   H4Y 5781   4.711   5.661   7.223 -1.3617 -0.0819  0.9065
   68SAPC   C35 5782   4.647   5.851   7.290  0.3657 -0.3401 -0.1975
   68SAPC   H5X 5783   4.558   5.791   7.319  0.7333 -0.0027  1.6974
   68SAPC   H5Y 5784   4.614   5.948   7.247 -0.1196 -0.1025  0.7163
   68SAPC   C36 5785   4.733   5.870   7.416  0.2609  0.4624  0.3710
   68SAPC   H6X 5786   4.782   5.775   7.445 -0.7829 -0.8784 -2.1101
   68SAPC   H6Y 5787   4.658   5.893   7.495 -2.1915 -2.9077 -0.9035
   68SAPC   C37 5788   4.841   5.983   7.398 -0.0098  0.0054  0.1603
   68SAPC   H7X 5789   4.795   6.085   7.401 -0.1087 -0.0044 -0.9733
   68SAPC   H7Y 5790   4.885   5.962   7.298 -1.4904  0.6240 -0.6414
   68SAPC   C38 5791   4.959   5.973   7.504  0.0407  0.0843 -0.0282
   68SAPC   H8X 5792   5.032   6.051   7.476 -0.0597  0.6987  1.3824
   68SAPC   H8Y 5793   5.017   5.878   7.504 -0.5170 -0.3124  3.1004
   68SAPC   C39 5794   4.922   6.003   7.649 -0.2324  0.4459  0.0576
   68SAPC   H9X 5795   4.845   5.932   7.686  0.7846 -0.7197 -0.0518
   68SAPC   H9Y 5796   4.882   6.106   7.660 -0.3740  0.2180  1.8710
   68SAPC  C310 5797   5.048   5.991   7.738  0.3046 -0.0667 -0.0877
   68SAPC  H10X 5798   5.142   6.041   7.708 -0.6113  0.4554 -2.2071
   68SAPC  H10Y 5799   5.079   5.885   7.737 -2.3797 -0.8975  0.4638
   68SAPC  C311 5800   5.014   6.020   7.891 -0.3812  0.4113 -0.0018
   68SAPC  H11X 5801   4.944   5.939   7.921 -2.2745  2.1884  0.4971
   68SAPC  H11Y 5802   4.958   6.115   7.887  1.1782  1.3398 -0.1287
   68SAPC  C312 5803   5.143   6.038   7.968  0.1016  0.1621  1.0582
   68SAPC  H12X 5804   5.174   6.139   7.932  1.4380 -0.7874 -0.5806
   68SAPC  H12Y 5805   5.215   5.958   7.940  0.7969  0.3992  2.1426
   68SAPC  C313 5806   5.136   6.049   8.112 -0.3771 -0.2308  0.1249
   68SAPC  H13X 5807   5.120   5.946   8.150 -0.4496 -1.0885 -2.1198
   68SAPC  H13Y 5808   5.048   6.113   8.133 -0.2260  0.6407 -1.7836
   68SAPC  C314 5809   5.260   6.099   8.180  0.3873 -0.0761 -0.1754
   68SAPC  H14X 5810   5.264   6.207   8.156  2.8697  0.3186  1.8316
   68SAPC  H14Y 5811   5.343   6.040   8.135  1.6043 -0.0908  2.0009
   68SAPC  C315 5812   5.263   6.087   8.333 -0.3161  0.5785 -0.6145
   68SAPC  H15X 5813   5.234   5.982   8.356  2.8225 -0.5423 -1.4982
   68SAPC  H15Y 5814   5.193   6.161   8.377  0.1083  0.3217  0.5158
   68SAPC  C316 5815   5.403   6.120   8.401  0.4033  0.5377  0.1609
   68SAPC  H16X 5816   5.415   6.110   8.511  3.2555  0.6147 -0.0931
   68SAPC  H16Y 5817   5.414   6.229   8.379  0.9641  0.3732 -0.3913
   68SAPC  C317 5818   5.523   6.042   8.350  0.0491 -0.0804  0.3185
   68SAPC  H17X 5819   5.613   6.076   8.406  1.6420  0.8442 -2.6413
   68SAPC  H17Y 5820   5.547   6.075   8.247 -0.8345 -2.0045 -0.5322
   68SAPC  C318 5821   5.501   5.889   8.338 -0.7282 -0.1257 -0.3479
   68SAPC  H18X 5822   5.420   5.884   8.263  2.1289  1.7236 -3.7072
   68SAPC  H18Y 5823   5.467   5.847   8.435 -0.8576 -0.6315 -0.6141
   68SAPC  H18Z 5824   5.588   5.829   8.302 -1.1039  0.8124 -2.9565
   69SLPC     N 5825   1.742   4.135  11.263  0.5810 -0.4356 -1.0331
   69SLPC   C13 5826   1.667   4.270  11.265  0.4314  0.6553  0.1324
   69SLPC  H13A 5827   1.592   4.268  11.187 -1.0840 -1.4864  1.6045
   69SLPC  H13B 5828   1.617   4.272  11.361  1.6644 -1.0282  0.8307
   69SLPC  H13C 5829   1.727   4.360  11.261 -0.4016  1.1827 -0.8034
   69SLPC   C14 5830   1.637   4.031  11.278 -1.0763 -0.4069 -0.8275
   69SLPC  H14A 5831   1.679   3.933  11.258 -1.5737 -0.7317 -0.3068
   69SLPC  H14B 5832   1.593   4.020  11.377  0.8695 -2.9532 -0.1902
   69SLPC  H14C 5833   1.562   4.040  11.202  0.6286 -0.1594 -2.5095
   69SLPC   C15 5834   1.834   4.125  11.375  0.5431 -0.4368  0.1658
   69SLPC  H15A 5835   1.909   4.204  11.374  1.9413 -1.7411  0.3664
   69SLPC  H15B 5836   1.783   4.132  11.470  1.0758  0.5152  0.3910
   69SLPC  H15C 5837   1.889   4.032  11.374 -0.2163 -0.9011  0.9938
   69SLPC   C12 5838   1.813   4.117  11.130 -0.0550  0.4112  0.1998
   69SLPC  H12A 5839   1.878   4.031  11.124  0.3165  0.7307 -0.3620
   69SLPC  H12B 5840   1.878   4.203  11.128  0.6796 -0.1673 -0.9673
   69SLPC   C11 5841   1.722   4.094  11.005 -0.3430  0.1438  0.0857
   69SLPC  H11A 5842   1.675   3.994  11.015 -0.1861  0.1743  1.2233
   69SLPC  H11B 5843   1.792   4.088  10.919  0.3488 -1.5034  0.7358
   69SLPC     P 5844   1.638   4.310  10.892 -0.1918 -0.0727 -0.0706
   69SLPC   O13 5845   1.514   4.397  10.901  0.2297 -0.4906 -0.8414
   69SLPC   O14 5846   1.763   4.377  10.932 -0.4607 -0.5759  0.0610
   69SLPC   O12 5847   1.619   4.185  10.983  0.1879 -0.4056  0.6427
   69SLPC   O11 5848   1.646   4.245  10.748 -0.1942  0.6548  0.2308
   69SLPC    C1 5849   1.541   4.155  10.710 -0.2135 -1.0280 -0.4696
   69SLPC    HA 5850   1.529   4.074  10.784 -2.0158  1.5971  2.2236
   69SLPC    HB 5851   1.441   4.204  10.714  0.5380  0.4069  0.8578
   69SLPC    C2 5852   1.559   4.088  10.563 -0.0880 -0.3756  0.2648
   69SLPC    HS 5853   1.663   4.050  10.564  0.0000 -0.1195  1.3129
   69SLPC   O21 5854   1.544   4.198  10.465  0.2373 -0.0248 -0.0105
   69SLPC   C21 5855   1.608   4.159  10.352 -0.3923 -0.1094 -1.2101
   69SLPC   O22 5856   1.681   4.064  10.350 -0.6468  0.0665  0.1068
   69SLPC   C22 5857   1.590   4.268  10.241 -0.1340 -0.4517 -0.1878
   69SLPC   H2R 5858   1.479   4.273  10.231  0.1773  1.3968 -3.4187
   69SLPC   H2S 5859   1.619   4.366  10.284  0.9282  0.1643 -2.2591
   69SLPC    C3 5860   1.468   3.965  10.540  0.3943  0.0949  0.0277
   69SLPC    HX 5861   1.369   4.015  10.538 -0.1755 -0.9577  1.2529
   69SLPC    HY 5862   1.453   3.896  10.626 -1.4811 -0.5897 -0.8349
   69SLPC   O31 5863   1.479   3.885  10.414  0.2804 -0.3335  0.2867
   69SLPC   C31 5864   1.580   3.786  10.430 -0.4136 -0.5411  0.3904
   69SLPC   O32 5865   1.657   3.788  10.523 -0.0073  0.3962 -0.4163
   69SLPC   C32 5866   1.560   3.685  10.316 -0.4703  0.2812  0.1073
   69SLPC   H2X 5867   1.461   3.708  10.271  0.4067  0.8252 -1.5586
   69SLPC   H2Y 5868   1.567   3.582  10.357  1.1658 -0.4265 -1.8707
   69SLPC   C23 5869   1.652   4.213  10.112  0.3608  0.6667  0.0628
   69SLPC   H3R 5870   1.615   4.111  10.086 -0.7652  1.2551 -0.6684
   69SLPC   H3S 5871   1.763   4.204  10.115  0.3845  0.2570 -1.5341
   69SLPC   C24 5872   1.621   4.314   9.999 -0.4172 -0.4584  0.9856
   69SLPC   H4R 5873   1.646   4.417  10.031 -2.1210  0.4505 -0.5815
   69SLPC   H4S 5874   1.511   4.310   9.985 -0.2801  0.4056 -0.3180
   69SLPC   C25 5875   1.699   4.301   9.870 -0.0624  0.0707 -0.3330
   69SLPC   H5R 5876   1.694   4.193   9.846  1.9336 -0.4580  1.5138
   69SLPC   H5S 5877   1.808   4.320   9.876  0.1452 -0.3093 -2.6532
   69SLPC   C26 5878   1.636   4.377   9.740  0.0173  0.6949  0.2363
   69SLPC   H6R 5879   1.677   4.479   9.755 -1.4879  1.2873  0.4417
   69SLPC   H6S 5880   1.525   4.380   9.742  0.0108 -0.0791  1.4375
   69SLPC   C27 5881   1.690   4.328   9.609 -0.1502 -0.0753 -0.9762
   69SLPC   H7R 5882   1.683   4.217   9.611  1.3979 -0.1993 -1.4259
   69SLPC   H7S 5883   1.800   4.342   9.610 -0.2427  0.6770 -1.1897
   69SLPC   C28 5884   1.618   4.385   9.484 -0.4261 -0.2417 -0.8627
   69SLPC   H8R 5885   1.624   4.495   9.475  0.2102 -0.4541 -3.3871
   69SLPC   H8S 5886   1.510   4.359   9.490 -1.0435  2.5116  0.6093
   69SLPC   C29 5887   1.664   4.321   9.351 -0.1733 -1.0435 -0.0724
   69SLPC   H9R 5888   1.682   4.213   9.367  0.1070 -1.0920 -0.6805
   69SLPC  C210 5889   1.683   4.385   9.226  0.7672  0.6589 -0.2320
   69SLPC  H10R 5890   1.712   4.318   9.144 -1.3023  1.7113 -1.8717
   69SLPC  C211 5891   1.653   4.532   9.194  0.2756  0.2479 -0.7850
   69SLPC  H11R 5892   1.752   4.583   9.186  1.6811 -2.3270 -0.6338
   69SLPC  H11S 5893   1.594   4.578   9.276  3.0618 -0.1921  1.5780
   69SLPC  C212 5894   1.573   4.547   9.070 -0.1867  0.3911 -0.1053
   69SLPC  H12R 5895   1.468   4.514   9.071 -0.1950  0.3852  3.1091
   69SLPC  C213 5896   1.638   4.593   8.958  0.6514 -0.5344  0.2494
   69SLPC  H13R 5897   1.575   4.605   8.869  0.9780 -2.8546 -0.3256
   69SLPC  C214 5898   1.782   4.636   8.936 -0.0361  0.6363 -0.2324
   69SLPC  H14R 5899   1.842   4.543   8.949  2.3109  2.2461  0.5821
   69SLPC  H14S 5900   1.810   4.711   9.012  1.1968  0.0070 -0.0564
   69SLPC  C215 5901   1.809   4.689   8.790  0.1000 -0.8678 -0.7062
   69SLPC  H15R 5902   1.906   4.741   8.805  1.1570 -2.8240 -0.5384
   69SLPC  H15S 5903   1.731   4.765   8.767 -1.5357 -1.9835  0.9985
   69SLPC  C216 5904   1.826   4.580   8.681  0.9862  0.2076  0.3363
   69SLPC  H16R 5905   1.801   4.630   8.585 -3.6969 -0.3297  1.1599
   69SLPC  H16S 5906   1.742   4.509   8.696 -0.3790  1.1319 -2.6456
   69SLPC  C217 5907   1.970   4.525   8.679 -0.4591 -0.0074 -0.1345
   69SLPC  H17R 5908   1.981   4.450   8.759  0.2236  0.3345  0.0931
   69SLPC  H17S 5909   2.035   4.614   8.696 -0.5223  0.4697 -2.2069
   69SLPC  C218 5910   2.002   4.445   8.546 -0.3580 -0.0015 -0.3138
   69SLPC  H18R 5911   2.084   4.372   8.567 -0.4166  0.4221  1.4550
   69SLPC  H18S 5912   2.019   4.505   8.454 -0.6759  1.8085  0.7862
   69SLPC  H18T 5913   1.910   4.386   8.526  0.0773 -1.2184  1.1493
   69SLPC   C33 5914   1.659   3.706  10.213  0.9163  0.4152 -0.2026
   69SLPC   H3X 5915   1.759   3.742  10.247  0.9119  0.0251  0.2225
   69SLPC   H3Y 5916   1.625   3.790  10.150  1.3139 -1.0658 -2.4648
   69SLPC   C34 5917   1.681   3.585  10.118  0.1069  0.4689 -0.0994
   69SLPC   H4X 5918   1.582   3.537  10.105  0.0001  1.4938 -3.5226
   69SLPC   H4Y 5919   1.746   3.510  10.168 -2.2755 -2.6771 -1.5763
   69SLPC   C35 5920   1.737   3.624   9.979 -0.3026  0.3764 -0.0917
   69SLPC   H5X 5921   1.842   3.655  10.000  0.2439 -2.2626  1.3653
   69SLPC   H5Y 5922   1.687   3.711   9.931 -0.1108  1.0242  0.8693
   69SLPC   C36 5923   1.737   3.500   9.885  0.9508 -0.5102  0.0140
   69SLPC   H6X 5924   1.637   3.454   9.876 -0.0976  1.6899  0.1811
   69SLPC   H6Y 5925   1.802   3.428   9.939 -0.4675 -1.1525  0.8697
   69SLPC   C37 5926   1.802   3.521   9.751  0.4066 -0.0390 -0.5310
   69SLPC   H7X 5927   1.897   3.579   9.758  0.8239 -0.9368  1.8191
   69SLPC   H7Y 5928   1.738   3.596   9.701 -1.8694 -1.8252 -0.3800
   69SLPC   C38 5929   1.797   3.391   9.667 -0.8544 -0.2054  0.1695
   69SLPC   H8X 5930   1.692   3.356   9.657 -0.2021 -1.9196 -0.8371
   69SLPC   H8Y 5931   1.858   3.306   9.704  1.4942  1.5212  0.4155
   69SLPC   C39 5932   1.837   3.413   9.516 -0.5098  0.5073  0.1826
   69SLPC   H9X 5933   1.755   3.470   9.466 -0.6000  0.3481  0.1485
   69SLPC   H9Y 5934   1.834   3.314   9.466 -4.3059 -0.1461  1.5177
   69SLPC  C310 5935   1.978   3.460   9.488  0.6832 -0.4238  0.2726
   69SLPC  H10X 5936   2.047   3.411   9.560  3.3352 -0.4314 -2.1888
   69SLPC  H10Y 5937   1.990   3.566   9.517 -0.9082 -0.1842  0.1046
   69SLPC  C311 5938   2.027   3.424   9.349  0.2353 -0.0050 -0.1490
   69SLPC  H11X 5939   2.066   3.320   9.350  0.6891  0.1381 -1.6301
   69SLPC  H11Y 5940   2.118   3.481   9.319  1.0334 -0.8370  0.6476
   69SLPC  C312 5941   1.930   3.443   9.230 -0.5011  0.1685 -0.6456
   69SLPC  H12X 5942   1.895   3.548   9.220  0.2692  0.4621 -0.3360
   69SLPC  H12Y 5943   1.840   3.382   9.253 -1.1986  1.2567 -0.4214
   69SLPC  C313 5944   1.980   3.394   9.091  0.3874 -0.1658 -1.1790
   69SLPC  H13X 5945   2.006   3.287   9.104  1.5198  0.4185  1.6765
   69SLPC  H13Y 5946   2.071   3.450   9.061  0.9234  0.0084  0.7339
   69SLPC  C314 5947   1.874   3.400   8.983  0.1880  0.1642  0.3996
   69SLPC  H14X 5948   1.819   3.497   8.989  0.1086  0.2527 -1.4738
   69SLPC  H14Y 5949   1.798   3.322   9.006 -0.4613  0.0925 -1.8170
   69SLPC  C315 5950   1.927   3.398   8.836 -0.1312  0.4228  0.7814
   69SLPC  H15X 5951   1.976   3.495   8.814 -1.6796  0.4938 -2.7267
   69SLPC  H15Y 5952   1.838   3.383   8.771  1.0008 -1.1005 -0.4574
   69SLPC  C316 5953   2.034   3.292   8.797  0.0140 -0.4570  0.3087
   69SLPC  H16X 5954   2.007   3.194   8.842 -1.9535  0.1026  0.4087
   69SLPC  H16Y 5955   2.137   3.324   8.823  1.1380 -2.9910 -0.9635
   69SLPC  C317 5956   2.045   3.290   8.644 -0.2978 -0.7354 -0.8844
   69SLPC  H17X 5957   2.141   3.238   8.624 -0.4109 -2.5688  2.8870
   69SLPC  H17Y 5958   2.066   3.386   8.591  0.0947 -0.7052 -0.6705
   69SLPC  C318 5959   1.934   3.214   8.574 -0.2785  0.4056  0.0492
   69SLPC  H18X 5960   1.955   3.189   8.467 -0.1504  1.9533 -0.3092
   69SLPC  H18Y 5961   1.841   3.275   8.580  0.8813  2.5970 -2.7828
   69SLPC  H18Z 5962   1.910   3.121   8.629  1.7252 -0.8908 -1.1907
   70SLPC     N 5963   2.743   2.282  11.179  0.3968  0.2100 -0.2767
   70SLPC   C13 5964   2.880   2.276  11.226 -0.1913  0.2904 -0.2310
   70SLPC  H13A 5965   2.882   2.306  11.330 -1.5663 -1.0918  0.2038
   70SLPC  H13B 5966   2.910   2.173  11.224 -3.1977 -0.6187 -1.4183
   70SLPC  H13C 5967   2.953   2.334  11.171  0.0996  0.8249  0.7214
   70SLPC   C14 5968   2.684   2.419  11.202  0.4007 -0.3287  0.4259
   70SLPC  H14A 5969   2.700   2.458  11.302  0.0209  3.4429 -0.9272
   70SLPC  H14B 5970   2.727   2.489  11.133 -0.6123 -0.9449 -0.8477
   70SLPC  H14C 5971   2.577   2.412  11.189  0.2189 -0.3587  1.8157
   70SLPC   C15 5972   2.663   2.189  11.279 -0.0316 -0.1113  0.3426
   70SLPC  H15A 5973   2.680   2.222  11.380  0.1614 -0.6443  0.4881
   70SLPC  H15B 5974   2.557   2.200  11.269  0.1191  1.0959  0.0034
   70SLPC  H15C 5975   2.715   2.094  11.275 -0.0569 -0.1041 -0.2196
   70SLPC   C12 5976   2.736   2.230  11.036  0.2324 -0.5702 -0.5270
   70SLPC  H12A 5977   2.814   2.158  11.017  1.1860  0.3173  0.0242
   70SLPC  H12B 5978   2.757   2.313  10.971  0.6387  2.6334  3.5108
   70SLPC   C11 5979   2.604   2.173  10.975  0.4865 -0.1408 -0.7914
   70SLPC  H11A 5980   2.581   2.088  11.042 -1.9972 -0.6109 -2.1766
   70SLPC  H11B 5981   2.607   2.131  10.872  0.1127 -0.9286 -0.4841
   70SLPC     P 5982   2.498   2.389  10.875 -0.1107 -0.0355 -0.1564
   70SLPC   O13 5983   2.443   2.500  10.954 -0.2978  0.0753 -0.3451
   70SLPC   O14 5984   2.631   2.402  10.815  0.0291 -0.1720  0.0881
   70SLPC   O12 5985   2.505   2.272  10.985 -0.3285 -0.0014  0.3797
   70SLPC   O11 5986   2.396   2.338  10.766  0.0212 -0.5849 -0.3166
   70SLPC    C1 5987   2.345   2.212  10.737  0.0986  0.0476 -0.0735
   70SLPC    HA 5988   2.407   2.132  10.782 -0.3621 -0.9775 -1.2402
   70SLPC    HB 5989   2.258   2.216  10.806 -0.3782  0.3943 -0.6959
   70SLPC    C2 5990   2.302   2.200  10.587 -0.0536 -0.8471  0.2447
   70SLPC    HS 5991   2.255   2.100  10.578  0.7357 -1.0430 -2.0230
   70SLPC   O21 5992   2.414   2.212  10.500  0.1547 -0.5628 -0.0670
   70SLPC   C21 5993   2.489   2.105  10.502  0.2788 -0.3431 -0.0030
   70SLPC   O22 5994   2.465   2.002  10.570 -0.2760  0.3063  0.0412
   70SLPC   C22 5995   2.573   2.111  10.367 -0.6175 -0.3231 -0.7183
   70SLPC   H2R 5996   2.494   2.119  10.289 -0.6657  1.9345 -0.4676
   70SLPC   H2S 5997   2.621   2.211  10.366  1.1777 -1.1392  0.6927
   70SLPC    C3 5998   2.192   2.297  10.542 -0.4169  0.3302 -0.9186
   70SLPC    HX 5999   2.215   2.398  10.582 -2.7959  0.9895 -1.1495
   70SLPC    HY 6000   2.100   2.272  10.599 -1.2103 -1.0672 -2.7521
   70SLPC   O31 6001   2.167   2.295  10.401 -0.0677  0.4477  0.3867
   70SLPC   C31 6002   2.082   2.205  10.359 -0.1012 -1.4186 -0.7151
   70SLPC   O32 6003   2.012   2.137  10.428 -0.1764  0.1289  0.0009
   70SLPC   C32 6004   2.095   2.196  10.207  0.4219  0.3479  0.1921
   70SLPC   H2X 6005   2.197   2.159  10.180  1.2335  0.8268  2.5042
   70SLPC   H2Y 6006   2.084   2.298  10.165 -0.1190  0.2847  0.1791
   70SLPC   C23 6007   2.677   2.003  10.337 -0.2787 -0.2466 -0.6243
   70SLPC   H3R 6008   2.650   1.915  10.399 -1.3148  0.2995 -0.2861
   70SLPC   H3S 6009   2.778   2.027  10.374 -0.5724  1.6903 -1.0566
   70SLPC   C24 6010   2.689   1.951  10.190  0.7398 -0.1595  0.0439
   70SLPC   H4R 6011   2.709   2.032  10.117  1.0458 -2.7755 -2.8807
   70SLPC   H4S 6012   2.593   1.905  10.158  0.7976  0.5400 -1.1853
   70SLPC   C25 6013   2.807   1.849  10.171 -0.0782  0.0428  0.4127
   70SLPC   H5R 6014   2.784   1.762  10.237  1.7471  1.1790  2.6004
   70SLPC   H5S 6015   2.895   1.902  10.213 -1.5463  1.0811  2.2589
   70SLPC   C26 6016   2.837   1.805  10.025 -0.5684  0.2408  0.1736
   70SLPC   H6R 6017   2.850   1.889   9.954  0.0907 -1.3411 -1.6007
   70SLPC   H6S 6018   2.745   1.751   9.994 -0.1162 -1.4870  1.7790
   70SLPC   C27 6019   2.965   1.718  10.013  0.1513 -0.5087  0.6549
   70SLPC   H7R 6020   2.941   1.633  10.081 -1.3626  0.0015  0.7537
   70SLPC   H7S 6021   3.054   1.776  10.046  0.3027  0.0267 -0.6718
   70SLPC   C28 6022   2.989   1.657   9.874 -0.5560 -0.2119  0.1514
   70SLPC   H8R 6023   2.902   1.588   9.865 -0.4052 -0.8493  3.0170
   70SLPC   H8S 6024   3.086   1.604   9.870  0.3108  1.2197  1.6705
   70SLPC   C29 6025   2.982   1.772   9.773 -0.3008  0.5728  0.1197
   70SLPC   H9R 6026   3.035   1.862   9.807 -1.3938  0.3522  2.5552
   70SLPC  C210 6027   2.919   1.774   9.656 -0.5993  0.0033  0.0811
   70SLPC  H10R 6028   2.932   1.861   9.590  0.3351 -0.0893  0.1373
   70SLPC  C211 6029   2.831   1.660   9.607  0.1179 -0.9808 -0.4316
   70SLPC  H11R 6030   2.740   1.707   9.563 -0.1594 -0.6835  0.4557
   70SLPC  H11S 6031   2.800   1.592   9.689 -0.5269  1.3820  1.3319
   70SLPC  C212 6032   2.916   1.584   9.506  0.9191 -0.9317 -0.5166
   70SLPC  H12R 6033   3.022   1.571   9.531  1.0001 -0.5276 -0.6415
   70SLPC  C213 6034   2.871   1.535   9.390  0.3096  0.7851  0.1234
   70SLPC  H13R 6035   2.943   1.492   9.319  1.4626 -0.5338  2.0539
   70SLPC  C214 6036   2.733   1.542   9.328 -1.1391 -0.2739 -0.5045
   70SLPC  H14R 6037   2.697   1.647   9.337  2.2535  0.8293  0.7797
   70SLPC  H14S 6038   2.669   1.471   9.386  0.0500 -0.2534  0.8462
   70SLPC  C215 6039   2.729   1.511   9.184 -0.2883  0.0324  0.0320
   70SLPC  H15R 6040   2.743   1.402   9.166  0.9571 -0.1448  1.9560
   70SLPC  H15S 6041   2.803   1.553   9.113  2.4177 -2.1226  1.4777
   70SLPC  C216 6042   2.589   1.544   9.128 -0.7270 -0.6740  0.2767
   70SLPC  H16R 6043   2.588   1.655   9.116  0.0255 -0.8708 -1.8053
   70SLPC  H16S 6044   2.508   1.512   9.197 -0.8310  1.4512  1.1998
   70SLPC  C217 6045   2.575   1.482   8.990  0.1396 -0.0859 -0.4375
   70SLPC  H17R 6046   2.594   1.372   8.993 -1.7833 -0.4000  0.6898
   70SLPC  H17S 6047   2.659   1.530   8.935  1.3543 -1.6689 -0.0205
   70SLPC  C218 6048   2.441   1.508   8.924 -0.0083  0.1989 -0.8762
   70SLPC  H18R 6049   2.437   1.453   8.828  0.3908 -3.7742  1.2749
   70SLPC  H18S 6050   2.414   1.616   8.928  2.4926  0.8482 -0.4099
   70SLPC  H18T 6051   2.374   1.465   9.002  0.5412  0.2493 -0.3683
   70SLPC   C33 6052   1.983   2.113  10.139  0.4236  0.2464  0.0739
   70SLPC   H3X 6053   1.887   2.157  10.173 -0.1040 -0.8804  0.0544
   70SLPC   H3Y 6054   1.981   2.014  10.191  1.2560  1.1075  1.8092
   70SLPC   C34 6055   1.989   2.090   9.986 -0.0924  0.2357 -0.4914
   70SLPC   H4X 6056   2.035   1.990   9.972 -2.1140 -0.4315 -2.7590
   70SLPC   H4Y 6057   2.063   2.158   9.937  0.8520 -0.3019  0.1673
   70SLPC   C35 6058   1.857   2.092   9.902 -0.7280  0.5618 -0.1586
   70SLPC   H5X 6059   1.853   2.188   9.846  0.8339  0.5276 -0.3474
   70SLPC   H5Y 6060   1.774   2.089   9.976 -0.0060  1.9637  0.7336
   70SLPC   C36 6061   1.850   1.975   9.794 -0.2109 -0.4051  0.3392
   70SLPC   H6X 6062   1.846   1.880   9.851  1.4270  0.7402  2.4193
   70SLPC   H6Y 6063   1.941   1.989   9.732 -0.7452 -0.6829 -0.5312
   70SLPC   C37 6064   1.727   1.996   9.708  0.5487  0.9826  0.0439
   70SLPC   H7X 6065   1.750   2.078   9.636 -0.4522  0.3029 -1.0650
   70SLPC   H7Y 6066   1.631   2.018   9.758  0.4653 -0.0303  0.3212
   70SLPC   C38 6067   1.709   1.853   9.635 -0.3312  0.2761 -0.2283
   70SLPC   H8X 6068   1.675   1.788   9.718 -1.5481  2.5691  1.1050
   70SLPC   H8Y 6069   1.807   1.813   9.599 -0.0183 -1.3493  2.2948
   70SLPC   C39 6070   1.611   1.853   9.523  0.0734  0.2379 -0.3936
   70SLPC   H9X 6071   1.528   1.925   9.542 -0.5006 -0.2945 -0.8815
   70SLPC   H9Y 6072   1.564   1.755   9.501 -0.5591  0.7331 -1.2685
   70SLPC  C310 6073   1.686   1.908   9.401  0.3133  0.4886  0.2385
   70SLPC  H10X 6074   1.787   1.864   9.387 -0.4126 -1.3184  0.5787
   70SLPC  H10Y 6075   1.687   2.019   9.406 -1.1264  0.5206  0.2963
   70SLPC  C311 6076   1.623   1.850   9.276 -0.4465 -0.3130  0.2673
   70SLPC  H11X 6077   1.518   1.886   9.279  0.2761  1.7728  2.2697
   70SLPC  H11Y 6078   1.608   1.740   9.286  0.4910 -0.4056  0.7447
   70SLPC  C312 6079   1.713   1.873   9.160  0.5613 -0.3801  0.5645
   70SLPC  H12X 6080   1.803   1.807   9.165  0.2519 -0.7916  0.6947
   70SLPC  H12Y 6081   1.758   1.974   9.161 -2.3458  1.0043 -1.2384
   70SLPC  C313 6082   1.633   1.847   9.028 -0.1094 -0.3507 -0.3820
   70SLPC  H13X 6083   1.680   1.898   8.942  1.1489  1.4556  1.3311
   70SLPC  H13Y 6084   1.529   1.887   9.034  0.3881  1.1111 -1.2979
   70SLPC  C314 6085   1.622   1.704   9.000 -0.0166  0.8241  0.5260
   70SLPC  H14X 6086   1.564   1.660   9.084  0.4565  0.7519  0.8144
   70SLPC  H14Y 6087   1.722   1.656   8.998  0.8422  2.5361  1.4720
   70SLPC  C315 6088   1.553   1.673   8.859 -0.2071  0.0086 -0.3780
   70SLPC  H15X 6089   1.461   1.732   8.835 -1.7574 -2.2758 -0.2072
   70SLPC  H15Y 6090   1.512   1.570   8.861  0.2436 -0.2018 -1.6483
   70SLPC  C316 6091   1.652   1.692   8.744  0.6779  0.1004  0.4997
   70SLPC  H16X 6092   1.750   1.642   8.762  1.2368  0.6583 -0.9456
   70SLPC  H16Y 6093   1.678   1.800   8.742  2.3780 -0.2984 -0.1633
   70SLPC  C317 6094   1.590   1.651   8.605 -0.2225 -0.0544 -0.2027
   70SLPC  H17X 6095   1.500   1.715   8.591  0.0294  0.2680 -0.3420
   70SLPC  H17Y 6096   1.566   1.542   8.609  2.3179 -0.7283 -2.2445
   70SLPC  C318 6097   1.688   1.684   8.498 -0.2302  0.4020  0.5361
   70SLPC  H18X 6098   1.786   1.634   8.515  1.0110  1.2670 -3.5839
   70SLPC  H18Y 6099   1.697   1.795   8.497  1.9243  0.2462  0.9984
   70SLPC  H18Z 6100   1.647   1.645   8.402  1.0625  1.3988 -0.4380
   71SLPC     N 6101   2.045   0.265  10.826  0.4608  0.4380  0.3983
   71SLPC   C13 6102   2.166   0.182  10.872 -0.6835  0.5329 -0.2406
   71SLPC  H13A 6103   2.247   0.205  10.804 -0.4876  4.1197  1.0713
   71SLPC  H13B 6104   2.192   0.213  10.972 -2.5103  1.5274 -0.0392
   71SLPC  H13C 6105   2.149   0.077  10.888  1.9710  0.4681  2.5098
   71SLPC   C14 6106   2.079   0.417  10.837 -0.4399 -0.3183 -0.1757
   71SLPC  H14A 6107   1.992   0.478  10.820 -1.9845 -2.7057 -1.1677
   71SLPC  H14B 6108   2.101   0.433  10.942  2.1844 -2.4849 -0.3141
   71SLPC  H14C 6109   2.165   0.440  10.775 -0.2724  0.5971  0.3891
   71SLPC   C15 6110   1.926   0.232  10.913  0.0549 -1.0129 -0.6228
   71SLPC  H15A 6111   1.903   0.126  10.909  0.2031 -1.1706  1.7739
   71SLPC  H15B 6112   1.952   0.256  11.015  1.2121  0.3945 -1.2297
   71SLPC  H15C 6113   1.840   0.293  10.889  1.1434  1.2730  1.0571
   71SLPC   C12 6114   2.009   0.230  10.684  0.1653 -0.4553 -0.2448
   71SLPC  H12A 6115   1.902   0.244  10.679 -0.2990 -2.6537  2.0493
   71SLPC  H12B 6116   2.024   0.123  10.681 -0.5619 -0.5383 -1.1789
   71SLPC   C11 6117   2.077   0.302  10.568 -0.0481  0.4883  1.2326
   71SLPC  H11A 6118   2.075   0.413  10.571 -3.4835  0.4921  0.2691
   71SLPC  H11B 6119   2.027   0.280  10.472 -1.0108  0.8523  1.6492
   71SLPC     P 6120   2.325   0.339  10.486 -0.0073 -0.3791 -0.1131
   71SLPC   O13 6121   2.346   0.480  10.536  0.4295  0.2243  0.3889
   71SLPC   O14 6122   2.444   0.251  10.473 -0.2902 -0.3316 -0.6809
   71SLPC   O12 6123   2.215   0.254  10.561  0.1328 -0.7669 -0.8119
   71SLPC   O11 6124   2.254   0.341  10.341 -0.0589 -0.1158  0.2981
   71SLPC    C1 6125   2.228   0.478  10.292 -0.2810 -0.2737  0.4852
   71SLPC    HA 6126   2.152   0.535  10.350  0.8565  3.5068 -1.6065
   71SLPC    HB 6127   2.324   0.532  10.279 -0.8013  1.0976  2.2107
   71SLPC    C2 6128   2.163   0.471  10.155  0.4193 -0.3476 -0.7668
   71SLPC    HS 6129   2.113   0.569  10.138  0.8070  0.0004  0.0383
   71SLPC   O21 6130   2.075   0.364  10.145 -0.0910  0.4012 -0.1740
   71SLPC   C21 6131   1.969   0.366  10.211 -0.3079  0.3526 -0.1000
   71SLPC   O22 6132   1.924   0.463  10.269 -0.0690 -0.9046  0.2481
   71SLPC   C22 6133   1.895   0.233  10.211  0.5035  0.3275 -0.0533
   71SLPC   H2R 6134   1.971   0.155  10.189  0.4036  0.4370 -0.7817
   71SLPC   H2S 6135   1.849   0.232  10.312  1.6158 -1.8541  0.4642
   71SLPC    C3 6136   2.276   0.450  10.045  1.0846  0.5610  0.6630
   71SLPC    HX 6137   2.337   0.361  10.069 -0.0139 -1.8418 -4.7857
   71SLPC    HY 6138   2.338   0.539  10.067 -2.7906  3.6926 -0.4697
   71SLPC   O31 6139   2.229   0.450   9.908 -0.2694  0.3517 -0.0016
   71SLPC   C31 6140   2.243   0.331   9.845 -0.0795 -0.7580 -0.1773
   71SLPC   O32 6141   2.259   0.222   9.899  0.5431  0.0518 -0.0085
   71SLPC   C32 6142   2.251   0.351   9.698  0.5028  0.2516 -0.2801
   71SLPC   H2X 6143   2.264   0.248   9.659 -2.1812 -0.6304  1.0056
   71SLPC   H2Y 6144   2.330   0.421   9.662 -0.9042  1.8877 -0.2355
   71SLPC   C23 6145   1.788   0.212  10.097 -0.8187 -0.0733  0.3692
   71SLPC   H3R 6146   1.753   0.312  10.064 -0.1162 -0.3894 -1.4216
   71SLPC   H3S 6147   1.705   0.149  10.136 -0.7445 -0.3038  0.1612
   71SLPC   C24 6148   1.858   0.134   9.980 -0.6650 -0.4343  0.2623
   71SLPC   H4R 6149   1.833   0.025   9.986 -1.0564 -0.2596  2.1390
   71SLPC   H4S 6150   1.968   0.151   9.978 -0.3967 -1.4617  3.2290
   71SLPC   C25 6151   1.800   0.192   9.846  0.2817 -0.4089  0.2724
   71SLPC   H5R 6152   1.825   0.299   9.859 -2.2760  0.4482 -1.5054
   71SLPC   H5S 6153   1.692   0.166   9.842  0.7629 -2.4312  0.1377
   71SLPC   C26 6154   1.846   0.115   9.719  0.4770  0.2328  0.0402
   71SLPC   H6R 6155   1.830   0.007   9.743  1.2661 -0.1004 -0.9331
   71SLPC   H6S 6156   1.950   0.144   9.693  0.1726 -1.1489 -2.9298
   71SLPC   C27 6157   1.757   0.151   9.606  0.4943  0.9598  0.6017
   71SLPC   H7R 6158   1.765   0.260   9.588  2.0872  0.5741 -1.1879
   71SLPC   H7S 6159   1.652   0.135   9.639 -0.4032  2.6237 -1.4066
   71SLPC   C28 6160   1.769   0.060   9.479 -0.2044  0.4000 -0.3380
   71SLPC   H8R 6161   1.680   0.082   9.416  1.1282  0.5951 -2.1913
   71SLPC   H8S 6162   1.754  -0.049   9.497  1.7220  0.4139  1.5341
   71SLPC   C29 6163   1.894   0.079   9.397  0.2632  0.4712  0.1516
   71SLPC   H9R 6164   1.986   0.071   9.457  0.2435 -1.1422 -0.0083
   71SLPC  C210 6165   1.911   0.109   9.270  0.2578 -0.0370  0.1171
   71SLPC  H10R 6166   2.007   0.135   9.224 -0.4351 -1.7209 -2.3576
   71SLPC  C211 6167   1.792   0.126   9.172 -0.6691 -0.8412 -0.3707
   71SLPC  H11R 6168   1.705   0.167   9.227 -1.6528  0.1866 -2.6538
   71SLPC  H11S 6169   1.757   0.027   9.136 -0.0521 -1.3451  0.3919
   71SLPC  C212 6170   1.829   0.228   9.063 -0.5640  0.2045 -0.3439
   71SLPC  H12R 6171   1.866   0.320   9.110 -1.0679  0.1638  0.1400
   71SLPC  C213 6172   1.808   0.221   8.928  0.6064  0.3665 -0.1246
   71SLPC  H13R 6173   1.829   0.304   8.858 -0.1607  0.8720  0.2420
   71SLPC  C214 6174   1.734   0.100   8.868 -0.4268 -1.0162 -0.5283
   71SLPC  H14R 6175   1.794   0.009   8.887  1.0497  0.1230  0.3639
   71SLPC  H14S 6176   1.726   0.114   8.758 -0.1137  3.6288 -0.0834
   71SLPC  C215 6177   1.586   0.061   8.900  0.2100 -0.2341  0.3554
   71SLPC  H15R 6178   1.526   0.153   8.885 -0.6578 -0.9927 -0.8434
   71SLPC  H15S 6179   1.591   0.046   9.010 -0.6245  0.6239  0.5089
   71SLPC  C216 6180   1.539  -0.062   8.810 -0.5976  0.5232  0.3936
   71SLPC  H16R 6181   1.562  -0.049   8.703 -0.3886 -2.0294  0.0833
   71SLPC  H16S 6182   1.429  -0.077   8.811 -0.8325  1.9968 -1.2534
   71SLPC  C217 6183   1.613  -0.187   8.860 -0.3649 -0.5723  0.0699
   71SLPC  H17R 6184   1.611  -0.200   8.971  2.8095 -0.2543  0.2158
   71SLPC  H17S 6185   1.723  -0.182   8.842  0.0600 -1.6673  2.1720
   71SLPC  C218 6186   1.574  -0.312   8.796 -0.3361 -0.6383  0.6953
   71SLPC  H18R 6187   1.634  -0.400   8.827  0.0636 -0.7823 -0.4713
   71SLPC  H18S 6188   1.565  -0.309   8.685 -0.7291 -0.0745  0.7401
   71SLPC  H18T 6189   1.481  -0.349   8.843  0.1877 -0.9919  1.4676
   71SLPC   C33 6190   2.123   0.402   9.632  0.3737 -0.1821  0.1043
   71SLPC   H3X 6191   2.117   0.512   9.648 -0.0537 -0.0803 -0.7554
   71SLPC   H3Y 6192   2.031   0.351   9.669  1.0401 -0.3896  1.5232
   71SLPC   C34 6193   2.132   0.384   9.481 -0.9438 -0.3307  0.1201
   71SLPC   H4X 6194   2.027   0.384   9.445 -1.5377  0.5796  1.8057
   71SLPC   H4Y 6195   2.180   0.289   9.449 -0.0119 -0.3078  1.4184
   71SLPC   C35 6196   2.207   0.488   9.407 -0.6076 -0.4379  0.1924
   71SLPC   H5X 6197   2.309   0.503   9.450 -0.1087 -1.1200 -0.7314
   71SLPC   H5Y 6198   2.163   0.586   9.434  2.2077  0.5418  1.5067
   71SLPC   C36 6199   2.217   0.472   9.259  0.6426  0.5347 -0.0819
   71SLPC   H6X 6200   2.268   0.374   9.251  1.0133  0.7520 -0.4278
   71SLPC   H6Y 6201   2.280   0.557   9.225  0.2862  1.5212  1.7102
   71SLPC   C37 6202   2.089   0.475   9.184  0.4883  0.2797 -0.1038
   71SLPC   H7X 6203   2.022   0.553   9.228  1.2718  1.4447 -0.9495
   71SLPC   H7Y 6204   2.037   0.377   9.186 -0.3142  0.6320 -2.1813
   71SLPC   C38 6205   2.104   0.518   9.037  0.7548  0.4153  0.3094
   71SLPC   H8X 6206   2.137   0.625   9.043  0.6525  0.4524  0.2054
   71SLPC   H8Y 6207   2.005   0.509   8.988  1.0053 -0.4870 -0.0424
   71SLPC   C39 6208   2.203   0.432   8.959 -0.4800 -0.0364  0.7247
   71SLPC   H9X 6209   2.164   0.328   8.958 -0.1604 -0.1563  0.5332
   71SLPC   H9Y 6210   2.302   0.437   9.009 -0.7574 -1.0976  1.3795
   71SLPC  C310 6211   2.213   0.471   8.814 -0.0970 -0.5610  0.2242
   71SLPC  H10X 6212   2.117   0.466   8.758  0.0119 -0.5241  0.0343
   71SLPC  H10Y 6213   2.273   0.390   8.767  1.0098  0.1315  0.4195
   71SLPC  C311 6214   2.273   0.610   8.786 -0.1248 -0.1761  0.2756
   71SLPC  H11X 6215   2.272   0.680   8.873  0.7015  0.5868 -0.3282
   71SLPC  H11Y 6216   2.208   0.662   8.712  0.1784  1.5014  1.1420
   71SLPC  C312 6217   2.401   0.609   8.708  0.5774  0.1442  0.2640
   71SLPC  H12X 6218   2.413   0.708   8.659 -1.5301  0.3010  0.0038
   71SLPC  H12Y 6219   2.398   0.530   8.631 -0.4749  0.4905 -0.0544
   71SLPC  C313 6220   2.514   0.586   8.814 -0.3533  0.4183  0.0674
   71SLPC  H13X 6221   2.494   0.495   8.874 -2.9802  1.0999  0.2963
   71SLPC  H13Y 6222   2.509   0.665   8.892 -3.5984  0.1484  0.2039
   71SLPC  C314 6223   2.651   0.586   8.742 -0.6607  0.4331  0.3074
   71SLPC  H14X 6224   2.658   0.656   8.656 -2.0312 -0.9094 -0.9458
   71SLPC  H14Y 6225   2.680   0.484   8.707 -1.4554  0.2587  0.1478
   71SLPC  C315 6226   2.774   0.615   8.833 -0.3529  0.0008 -0.6374
   71SLPC  H15X 6227   2.873   0.582   8.795 -0.1295  0.7260 -0.7012
   71SLPC  H15Y 6228   2.751   0.558   8.926  0.4692 -0.3418 -0.6469
   71SLPC  C316 6229   2.796   0.765   8.866 -0.6120  0.5873  0.2682
   71SLPC  H16X 6230   2.870   0.760   8.949 -1.8356 -0.9661  1.2933
   71SLPC  H16Y 6231   2.696   0.807   8.886 -1.0475 -0.7036  0.9067
   71SLPC  C317 6232   2.862   0.847   8.757 -0.3418 -0.1566  0.0383
   71SLPC  H17X 6233   2.803   0.845   8.663 -2.1544 -0.4417  1.1636
   71SLPC  H17Y 6234   2.960   0.801   8.732 -1.4255 -1.7089 -1.4511
   71SLPC  C318 6235   2.906   0.982   8.810  0.4052  0.1216 -0.8827
   71SLPC  H18X 6236   2.943   1.048   8.728  1.6169  0.4080 -0.1139
   71SLPC  H18Y 6237   2.992   0.980   8.880 -0.0385  0.0773 -0.3355
   71SLPC  H18Z 6238   2.816   1.033   8.849  1.0094  0.3429  0.2340
   72SLPC     N 6239   3.214   6.364  10.727  0.2251  0.0727  0.5394
   72SLPC   C13 6240   3.327   6.284  10.679  0.1043  0.6208  0.1432
   72SLPC  H13A 6241   3.310   6.180  10.705 -0.3352  0.3027 -1.3643
   72SLPC  H13B 6242   3.348   6.281  10.573 -1.2165  0.1876 -0.1177
   72SLPC  H13C 6243   3.421   6.317  10.721  0.1666  2.8259 -1.6358
   72SLPC   C14 6244   3.229   6.506  10.683  0.2958 -0.4669  0.0145
   72SLPC  H14A 6245   3.159   6.581  10.717  2.7479  2.5925 -1.4681
   72SLPC  H14B 6246   3.329   6.539  10.709 -0.7233  1.7717  1.2237
   72SLPC  H14C 6247   3.230   6.503  10.575 -1.0429 -0.4464 -0.0031
   72SLPC   C15 6248   3.223   6.359  10.878 -0.9181  0.3670 -0.5577
   72SLPC  H15A 6249   3.241   6.259  10.915  1.4570  0.2742 -1.8258
   72SLPC  H15B 6250   3.301   6.428  10.908  0.5704 -0.9587 -1.2379
   72SLPC  H15C 6251   3.129   6.394  10.916 -1.2553 -1.7090  0.6258
   72SLPC   C12 6252   3.093   6.309  10.667  0.0757  0.1980  1.3914
   72SLPC  H12A 6253   3.098   6.311  10.559  0.4210  1.4484  1.4203
   72SLPC  H12B 6254   3.018   6.385  10.682  0.0927  0.8719 -1.6748
   72SLPC   C11 6255   3.054   6.167  10.716 -0.7757 -0.6660 -0.1212
   72SLPC  H11A 6256   2.948   6.147  10.687 -0.5437 -0.0268 -1.4252
   72SLPC  H11B 6257   3.075   6.166  10.825  1.4927 -2.3886 -0.5361
   72SLPC     P 6258   3.129   5.917  10.699 -0.1870 -0.2576  0.3152
   72SLPC   O13 6259   3.261   5.907  10.760  0.0327  0.9208  0.4009
   72SLPC   O14 6260   3.013   5.880  10.782 -0.0926  0.1617 -0.4529
   72SLPC   O12 6261   3.118   6.066  10.643 -0.0856  0.2494  0.2022
   72SLPC   O11 6262   3.130   5.846  10.557  0.3191  0.1857  0.9665
   72SLPC    C1 6263   3.261   5.854  10.484  0.1515  0.2223 -0.4038
   72SLPC    HA 6264   3.273   5.955  10.441  1.4364  1.2644  2.2893
   72SLPC    HB 6265   3.342   5.816  10.550 -0.3453 -0.0221  0.0709
   72SLPC    C2 6266   3.247   5.758  10.363 -0.0947 -0.4713  0.6114
   72SLPC    HS 6267   3.252   5.656  10.406 -2.3298 -1.6875 -1.8537
   72SLPC   O21 6268   3.358   5.784  10.274  0.0555 -0.4717 -0.4043
   72SLPC   C21 6269   3.432   5.685  10.235  0.6205  0.1571 -0.6505
   72SLPC   O22 6270   3.429   5.574  10.279  0.1152  0.4273 -0.5514
   72SLPC   C22 6271   3.526   5.734  10.122 -0.9682 -0.4140 -0.1317
   72SLPC   H2R 6272   3.565   5.833  10.156 -0.5059 -0.6948  0.1537
   72SLPC   H2S 6273   3.596   5.650  10.102  0.7761  0.2667  2.7547
   72SLPC    C3 6274   3.110   5.779  10.290 -0.2742  0.4664  0.2928
   72SLPC    HX 6275   3.100   5.889  10.280 -2.6450  0.1227 -1.6169
   72SLPC    HY 6276   3.031   5.737  10.355 -0.7097 -0.7224 -0.9867
   72SLPC   O31 6277   3.110   5.701  10.167 -0.3825  0.3312  0.4142
   72SLPC   C31 6278   3.058   5.760  10.062 -0.0431  0.4868  0.0195
   72SLPC   O32 6279   3.019   5.877  10.063  1.0860 -0.0685  0.1780
   72SLPC   C32 6280   3.069   5.672   9.938 -0.5486 -0.1142  0.1009
   72SLPC   H2X 6281   2.994   5.593   9.959  0.1752 -0.7264  0.4010
   72SLPC   H2Y 6282   3.167   5.621   9.935  0.3364  1.5163  0.5111
   72SLPC   C23 6283   3.461   5.761   9.980 -0.3380 -0.3626  0.3513
   72SLPC   H3R 6284   3.511   5.841   9.922  2.9074 -0.8282  2.3674
   72SLPC   H3S 6285   3.357   5.793  10.001 -1.1520 -1.4522 -1.9230
   72SLPC   C24 6286   3.451   5.638   9.903 -0.3927  0.3178 -0.8533
   72SLPC   H4R 6287   3.363   5.629   9.836 -1.0709 -1.6972  0.2530
   72SLPC   H4S 6288   3.426   5.557   9.976 -1.2591  1.4534  0.1442
   72SLPC   C25 6289   3.578   5.592   9.831  0.4091  0.3283 -0.5929
   72SLPC   H5R 6290   3.584   5.482   9.845 -0.9499  0.0870 -1.8649
   72SLPC   H5S 6291   3.671   5.632   9.877  0.3778 -1.3009  0.9204
   72SLPC   C26 6292   3.580   5.629   9.683  0.4271  0.1854  0.0448
   72SLPC   H6R 6293   3.677   5.606   9.634 -1.1024  0.4122 -3.2577
   72SLPC   H6S 6294   3.572   5.738   9.667 -0.0136  0.1053 -0.3097
   72SLPC   C27 6295   3.471   5.569   9.597 -0.3626  0.5531 -0.2942
   72SLPC   H7R 6296   3.385   5.638   9.609 -0.7227  0.0737 -0.0797
   72SLPC   H7S 6297   3.447   5.465   9.627  0.1248  1.1322  2.1792
   72SLPC   C28 6298   3.512   5.542   9.447  0.2004 -0.3069  0.5420
   72SLPC   H8R 6299   3.423   5.485   9.411  1.6022  0.0170 -3.6594
   72SLPC   H8S 6300   3.598   5.473   9.452 -1.0940 -1.8753  1.5707
   72SLPC   C29 6301   3.544   5.672   9.374  0.5201 -0.4591 -0.2268
   72SLPC   H9R 6302   3.636   5.722   9.406 -0.7143  0.3444  2.1727
   72SLPC  C210 6303   3.478   5.718   9.262  0.8764 -0.2105  0.2004
   72SLPC  H10R 6304   3.510   5.813   9.217  1.1753  0.1164  1.0862
   72SLPC  C211 6305   3.365   5.644   9.193 -0.2113  0.1960 -0.3200
   72SLPC  H11R 6306   3.318   5.712   9.119 -0.3944 -0.0895 -0.4631
   72SLPC  H11S 6307   3.293   5.613   9.272 -0.2960  3.1989  0.8662
   72SLPC  C212 6308   3.408   5.517   9.118  1.0967 -0.7027  0.1299
   72SLPC  H12R 6309   3.485   5.455   9.166  1.2755 -0.3128  0.3462
   72SLPC  C213 6310   3.360   5.472   8.999 -0.4275 -0.1374 -0.7121
   72SLPC  H13R 6311   3.416   5.381   8.972  0.7751  0.2453  0.4717
   72SLPC  C214 6312   3.256   5.535   8.905 -0.4741  0.2378 -0.9211
   72SLPC  H14R 6313   3.306   5.587   8.820  0.2143  2.7409  0.9811
   72SLPC  H14S 6314   3.185   5.605   8.954  0.7569  0.7173  0.1902
   72SLPC  C215 6315   3.173   5.428   8.830  0.1191 -0.0494  0.0066
   72SLPC  H15R 6316   3.098   5.386   8.900  0.0966  0.8822  0.5507
   72SLPC  H15S 6317   3.237   5.345   8.794 -0.7542 -0.3240 -0.9524
   72SLPC  C216 6318   3.079   5.483   8.710  0.4909  0.2716 -0.4533
   72SLPC  H16R 6319   3.028   5.580   8.731  0.7404  0.5744 -1.2389
   72SLPC  H16S 6320   3.000   5.406   8.698 -0.9335  1.5028  0.8219
   72SLPC  C217 6321   3.160   5.493   8.585  0.4815 -0.4851 -0.3847
   72SLPC  H17R 6322   3.231   5.408   8.583  1.1536  0.0587 -0.1742
   72SLPC  H17S 6323   3.222   5.585   8.578 -1.4562  0.7423 -2.0443
   72SLPC  C218 6324   3.077   5.488   8.454  0.8824  0.5846 -0.1595
   72SLPC  H18R 6325   3.039   5.385   8.433 -0.8943  1.0808  0.5359
   72SLPC  H18S 6326   3.140   5.522   8.369  0.6329 -0.4114 -0.7592
   72SLPC  H18T 6327   2.988   5.554   8.459  0.7831  0.6714 -2.4213
   72SLPC   C33 6328   3.043   5.749   9.809  0.0954  0.1299 -0.5180
   72SLPC   H3X 6329   3.131   5.807   9.775 -0.9096  1.3177 -1.1570
   72SLPC   H3Y 6330   2.974   5.832   9.834  0.2373  0.0687  0.0623
   72SLPC   C34 6331   3.006   5.674   9.680  0.2985 -0.3089 -0.1493
   72SLPC   H4X 6332   2.897   5.652   9.686  0.3708 -1.2160 -1.6248
   72SLPC   H4Y 6333   3.062   5.580   9.662 -2.3142 -1.8097 -0.7742
   72SLPC   C35 6334   3.032   5.750   9.550  0.2245  0.5190  0.5208
   72SLPC   H5X 6335   3.140   5.761   9.525  0.6515 -3.6962  0.2458
   72SLPC   H5Y 6336   3.014   5.859   9.561  0.3441  1.1168 -4.1701
   72SLPC   C36 6337   2.962   5.695   9.426 -0.2708 -0.8286 -0.0226
   72SLPC   H6X 6338   2.853   5.681   9.447 -0.1949  0.4476  1.2437
   72SLPC   H6Y 6339   3.002   5.597   9.391 -0.1741 -1.6701  2.3502
   72SLPC   C37 6340   2.994   5.781   9.303 -0.0603  0.0511  0.6609
   72SLPC   H7X 6341   3.104   5.770   9.293 -0.1446 -0.9550  0.8370
   72SLPC   H7Y 6342   2.978   5.888   9.330  1.3361  0.4057  0.1622
   72SLPC   C38 6343   2.928   5.744   9.175 -0.6412 -0.0134  0.2998
   72SLPC   H8X 6344   2.819   5.729   9.188 -0.6418  2.2422  3.4610
   72SLPC   H8Y 6345   2.957   5.646   9.133 -1.8397 -0.4285  0.4273
   72SLPC   C39 6346   2.962   5.850   9.065  0.6297  1.0069 -0.7212
   72SLPC   H9X 6347   3.067   5.851   9.029  1.2064  1.5612  0.9605
   72SLPC   H9Y 6348   2.938   5.945   9.116 -0.2641  0.2952  0.2169
   72SLPC  C310 6349   2.886   5.831   8.935 -0.6759  0.1462  0.9574
   72SLPC  H10X 6350   2.777   5.853   8.939 -0.4520  1.7752 -1.2349
   72SLPC  H10Y 6351   2.887   5.729   8.891 -0.0043  0.1063  1.0483
   72SLPC  C311 6352   2.952   5.920   8.822  0.3300 -0.0931 -0.5596
   72SLPC  H11X 6353   3.028   5.847   8.787 -0.2115 -0.3613 -1.1824
   72SLPC  H11Y 6354   2.999   6.011   8.865  2.3629 -0.8272 -1.1471
   72SLPC  C312 6355   2.868   5.958   8.704 -0.2616  0.9060 -0.4972
   72SLPC  H12X 6356   2.790   6.026   8.744 -0.6536 -0.5096  1.2223
   72SLPC  H12Y 6357   2.802   5.876   8.667 -1.4867  1.5703  0.1709
   72SLPC  C313 6358   2.930   6.030   8.585  0.2152 -0.2483  0.5835
   72SLPC  H13X 6359   2.989   6.118   8.619  1.5776 -1.8222  2.4744
   72SLPC  H13Y 6360   2.857   6.058   8.507  0.0098 -1.3092  0.3826
   72SLPC  C314 6361   3.027   5.939   8.499 -0.3900 -0.4203 -0.7929
   72SLPC  H14X 6362   2.971   5.848   8.468 -2.1977  1.6102 -3.6802
   72SLPC  H14Y 6363   3.118   5.912   8.557 -1.8495  0.7741  2.1592
   72SLPC  C315 6364   3.062   6.010   8.365  0.1054 -0.6043  0.3197
   72SLPC  H15X 6365   3.103   6.111   8.388 -1.5877  0.4584 -1.2218
   72SLPC  H15Y 6366   2.972   6.034   8.305  1.9788 -0.1995 -2.4038
   72SLPC  C316 6367   3.165   5.944   8.270  0.1963  0.3046  0.6660
   72SLPC  H16X 6368   3.140   5.838   8.248  0.0323 -0.0665  2.5171
   72SLPC  H16Y 6369   3.262   5.949   8.323  0.6247 -0.3908 -0.0591
   72SLPC  C317 6370   3.196   6.012   8.138 -0.0621  0.1299 -0.2405
   72SLPC  H17X 6371   3.108   6.038   8.076 -0.3079 -0.0784  0.0231
   72SLPC  H17Y 6372   3.253   5.940   8.075  1.0075  0.4956  0.3011
   72SLPC  C318 6373   3.273   6.150   8.143  0.1528 -0.1331 -0.1518
   72SLPC  H18X 6374   3.285   6.176   8.035 -0.2926 -0.9211 -0.3974
   72SLPC  H18Y 6375   3.377   6.130   8.178 -0.0866  0.6222  0.9956
   72SLPC  H18Z 6376   3.229   6.234   8.200 -0.8014  1.9163 -3.6977
   73SLPC     N 6377   3.430   4.492  10.768 -0.5391 -0.1572  0.5620
   73SLPC   C13 6378   3.361   4.608  10.825  0.3999 -0.1970 -0.3193
   73SLPC  H13A 6379   3.270   4.633  10.773 -0.1841  0.2309  0.8735
   73SLPC  H13B 6380   3.319   4.586  10.922  0.2200  1.9716  0.1133
   73SLPC  H13C 6381   3.426   4.693  10.839 -1.4072  0.8463  2.2066
   73SLPC   C14 6382   3.550   4.469  10.855  0.2390  0.1945 -0.2714
   73SLPC  H14A 6383   3.515   4.473  10.957 -0.6981 -1.9751 -0.4786
   73SLPC  H14B 6384   3.593   4.372  10.841  0.0436  0.2703 -1.4599
   73SLPC  H14C 6385   3.623   4.549  10.855  0.5140 -0.0504 -0.7937
   73SLPC   C15 6386   3.474   4.516  10.628  0.4373  0.3117 -0.7219
   73SLPC  H15A 6387   3.515   4.425  10.589 -2.3753 -0.7692 -1.2920
   73SLPC  H15B 6388   3.388   4.546  10.569 -0.8550  0.4720  1.2028
   73SLPC  H15C 6389   3.550   4.593  10.618  0.4387  0.1020 -2.6748
   73SLPC   C12 6390   3.338   4.379  10.779 -0.9924  0.4130  0.1946
   73SLPC  H12A 6391   3.251   4.392  10.716 -0.3349 -2.4929 -1.4196
   73SLPC  H12B 6392   3.298   4.357  10.876 -1.2385  1.9936  0.4661
   73SLPC   C11 6393   3.386   4.234  10.722 -0.0161 -1.3489  0.6377
   73SLPC  H11A 6394   3.416   4.267  10.620 -1.4599 -0.3035  0.5337
   73SLPC  H11B 6395   3.295   4.171  10.712 -0.2004 -0.7473 -1.5950
   73SLPC     P 6396   3.452   4.096  10.930 -0.6343  0.0047 -0.0870
   73SLPC   O13 6397   3.573   4.031  10.985  0.1369 -0.3392 -0.0918
   73SLPC   O14 6398   3.390   4.186  11.024  0.1562  0.1283 -0.0576
   73SLPC   O12 6399   3.492   4.177  10.799  0.2972 -0.0846  0.5568
   73SLPC   O11 6400   3.354   3.977  10.886 -0.4331 -0.4547 -0.6378
   73SLPC    C1 6401   3.397   3.876  10.796 -0.2742  0.4782 -0.2138
   73SLPC    HA 6402   3.507   3.864  10.792 -0.2204 -0.2141  2.0931
   73SLPC    HB 6403   3.361   3.776  10.829 -0.1368 -0.0680 -1.6951
   73SLPC    C2 6404   3.351   3.897  10.646  0.5588 -1.0272 -0.7917
   73SLPC    HS 6405   3.367   4.004  10.621  1.2592 -1.0276 -0.3578
   73SLPC   O21 6406   3.212   3.861  10.641 -0.2600  0.3405 -0.4045
   73SLPC   C21 6407   3.137   3.951  10.571 -0.0926  0.5631 -0.4467
   73SLPC   O22 6408   3.171   4.054  10.524  0.2864  0.5257  0.3816
   73SLPC   C22 6409   2.996   3.894  10.573  0.3734  0.1610  0.2507
   73SLPC   H2R 6410   2.986   3.783  10.571 -0.7214  0.2344  1.1366
   73SLPC   H2S 6411   2.949   3.938  10.664 -1.4291  0.2623 -0.7080
   73SLPC    C3 6412   3.431   3.814  10.538 -0.0142  0.4645  0.1823
   73SLPC    HX 6413   3.434   3.706  10.566  1.8415  0.1137 -1.3160
   73SLPC    HY 6414   3.532   3.852  10.563  0.0867  0.1606  0.2507
   73SLPC   O31 6415   3.389   3.850  10.402  0.3263  0.1408 -0.5638
   73SLPC   C31 6416   3.430   3.965  10.353 -0.0675 -0.4874 -0.0972
   73SLPC   O32 6417   3.522   4.031  10.404  0.2768  0.0193  0.2882
   73SLPC   C32 6418   3.357   3.998  10.217  0.9976 -0.4616 -0.4486
   73SLPC   H2X 6419   3.246   3.994  10.225  0.9678  1.5588  0.4582
   73SLPC   H2Y 6420   3.380   3.911  10.152 -1.1039 -1.6186  0.2970
   73SLPC   C23 6421   2.907   3.945  10.446  0.0433  0.2065 -0.1110
   73SLPC   H3R 6422   2.916   4.056  10.435  0.7868  0.1167 -0.4054
   73SLPC   H3S 6423   2.805   3.934  10.487  0.6279  1.1809  1.7014
   73SLPC   C24 6424   2.925   3.862  10.328  0.0111  0.4841 -0.2142
   73SLPC   H4R 6425   2.881   3.763  10.352  0.9774  0.6113  2.3175
   73SLPC   H4S 6426   3.032   3.836  10.314  0.3462  0.3815  2.2253
   73SLPC   C25 6427   2.869   3.923  10.199 -0.3988 -0.0587 -0.0873
   73SLPC   H5R 6428   2.907   4.026  10.178  2.4805 -0.9270  0.6563
   73SLPC   H5S 6429   2.760   3.937  10.220 -0.4207 -2.0969  1.2760
   73SLPC   C26 6430   2.885   3.832  10.080 -0.2535 -0.4314  0.6249
   73SLPC   H6R 6431   2.821   3.876  10.000  1.6372  1.8665  0.2923
   73SLPC   H6S 6432   2.857   3.730  10.113  0.4183 -0.3244  1.5363
   73SLPC   C27 6433   3.024   3.847  10.008  0.7155  0.2742  0.3528
   73SLPC   H7R 6434   3.100   3.789  10.065 -1.2697 -1.5507  1.1907
   73SLPC   H7S 6435   3.068   3.949   9.995 -0.2631  0.5833 -0.6318
   73SLPC   C28 6436   2.993   3.779   9.873  0.5594  0.1863 -0.2504
   73SLPC   H8R 6437   2.915   3.843   9.826  0.6894  0.4486 -0.1108
   73SLPC   H8S 6438   2.958   3.674   9.883  0.6890  0.2528  1.0904
   73SLPC   C29 6439   3.121   3.789   9.796  0.2963 -0.2025  0.4684
   73SLPC   H9R 6440   3.213   3.815   9.852  1.3858 -0.8195 -0.9920
   73SLPC  C210 6441   3.134   3.775   9.661 -0.1682  0.2765 -0.0173
   73SLPC  H10R 6442   3.229   3.796   9.608 -0.3005 -1.0075 -0.7714
   73SLPC  C211 6443   3.032   3.741   9.560  0.2948 -0.2085  0.6067
   73SLPC  H11R 6444   2.953   3.670   9.593 -2.1214  2.2891  0.3889
   73SLPC  H11S 6445   3.089   3.698   9.475 -0.6773 -0.5629  0.1314
   73SLPC  C212 6446   2.969   3.869   9.507 -0.2240 -0.9478  0.3237
   73SLPC  H12R 6447   2.932   3.945   9.578 -0.0578  0.2985 -0.8961
   73SLPC  C213 6448   2.938   3.900   9.382 -0.2704 -0.1091  0.6376
   73SLPC  H13R 6449   2.890   3.995   9.355  0.3107 -0.9805 -3.6900
   73SLPC  C214 6450   2.953   3.818   9.254  0.2499 -0.9982 -0.5376
   73SLPC  H14R 6451   2.940   3.712   9.284 -0.1911 -1.1202 -1.1463
   73SLPC  H14S 6452   3.052   3.831   9.205  0.9070  0.7994  1.2211
   73SLPC  C215 6453   2.845   3.824   9.146  0.0989 -0.4010  0.1811
   73SLPC  H15R 6454   2.868   3.743   9.073  0.2551  0.5274 -0.8045
   73SLPC  H15S 6455   2.862   3.918   9.090  0.6120 -1.0287 -0.7392
   73SLPC  C216 6456   2.699   3.817   9.199 -0.2748  0.0836 -0.2972
   73SLPC  H16R 6457   2.683   3.904   9.265  0.3635  0.4679 -0.6390
   73SLPC  H16S 6458   2.683   3.722   9.255 -1.1862  0.9146  0.8672
   73SLPC  C217 6459   2.594   3.812   9.089 -0.5894  0.2680  0.0727
   73SLPC  H17R 6460   2.623   3.891   9.016  0.7795 -0.4515 -0.1859
   73SLPC  H17S 6461   2.494   3.839   9.130 -1.3509 -1.1965 -0.8066
   73SLPC  C218 6462   2.570   3.684   9.015  0.0376 -0.7977  0.2003
   73SLPC  H18R 6463   2.513   3.612   9.077 -1.8369  0.1846 -0.3312
   73SLPC  H18S 6464   2.665   3.632   8.992  1.9507  2.6572 -0.0349
   73SLPC  H18T 6465   2.506   3.698   8.925  0.2679  1.1405  0.3190
   73SLPC   C33 6466   3.404   4.132  10.158  0.2817 -0.0233 -0.1243
   73SLPC   H3X 6467   3.514   4.137  10.143  0.5076  0.6714  1.5361
   73SLPC   H3Y 6468   3.373   4.215  10.226  0.0022 -1.3982  1.4565
   73SLPC   C34 6469   3.347   4.157  10.015 -0.2936  0.2908 -0.2218
   73SLPC   H4X 6470   3.371   4.262   9.988 -1.8767  1.3014  2.0976
   73SLPC   H4Y 6471   3.237   4.150  10.005 -0.2561 -1.3538  0.3115
   73SLPC   C35 6472   3.401   4.059   9.903  0.7527 -0.2266 -0.1803
   73SLPC   H5X 6473   3.381   3.953   9.930  0.1559  0.0165  0.3456
   73SLPC   H5Y 6474   3.510   4.076   9.897  0.9807 -1.4416  0.3190
   73SLPC   C36 6475   3.346   4.086   9.754  0.7110  0.5878 -0.5537
   73SLPC   H6X 6476   3.336   4.195   9.731 -0.9277  0.2118 -1.7369
   73SLPC   H6Y 6477   3.242   4.048   9.754  0.6978  0.5947  0.6322
   73SLPC   C37 6478   3.428   4.025   9.643 -0.2294  0.3017 -0.3308
   73SLPC   H7X 6479   3.460   3.926   9.683  1.9302  1.5490  1.1251
   73SLPC   H7Y 6480   3.527   4.066   9.616  0.0081 -0.5146 -0.7405
   73SLPC   C38 6481   3.348   4.026   9.513  0.4372 -0.0388  0.4439
   73SLPC   H8X 6482   3.335   4.130   9.475  1.3332 -0.0249  0.1622
   73SLPC   H8Y 6483   3.246   3.993   9.541 -0.5227  1.4935 -1.1736
   73SLPC   C39 6484   3.408   3.923   9.413 -0.1570  0.0813 -0.1825
   73SLPC   H9X 6485   3.385   3.821   9.451 -0.1137 -0.3114 -1.1893
   73SLPC   H9Y 6486   3.518   3.940   9.415  0.0333 -1.1432  0.5937
   73SLPC  C310 6487   3.329   3.935   9.283 -0.5759  0.0410 -0.0821
   73SLPC  H10X 6488   3.348   4.027   9.224 -0.4316  0.1881  0.1917
   73SLPC  H10Y 6489   3.220   3.938   9.305 -0.8466 -2.3097 -0.9716
   73SLPC  C311 6490   3.367   3.811   9.202 -0.2955 -0.1571  0.1788
   73SLPC  H11X 6491   3.322   3.720   9.246  2.5333 -1.2056  1.0019
   73SLPC  H11Y 6492   3.476   3.804   9.219 -0.2639  1.4342  0.7239
   73SLPC  C312 6493   3.333   3.829   9.051  0.0507 -0.3063  0.0205
   73SLPC  H12X 6494   3.410   3.901   9.016 -1.5490 -0.0760 -3.2710
   73SLPC  H12Y 6495   3.234   3.880   9.046  0.3444  0.3511  0.7961
   73SLPC  C313 6496   3.340   3.698   8.970  0.6963  0.3601  0.8730
   73SLPC  H13X 6497   3.247   3.648   9.006  1.5575 -2.1515 -0.2742
   73SLPC  H13Y 6498   3.423   3.634   9.008  1.5869  0.1199 -1.4438
   73SLPC  C314 6499   3.340   3.714   8.818 -0.0515  0.1231 -0.0556
   73SLPC  H14X 6500   3.254   3.769   8.772  0.0134 -0.4356 -0.8456
   73SLPC  H14Y 6501   3.328   3.609   8.785  1.2660 -0.1414  0.3102
   73SLPC  C315 6502   3.467   3.773   8.755  0.4537 -0.3588  0.3173
   73SLPC  H15X 6503   3.552   3.714   8.795 -0.1273 -1.1247  0.4261
   73SLPC  H15Y 6504   3.481   3.879   8.786 -0.2497  0.3512 -1.6631
   73SLPC  C316 6505   3.470   3.775   8.599 -0.2417  0.6668  0.5928
   73SLPC  H16X 6506   3.380   3.823   8.555  0.4172  0.7127 -0.7138
   73SLPC  H16Y 6507   3.454   3.671   8.563 -0.1468  1.0560 -0.6031
   73SLPC  C317 6508   3.602   3.819   8.533 -0.0825 -0.1206 -0.2880
   73SLPC  H17X 6509   3.615   3.784   8.429  1.5797  1.5154 -0.6694
   73SLPC  H17Y 6510   3.694   3.770   8.573  1.2561  0.4650 -2.5391
   73SLPC  C318 6511   3.612   3.969   8.528 -0.1501  0.2796 -0.4552
   73SLPC  H18X 6512   3.704   3.996   8.471  0.1049  1.8015  0.6326
   73SLPC  H18Y 6513   3.625   4.018   8.627  0.4761 -0.8983  0.0547
   73SLPC  H18Z 6514   3.527   4.009   8.470 -0.2941  0.1160 -0.3549
   74SLPC     N 6515   4.883   5.968  10.866 -0.6063 -0.0879  0.5095
   74SLPC   C13 6516   5.022   5.988  10.805 -0.3233  0.1539 -0.0568
   74SLPC  H13A 6517   5.032   5.968  10.700  0.2551 -0.3645  0.0917
   74SLPC  H13B 6518   5.042   6.094  10.812  3.3282 -0.4573 -0.1985
   74SLPC  H13C 6519   5.089   5.926  10.864 -0.2641  0.8861  0.6601
   74SLPC   C14 6520   4.790   6.060  10.796  0.3628  1.2499  1.0427
   74SLPC  H14A 6521   4.797   6.054  10.688  1.0502 -0.5601  1.1860
   74SLPC  H14B 6522   4.688   6.040  10.827 -0.6055 -1.5119 -3.4254
   74SLPC  H14C 6523   4.817   6.163  10.813  3.9608  1.0439 -2.4963
   74SLPC   C15 6524   4.893   6.001  11.013  0.1200 -0.1099 -0.9462
   74SLPC  H15A 6525   4.957   5.937  11.072 -0.9531  3.2876  4.2094
   74SLPC  H15B 6526   4.936   6.098  11.033  0.1291  0.0944 -1.9129
   74SLPC  H15C 6527   4.796   5.995  11.061 -1.0854  0.2674 -3.2699
   74SLPC   C12 6528   4.846   5.821  10.841  0.3991  0.4891  0.0927
   74SLPC  H12A 6529   4.763   5.793  10.903  1.1532 -1.2435  0.3530
   74SLPC  H12B 6530   4.935   5.771  10.878  0.3620  1.1769  1.1470
   74SLPC   C11 6531   4.812   5.777  10.691 -0.7427  0.2777  0.2865
   74SLPC  H11A 6532   4.805   5.667  10.692  2.5948  0.0090  1.6367
   74SLPC  H11B 6533   4.894   5.809  10.624 -0.9725 -0.9876 -0.5910
   74SLPC     P 6534   4.658   5.866  10.500  0.5993  0.4068 -0.2037
   74SLPC   O13 6535   4.521   5.830  10.467  0.3124 -0.1756 -0.2243
   74SLPC   O14 6536   4.703   6.003  10.482 -0.5013  0.0284 -0.2746
   74SLPC   O12 6537   4.680   5.824  10.650  0.0985 -0.1958  0.2074
   74SLPC   O11 6538   4.758   5.771  10.432  0.0194  0.5850 -0.1786
   74SLPC    C1 6539   4.703   5.667  10.355  0.2301  0.6863  0.7710
   74SLPC    HA 6540   4.784   5.591  10.357  2.0268  2.5740  0.4909
   74SLPC    HB 6541   4.613   5.613  10.392 -0.4551  2.1781  1.3230
   74SLPC    C2 6542   4.684   5.705  10.199 -0.8972  0.0767  0.1909
   74SLPC    HS 6543   4.718   5.608  10.155  0.6395  0.8580 -0.3811
   74SLPC   O21 6544   4.772   5.818  10.171  0.4459  1.1426  0.2810
   74SLPC   C21 6545   4.794   5.830  10.043 -0.2431  0.1285 -0.5452
   74SLPC   O22 6546   4.781   5.751   9.953  0.0901  0.0366  0.3695
   74SLPC   C22 6547   4.855   5.972  10.027  0.0984  0.2021 -0.4939
   74SLPC   H2R 6548   4.784   6.035  10.083  1.1149  0.8224  0.1143
   74SLPC   H2S 6549   4.955   5.972  10.077  0.0316  2.9299 -0.2976
   74SLPC    C3 6550   4.535   5.723  10.159 -0.1032 -0.2966  1.0822
   74SLPC    HX 6551   4.498   5.815  10.209 -2.7773 -0.6489 -0.1463
   74SLPC    HY 6552   4.478   5.636  10.199 -0.5562 -0.3852  0.2688
   74SLPC   O31 6553   4.514   5.742  10.020  0.4383  0.2860  0.0490
   74SLPC   C31 6554   4.520   5.628   9.946  0.1789 -0.3215 -0.4966
   74SLPC   O32 6555   4.544   5.517  10.000  0.2779 -0.2516 -0.8293
   74SLPC   C32 6556   4.459   5.639   9.809 -0.1473 -0.8538 -0.2594
   74SLPC   H2X 6557   4.387   5.723   9.808  0.5915 -0.2148 -0.5278
   74SLPC   H2Y 6558   4.391   5.552   9.797 -0.0310 -0.8071 -1.3037
   74SLPC   C23 6559   4.871   6.025   9.887  0.7503  0.8011  0.7041
   74SLPC   H3R 6560   4.774   6.051   9.839  0.0873 -1.0275  0.9983
   74SLPC   H3S 6561   4.907   5.938   9.828  0.0727  1.5536 -0.8689
   74SLPC   C24 6562   4.966   6.145   9.867  0.0262  0.5221  0.3006
   74SLPC   H4R 6563   5.045   6.122   9.942  1.7194  0.8678 -1.3368
   74SLPC   H4S 6564   4.922   6.239   9.907  0.2293  0.1461  1.4325
   74SLPC   C25 6565   5.034   6.150   9.732 -0.0849  0.9307  0.1332
   74SLPC   H5R 6566   5.093   6.060   9.705  0.4368  1.5793 -0.9588
   74SLPC   H5S 6567   5.110   6.230   9.746 -0.3383  1.1848  0.0501
   74SLPC   C26 6568   4.936   6.189   9.613 -0.6824  0.7022 -0.8287
   74SLPC   H6R 6569   4.877   6.282   9.623  0.8640  1.5271  0.9894
   74SLPC   H6S 6570   4.860   6.108   9.603 -1.5856  1.4576 -0.1523
   74SLPC   C27 6571   5.008   6.193   9.477  0.3318  0.2709 -0.0223
   74SLPC   H7R 6572   5.067   6.100   9.487  1.6973  0.8576 -2.2423
   74SLPC   H7S 6573   5.085   6.274   9.477 -0.0509  0.6769 -2.3037
   74SLPC   C28 6574   4.905   6.179   9.362 -0.8543  0.8107  0.4382
   74SLPC   H8R 6575   4.828   6.257   9.381 -0.9150  1.2098 -1.3705
   74SLPC   H8S 6576   4.854   6.083   9.387 -2.5490  0.7727 -2.8185
   74SLPC   C29 6577   4.981   6.176   9.233  0.6184  0.5413  0.3426
   74SLPC   H9R 6578   5.031   6.272   9.212 -0.0713  0.3381 -2.3494
   74SLPC  C210 6579   4.993   6.078   9.151  0.4711 -0.0964  0.1707
   74SLPC  H10R 6580   5.069   6.096   9.072  1.3405  1.6255  1.3569
   74SLPC  C211 6581   4.925   5.946   9.161  0.0996 -0.1029 -0.2695
   74SLPC  H11R 6582   4.857   5.935   9.249  0.2527 -0.3694 -0.1845
   74SLPC  H11S 6583   5.001   5.868   9.184 -1.5627 -1.8697 -0.5828
   74SLPC  C212 6584   4.847   5.902   9.038 -0.2792 -0.3726 -0.0145
   74SLPC  H12R 6585   4.740   5.884   9.058 -0.2640 -0.1220  0.2946
   74SLPC  C213 6586   4.897   5.869   8.918 -0.1252 -0.5679  0.5184
   74SLPC  H13R 6587   4.834   5.841   8.832 -0.7027 -1.2222  1.1382
   74SLPC  C214 6588   5.042   5.868   8.887  0.2402  0.8260  0.7194
   74SLPC  H14R 6589   5.061   5.765   8.849  0.9816  1.3294 -0.2916
   74SLPC  H14S 6590   5.108   5.881   8.976  1.8967  0.0884 -0.3732
   74SLPC  C215 6591   5.087   5.971   8.788 -0.5348  0.4742 -0.4605
   74SLPC  H15R 6592   5.198   5.966   8.789 -0.6303 -2.1593 -0.2875
   74SLPC  H15S 6593   5.050   6.065   8.835  0.7938  0.7792 -0.0020
   74SLPC  C216 6594   5.045   5.970   8.642 -0.3396  0.1524 -0.1986
   74SLPC  H16R 6595   4.989   5.879   8.609  0.7980 -0.3570 -0.7478
   74SLPC  H16S 6596   5.139   5.979   8.583  0.4326  1.0000  1.1520
   74SLPC  C217 6597   4.959   6.089   8.617  0.4933  0.9632 -0.1523
   74SLPC  H17R 6598   5.014   6.184   8.631 -0.8287  1.5700  0.9884
   74SLPC  H17S 6599   4.873   6.098   8.687 -1.6188 -0.0873 -2.5289
   74SLPC  C218 6600   4.891   6.083   8.479 -0.1778  0.6958 -0.1982
   74SLPC  H18R 6601   4.853   5.982   8.451 -0.5962  0.2372  1.8842
   74SLPC  H18S 6602   4.983   6.101   8.420  2.0782 -0.1098  2.9592
   74SLPC  H18T 6603   4.812   6.160   8.467  0.3327  1.0220 -1.4947
   74SLPC   C33 6604   4.561   5.650   9.691  0.4169  0.3400 -0.4281
   74SLPC   H3X 6605   4.643   5.575   9.703  0.4968  0.8869  2.8195
   74SLPC   H3Y 6606   4.615   5.747   9.692  1.2434 -0.1197  0.1925
   74SLPC   C34 6607   4.493   5.638   9.552 -0.0724 -0.1218  0.5088
   74SLPC   H4X 6608   4.446   5.736   9.528 -1.6453 -0.7724  0.8404
   74SLPC   H4Y 6609   4.409   5.565   9.554 -1.7701  1.7792  0.1281
   74SLPC   C35 6610   4.589   5.622   9.437  0.3382  0.3116 -0.1105
   74SLPC   H5X 6611   4.663   5.540   9.447  1.2697  0.9478 -1.5421
   74SLPC   H5Y 6612   4.662   5.705   9.446  0.1791  0.4396 -0.0008
   74SLPC   C36 6613   4.519   5.629   9.304 -0.2210 -0.5285  0.8198
   74SLPC   H6X 6614   4.415   5.664   9.323 -0.1115  0.3164 -0.1134
   74SLPC   H6Y 6615   4.516   5.527   9.260  0.5864 -0.8987  1.5993
   74SLPC   C37 6616   4.593   5.716   9.206 -0.3632  0.8403  0.3417
   74SLPC   H7X 6617   4.701   5.690   9.204 -0.5832 -0.0633 -0.1700
   74SLPC   H7Y 6618   4.595   5.822   9.240  0.7600  0.9323  0.0227
   74SLPC   C38 6619   4.537   5.692   9.059 -0.5785 -0.7803 -0.5896
   74SLPC   H8X 6620   4.596   5.603   9.028 -2.1888 -1.8235 -0.7139
   74SLPC   H8Y 6621   4.565   5.783   9.002 -0.2448 -0.0270  0.7664
   74SLPC   C39 6622   4.387   5.673   9.052 -0.2624  0.1053  0.4915
   74SLPC   H9X 6623   4.344   5.767   9.093 -0.8635 -0.0726  0.2848
   74SLPC   H9Y 6624   4.352   5.593   9.121  0.6431 -1.1554 -0.4931
   74SLPC  C310 6625   4.335   5.658   8.901 -0.3420 -0.1259 -0.8453
   74SLPC  H10X 6626   4.397   5.583   8.846  0.5732  0.0185 -0.0124
   74SLPC  H10Y 6627   4.352   5.752   8.845  1.7051 -0.4348 -0.7788
   74SLPC  C311 6628   4.186   5.617   8.906  0.0011  0.1967  0.3275
   74SLPC  H11X 6629   4.125   5.695   8.956 -0.7267  1.0547 -1.8040
   74SLPC  H11Y 6630   4.179   5.513   8.941 -2.3771  0.7203  1.4438
   74SLPC  C312 6631   4.125   5.615   8.759  0.1377  0.0007  0.1158
   74SLPC  H12X 6632   4.166   5.525   8.708  2.9454  0.7754  0.8858
   74SLPC  H12Y 6633   4.166   5.706   8.709  1.5698 -0.5948  0.1590
   74SLPC  C313 6634   3.975   5.609   8.755  0.1934 -0.9678  0.2500
   74SLPC  H13X 6635   3.953   5.550   8.846  0.0933 -2.2326 -0.5717
   74SLPC  H13Y 6636   3.927   5.559   8.668 -0.5478 -0.2252  0.2278
   74SLPC  C314 6637   3.902   5.741   8.774 -0.3525 -0.1853 -0.0655
   74SLPC  H14X 6638   3.932   5.808   8.691  1.1274 -0.5244  0.1728
   74SLPC  H14Y 6639   3.942   5.775   8.872  0.6901 -0.9376 -0.2107
   74SLPC  C315 6640   3.751   5.736   8.783 -0.0204 -0.0038 -0.1136
   74SLPC  H15X 6641   3.706   5.813   8.850  2.4691  0.9734  0.4759
   74SLPC  H15Y 6642   3.718   5.640   8.829  0.4982 -0.3867 -0.5358
   74SLPC  C316 6643   3.678   5.730   8.651  1.1003 -0.5900  0.1208
   74SLPC  H16X 6644   3.708   5.644   8.587  2.9563 -1.6304  2.3088
   74SLPC  H16Y 6645   3.705   5.825   8.601 -0.3288  0.5653  1.5126
   74SLPC  C317 6646   3.530   5.711   8.657  0.4506  0.3162 -0.2893
   74SLPC  H17X 6647   3.512   5.622   8.721  0.7510 -0.3108 -1.0577
   74SLPC  H17Y 6648   3.491   5.690   8.555 -0.2860 -2.1386  0.4624
   74SLPC  C318 6649   3.447   5.824   8.725 -0.5229  0.7274  0.4597
   74SLPC  H18X 6650   3.461   5.921   8.672  2.5178 -0.2291 -0.5672
   74SLPC  H18Y 6651   3.478   5.848   8.829  0.2254  0.7366  0.2401
   74SLPC  H18Z 6652   3.338   5.805   8.718 -0.1888 -1.9542  2.0439
   75SLPC     N 6653   2.572   1.682   6.430 -0.0254 -0.8293  0.1620
   75SLPC   C13 6654   2.502   1.595   6.335  0.2285 -0.2560 -0.3746
   75SLPC  H13A 6655   2.425   1.537   6.384 -0.2188 -0.3874 -1.2186
   75SLPC  H13B 6656   2.447   1.651   6.261  0.3366 -1.6416 -1.5262
   75SLPC  H13C 6657   2.574   1.537   6.280  0.6424 -0.7397  0.6571
   75SLPC   C14 6658   2.459   1.758   6.492  0.2094 -0.4584 -1.0695
   75SLPC  H14A 6659   2.497   1.842   6.548 -0.5284  0.0616 -1.3475
   75SLPC  H14B 6660   2.392   1.812   6.428  1.5440  3.1067  0.4399
   75SLPC  H14C 6661   2.392   1.694   6.547 -0.1127  0.7007 -0.1156
   75SLPC   C15 6662   2.647   1.788   6.348 -0.2345 -0.5433 -0.5042
   75SLPC  H15A 6663   2.730   1.744   6.295  0.7968  1.7466 -0.8141
   75SLPC  H15B 6664   2.588   1.847   6.279  0.9187  0.6238 -0.5077
   75SLPC  H15C 6665   2.684   1.849   6.429 -2.4996 -0.7147  0.7007
   75SLPC   C12 6666   2.660   1.609   6.534 -0.2314 -0.6291  0.0630
   75SLPC  H12A 6667   2.706   1.693   6.584 -1.1554  0.0485 -0.2021
   75SLPC  H12B 6668   2.736   1.550   6.485 -0.0149 -0.9984  0.8446
   75SLPC   C11 6669   2.590   1.541   6.650  0.3576 -0.2552  0.7621
   75SLPC  H11A 6670   2.542   1.616   6.716  0.1687  1.2137 -1.0200
   75SLPC  H11B 6671   2.652   1.490   6.727 -1.9656  1.6138  3.9772
   75SLPC     P 6672   2.525   1.308   6.569 -0.1051 -0.4417 -0.2230
   75SLPC   O13 6673   2.396   1.245   6.521  0.6262  0.0684 -0.4119
   75SLPC   O14 6674   2.639   1.312   6.468  0.2066  0.2669  0.2829
   75SLPC   O12 6675   2.484   1.454   6.613  0.1571 -0.4749  0.1262
   75SLPC   O11 6676   2.584   1.240   6.699 -0.2731  0.6026 -0.4954
   75SLPC    C1 6677   2.486   1.213   6.802 -0.4468  0.1996  0.2532
   75SLPC    HA 6678   2.398   1.280   6.806  0.1526  0.9384  1.4877
   75SLPC    HB 6679   2.438   1.114   6.785 -0.4217  0.0298  1.1414
   75SLPC    C2 6680   2.552   1.213   6.940 -0.1288  0.2303 -0.7803
   75SLPC    HS 6681   2.590   1.316   6.957 -0.6320  0.9213 -3.5098
   75SLPC   O21 6682   2.653   1.110   6.926 -0.0554  0.2498 -0.2607
   75SLPC   C21 6683   2.765   1.145   6.993 -0.1267  0.0610  0.3551
   75SLPC   O22 6684   2.785   1.251   7.047  0.1593  0.0437 -0.4435
   75SLPC   C22 6685   2.863   1.025   6.998  0.3067 -0.3920  0.0986
   75SLPC   H2R 6686   2.804   0.931   7.000  2.0230 -1.4536  2.2663
   75SLPC   H2S 6687   2.937   1.038   6.917  0.8635 -1.3806  0.4420
   75SLPC    C3 6688   2.446   1.167   7.041  0.3580  0.2730 -0.0381
   75SLPC    HX 6689   2.406   1.066   7.017 -2.1735  1.3959 -0.7200
   75SLPC    HY 6690   2.355   1.230   7.041  0.4463  0.5342  3.9729
   75SLPC   O31 6691   2.494   1.172   7.185  0.2808 -0.3102 -0.1048
   75SLPC   C31 6692   2.514   1.290   7.235 -0.5110  0.5887  0.3566
   75SLPC   O32 6693   2.486   1.403   7.186  0.3635  0.5715 -0.2709
   75SLPC   C32 6694   2.586   1.271   7.368 -0.1385  0.1386 -0.0972
   75SLPC   H2X 6695   2.685   1.228   7.343 -0.1295  0.1154 -0.0223
   75SLPC   H2Y 6696   2.518   1.198   7.416 -0.2999 -0.3999 -1.1323
   75SLPC   C23 6697   2.945   1.032   7.123  0.2540  0.9026  0.5513
   75SLPC   H3R 6698   2.978   1.137   7.138 -2.6721  2.1299 -1.2298
   75SLPC   H3S 6699   3.038   0.971   7.113 -1.3486 -1.4114 -0.8201
   75SLPC   C24 6700   2.862   0.987   7.245 -0.0099  0.1464 -0.2380
   75SLPC   H4R 6701   2.839   0.878   7.244  0.5500 -0.0185  1.7547
   75SLPC   H4S 6702   2.761   1.030   7.230 -1.0346 -2.4422 -1.0377
   75SLPC   C25 6703   2.926   1.042   7.368  0.2214  0.3903  0.3225
   75SLPC   H5R 6704   2.860   1.015   7.454  0.9659  1.7304  1.3356
   75SLPC   H5S 6705   2.930   1.152   7.379  1.4307  0.7062 -2.8021
   75SLPC   C26 6706   3.073   0.999   7.391 -1.2958 -0.4910  0.4091
   75SLPC   H6R 6707   3.139   1.041   7.312  0.3170 -1.7480  1.0475
   75SLPC   H6S 6708   3.068   0.889   7.378 -0.9708 -0.4846  0.2227
   75SLPC   C27 6709   3.134   1.033   7.530 -0.9498 -0.7390  0.0954
   75SLPC   H7R 6710   3.162   1.140   7.529 -1.2208 -0.6678 -0.7614
   75SLPC   H7S 6711   3.223   0.972   7.556 -1.9486 -1.5590  1.6460
   75SLPC   C28 6712   3.038   1.012   7.644  0.1918  0.0894 -0.2352
   75SLPC   H8R 6713   3.008   0.905   7.651 -2.3203  0.6245 -1.9637
   75SLPC   H8S 6714   2.943   1.068   7.635 -0.4041 -0.4464  2.3873
   75SLPC   C29 6715   3.100   1.047   7.777  0.7359  0.2672 -0.2154
   75SLPC   H9R 6716   3.158   0.969   7.828  1.3500  1.8769  1.6184
   75SLPC  C210 6717   3.104   1.169   7.832  0.0377 -0.1590 -0.8635
   75SLPC  H10R 6718   3.151   1.171   7.931 -3.0012 -0.4170  0.6453
   75SLPC  C211 6719   3.062   1.297   7.776  0.6718 -0.1968 -0.0366
   75SLPC  H11R 6720   2.982   1.286   7.699  1.2315  2.3643 -1.0320
   75SLPC  H11S 6721   3.143   1.341   7.714  1.4137 -2.1187 -0.4764
   75SLPC  C212 6722   3.002   1.393   7.879 -0.1303  0.0599  0.5244
   75SLPC  H12R 6723   2.898   1.427   7.875  0.0730  0.7450  1.0102
   75SLPC  C213 6724   3.085   1.466   7.952  0.3810 -0.2157  0.1029
   75SLPC  H13R 6725   3.039   1.526   8.032 -0.0721  0.4286 -0.6265
   75SLPC  C214 6726   3.239   1.467   7.958 -0.0914  0.1674  0.3758
   75SLPC  H14R 6727   3.268   1.543   7.883 -1.6816 -0.8336 -1.2914
   75SLPC  H14S 6728   3.287   1.368   7.938 -1.6213 -0.3044 -1.0274
   75SLPC  C215 6729   3.279   1.522   8.100  0.0025  0.5475  0.1106
   75SLPC  H15R 6730   3.221   1.613   8.128 -0.3395  0.2135  0.5002
   75SLPC  H15S 6731   3.387   1.546   8.091  0.7043 -2.2201  0.6210
   75SLPC  C216 6732   3.260   1.410   8.202 -0.0984  0.6076  0.5198
   75SLPC  H16R 6733   3.315   1.318   8.171  1.0013  1.2773  0.4410
   75SLPC  H16S 6734   3.151   1.391   8.200  0.0412 -0.3365  1.3014
   75SLPC  C217 6735   3.304   1.456   8.345 -0.0763  0.0349  0.4365
   75SLPC  H17R 6736   3.413   1.475   8.353 -0.1244  1.4589 -1.7389
   75SLPC  H17S 6737   3.271   1.369   8.405  0.0779 -0.2151  0.1574
   75SLPC  C218 6738   3.230   1.581   8.403  0.0669 -0.3503  0.0620
   75SLPC  H18R 6739   3.255   1.600   8.509  1.3080  0.9923 -0.4441
   75SLPC  H18S 6740   3.122   1.563   8.383  0.0027 -0.0880  0.1743
   75SLPC  H18T 6741   3.269   1.668   8.346  0.4407  0.6345  1.7883
   75SLPC   C33 6742   2.596   1.395   7.463 -0.6728 -0.0681  0.4009
   75SLPC   H3X 6743   2.687   1.452   7.433 -1.0851 -0.4715 -1.6620
   75SLPC   H3Y 6744   2.512   1.463   7.440 -0.6815 -0.1689  0.1326
   75SLPC   C34 6745   2.603   1.357   7.609  0.4724  1.2410  0.1551
   75SLPC   H4X 6746   2.694   1.295   7.624 -0.5576 -0.8696 -1.9576
   75SLPC   H4Y 6747   2.516   1.287   7.615  0.6737  0.9931  0.2034
   75SLPC   C35 6748   2.603   1.468   7.709 -0.0709  0.0361  0.5750
   75SLPC   H5X 6749   2.528   1.547   7.688 -1.5247 -0.8756  2.1087
   75SLPC   H5Y 6750   2.704   1.512   7.708 -0.1019  0.1853  2.1050
   75SLPC   C36 6751   2.574   1.427   7.858 -0.1717  0.1692 -0.0792
   75SLPC   H6X 6752   2.639   1.340   7.879 -2.5164 -1.5871  0.1869
   75SLPC   H6Y 6753   2.472   1.382   7.864 -0.6015  1.2224  0.7342
   75SLPC   C37 6754   2.576   1.536   7.963 -0.0205 -0.3546  0.4488
   75SLPC   H7X 6755   2.487   1.602   7.963 -0.0548 -0.3607 -2.0368
   75SLPC   H7Y 6756   2.665   1.598   7.941  0.9403 -1.7968  0.1541
   75SLPC   C38 6757   2.585   1.472   8.100  0.6827  0.0976 -0.1762
   75SLPC   H8X 6758   2.597   1.361   8.101  2.6916  0.3000 -0.2494
   75SLPC   H8Y 6759   2.500   1.496   8.168 -0.5378 -2.0733 -0.8637
   75SLPC   C39 6760   2.717   1.532   8.172  0.6696  0.1556 -0.3922
   75SLPC   H9X 6761   2.724   1.643   8.167  0.9818  0.1976  0.7276
   75SLPC   H9Y 6762   2.806   1.498   8.115  1.9269  0.9724  1.0318
   75SLPC  C310 6763   2.710   1.492   8.316  0.1808  0.0603 -0.1621
   75SLPC  H10X 6764   2.673   1.388   8.329  0.0649  0.2270  0.9254
   75SLPC  H10Y 6765   2.625   1.545   8.365  0.0285  1.2113 -1.6465
   75SLPC  C311 6766   2.842   1.500   8.393 -0.1985  0.8015  0.2406
   75SLPC  H11X 6767   2.873   1.605   8.410 -1.6105  1.6426 -2.1427
   75SLPC  H11Y 6768   2.921   1.446   8.337  0.7329 -0.1458  2.4088
   75SLPC  C312 6769   2.826   1.438   8.535  0.1170 -0.1689  0.0963
   75SLPC  H12X 6770   2.818   1.327   8.529 -2.0728  0.0488 -1.8320
   75SLPC  H12Y 6771   2.742   1.486   8.588  1.6815  1.2525  1.3453
   75SLPC  C313 6772   2.938   1.461   8.624  0.0617  0.2395 -0.0956
   75SLPC  H13X 6773   2.933   1.565   8.662 -0.6126 -1.0716  3.5925
   75SLPC  H13Y 6774   3.028   1.446   8.560 -1.7711 -0.2623 -2.6178
   75SLPC  C314 6775   2.950   1.372   8.754 -0.0975 -0.1986  1.2820
   75SLPC  H14X 6776   2.957   1.266   8.720  0.7851 -0.6151  2.7151
   75SLPC  H14Y 6777   2.867   1.397   8.823 -1.5769 -2.2645  0.3012
   75SLPC  C315 6778   3.074   1.379   8.834 -0.7715 -0.0957 -0.4374
   75SLPC  H15X 6779   3.081   1.483   8.874 -1.5355  0.7958 -2.5502
   75SLPC  H15Y 6780   3.162   1.377   8.766 -0.1401 -0.2705  0.3829
   75SLPC  C316 6781   3.097   1.268   8.938  0.3615  0.4589 -0.1911
   75SLPC  H16X 6782   3.201   1.274   8.975  0.2340 -2.3984  0.7890
   75SLPC  H16Y 6783   3.109   1.167   8.891 -1.2373  0.0566  0.2349
   75SLPC  C317 6784   3.002   1.270   9.057  0.3012 -0.0074  0.0067
   75SLPC  H17X 6785   2.901   1.233   9.030  1.2721 -2.5978 -0.2155
   75SLPC  H17Y 6786   2.991   1.377   9.084 -1.0576 -0.1515  0.0402
   75SLPC  C318 6787   3.073   1.192   9.165  0.6605 -0.3108 -0.2760
   75SLPC  H18X 6788   3.169   1.245   9.184 -0.2790  1.6188 -0.7224
   75SLPC  H18Y 6789   3.094   1.085   9.145  0.4866  0.1654 -3.0934
   75SLPC  H18Z 6790   3.010   1.194   9.257  0.3131  1.5607 -0.5271
   76SLPC     N 6791   4.232   6.335   5.761 -0.2365 -0.8292 -0.1142
   76SLPC   C13 6792   4.279   6.478   5.757 -0.1562 -0.1283  0.1170
   76SLPC  H13A 6793   4.233   6.525   5.842  0.9249  2.1706 -0.5176
   76SLPC  H13B 6794   4.383   6.501   5.773 -0.0914 -0.7480  0.5732
   76SLPC  H13C 6795   4.257   6.520   5.660  2.8072  0.7670 -0.2342
   76SLPC   C14 6796   4.320   6.252   5.668  0.2627 -0.2285  0.1067
   76SLPC  H14A 6797   4.425   6.262   5.694 -0.0361  0.0620  1.2293
   76SLPC  H14B 6798   4.298   6.146   5.667  0.0367 -0.1772 -0.2287
   76SLPC  H14C 6799   4.297   6.270   5.564 -0.2255 -0.1293  0.2325
   76SLPC   C15 6800   4.085   6.317   5.722 -0.6172 -0.5850 -0.1462
   76SLPC  H15A 6801   4.053   6.215   5.738  0.5822 -1.2010 -1.6305
   76SLPC  H15B 6802   4.020   6.363   5.795  1.3133  3.4552 -0.8621
   76SLPC  H15C 6803   4.067   6.342   5.619 -3.8617 -1.7428  0.0886
   76SLPC   C12 6804   4.250   6.282   5.907 -0.2758  0.5154  0.3516
   76SLPC  H12A 6805   4.248   6.175   5.898 -0.9668  0.3910  1.8640
   76SLPC  H12B 6806   4.169   6.323   5.965  1.0377  4.2590 -0.3192
   76SLPC   C11 6807   4.386   6.323   5.969 -0.3742 -0.2837 -0.0007
   76SLPC  H11A 6808   4.377   6.428   6.003  0.6415  0.3710 -1.7212
   76SLPC  H11B 6809   4.458   6.313   5.886  2.6211  0.7095  2.3815
   76SLPC     P 6810   4.364   6.277   6.216 -0.3968 -0.1871 -0.1555
   76SLPC   O13 6811   4.437   6.189   6.306 -0.1871  0.1495 -0.1200
   76SLPC   O14 6812   4.379   6.422   6.231 -0.2125 -0.8527  0.2404
   76SLPC   O12 6813   4.425   6.238   6.074 -0.6164  0.5460  0.2904
   76SLPC   O11 6814   4.217   6.221   6.198  0.5074 -0.0384 -0.1920
   76SLPC    C1 6815   4.140   6.189   6.319  0.1423  0.0146 -0.0347
   76SLPC    HA 6816   4.040   6.160   6.282 -0.0998 -1.9565  2.0860
   76SLPC    HB 6817   4.180   6.102   6.374  1.1734  1.1140  0.9861
   76SLPC    C2 6818   4.107   6.293   6.430 -0.2600 -0.2203  0.1139
   76SLPC    HS 6819   4.088   6.383   6.368 -1.1058 -1.6426 -1.7386
   76SLPC   O21 6820   4.224   6.309   6.508  0.0894  0.2955  0.6704
   76SLPC   C21 6821   4.238   6.417   6.588  0.0007 -0.8681 -0.0667
   76SLPC   O22 6822   4.160   6.510   6.597  0.5614 -0.0831 -0.6176
   76SLPC   C22 6823   4.380   6.407   6.652  0.8921  0.6049  0.1926
   76SLPC   H2R 6824   4.401   6.306   6.694 -0.3634  0.3024  0.1129
   76SLPC   H2S 6825   4.457   6.432   6.576 -0.2058 -0.2296 -1.2274
   76SLPC    C3 6826   3.982   6.262   6.518 -0.0787 -0.0307  0.2128
   76SLPC    HX 6827   3.899   6.263   6.444 -2.3035  2.5483  2.6232
   76SLPC    HY 6828   3.964   6.343   6.592 -2.4027 -0.1658 -0.1562
   76SLPC   O31 6829   3.998   6.135   6.590 -0.5810  0.5988 -0.0815
   76SLPC   C31 6830   4.037   6.135   6.714  0.3294 -0.2871 -0.5705
   76SLPC   O32 6831   4.046   6.226   6.799  0.7742 -0.1400  0.4343
   76SLPC   C32 6832   4.077   5.987   6.741  0.1139  0.2821  0.1905
   76SLPC   H2X 6833   4.161   5.962   6.673  0.1192 -0.1201  0.3466
   76SLPC   H2Y 6834   3.995   5.919   6.709  1.9402 -0.6236 -2.7347
   76SLPC   C23 6835   4.388   6.513   6.761 -0.2305 -0.5588 -0.1226
   76SLPC   H3R 6836   4.308   6.494   6.836  1.1846 -3.1737  0.8258
   76SLPC   H3S 6837   4.367   6.611   6.715 -0.1460  0.1674  1.3493
   76SLPC   C24 6838   4.525   6.495   6.828 -0.4662 -0.1882  0.9031
   76SLPC   H4R 6839   4.556   6.590   6.877  0.4963  0.8668 -1.6318
   76SLPC   H4S 6840   4.605   6.491   6.751 -0.5767 -2.2166  0.8634
   76SLPC   C25 6841   4.545   6.379   6.926  0.2454  0.0597  0.9962
   76SLPC   H5R 6842   4.654   6.373   6.946  0.6179 -0.2224 -0.9809
   76SLPC   H5S 6843   4.508   6.284   6.882 -0.1694  0.2424  0.9422
   76SLPC   C26 6844   4.470   6.413   7.057 -0.2419 -0.0955  0.0537
   76SLPC   H6R 6845   4.360   6.416   7.041  0.0426  2.7095 -1.5633
   76SLPC   H6S 6846   4.508   6.508   7.100 -1.4171  0.7870 -0.8306
   76SLPC   C27 6847   4.491   6.300   7.154 -0.1108 -0.0921 -0.0155
   76SLPC   H7R 6848   4.598   6.268   7.164  0.0463  0.5019  0.1773
   76SLPC   H7S 6849   4.454   6.205   7.109  0.2694  0.3503 -1.3094
   76SLPC   C28 6850   4.433   6.315   7.298  0.2428 -0.5881  0.4052
   76SLPC   H8R 6851   4.420   6.424   7.312 -0.9874 -0.4596 -1.5182
   76SLPC   H8S 6852   4.328   6.278   7.293  0.1006 -0.0307 -0.8418
   76SLPC   C29 6853   4.509   6.234   7.405  0.2480  0.0243 -0.8695
   76SLPC   H9R 6854   4.506   6.124   7.397 -0.4212 -0.2226  2.0951
   76SLPC  C210 6855   4.563   6.288   7.517 -0.6121  0.0034 -0.8973
   76SLPC  H10R 6856   4.624   6.220   7.579  1.2210  1.8085 -0.6624
   76SLPC  C211 6857   4.580   6.432   7.556  0.3061 -0.5121 -0.0189
   76SLPC  H11R 6858   4.572   6.505   7.472 -0.3343 -0.4356  0.1053
   76SLPC  H11S 6859   4.684   6.447   7.592 -0.2221 -0.9565  1.7142
   76SLPC  C212 6860   4.467   6.473   7.654  0.1877  0.2734  0.1109
   76SLPC  H12R 6861   4.373   6.487   7.599  0.0627  1.0518  0.5204
   76SLPC  C213 6862   4.473   6.481   7.786 -0.2669  0.1474  0.0842
   76SLPC  H13R 6863   4.380   6.506   7.841  0.4794  2.3373  0.3911
   76SLPC  C214 6864   4.593   6.465   7.871  0.0365 -0.4086 -0.2610
   76SLPC  H14R 6865   4.600   6.542   7.951  0.2804  1.0350 -1.6397
   76SLPC  H14S 6866   4.683   6.466   7.806  0.9862  1.7050  1.0568
   76SLPC  C215 6867   4.594   6.325   7.936  0.6585  1.0009  0.2045
   76SLPC  H15R 6868   4.696   6.298   7.971  0.7426  0.9304 -0.0935
   76SLPC  H15S 6869   4.556   6.242   7.872  0.3504  0.2738  1.3198
   76SLPC  C216 6870   4.511   6.305   8.063  0.4580  0.1539  0.0201
   76SLPC  H16R 6871   4.401   6.306   8.045  0.7101 -2.3953 -1.9974
   76SLPC  H16S 6872   4.535   6.382   8.138  0.2484 -1.0855  1.3814
   76SLPC  C217 6873   4.534   6.166   8.130  0.0279 -0.1464  0.0561
   76SLPC  H17R 6874   4.643   6.148   8.143  0.5130  2.2966 -0.3720
   76SLPC  H17S 6875   4.494   6.098   8.053  1.3483 -0.3201 -0.4869
   76SLPC  C218 6876   4.470   6.159   8.266  0.4461 -0.3641 -0.5856
   76SLPC  H18R 6877   4.364   6.194   8.261 -0.1280 -2.1634 -1.5860
   76SLPC  H18S 6878   4.525   6.236   8.322 -1.8873  2.3417 -1.8654
   76SLPC  H18T 6879   4.489   6.064   8.321  0.6671  0.0567  0.0611
   76SLPC   C33 6880   4.126   5.971   6.884 -0.2379 -0.2327 -0.4164
   76SLPC   H3X 6881   4.110   5.869   6.923  1.2727  0.0633  1.0197
   76SLPC   H3Y 6882   4.063   6.031   6.952  1.3348  0.0760  0.7936
   76SLPC   C34 6883   4.273   5.997   6.907 -0.8015 -0.0628 -0.0962
   76SLPC   H4X 6884   4.309   6.100   6.891  1.4588 -0.6631  0.8661
   76SLPC   H4Y 6885   4.325   5.933   6.833 -0.9173 -4.3466  3.2742
   76SLPC   C35 6886   4.326   5.951   7.039  0.6316 -0.2870  0.7286
   76SLPC   H5X 6887   4.425   5.998   7.056  0.5325  0.2916 -0.2626
   76SLPC   H5Y 6888   4.338   5.841   7.028 -0.8695 -0.6418  2.3508
   76SLPC   C36 6889   4.240   5.989   7.164  0.7557  0.2323  0.3060
   76SLPC   H6X 6890   4.146   5.931   7.155  0.2543  0.9168  1.0331
   76SLPC   H6Y 6891   4.222   6.099   7.156 -0.2654  0.0158 -0.4200
   76SLPC   C37 6892   4.305   5.951   7.300 -0.1377 -0.1171  0.2297
   76SLPC   H7X 6893   4.408   5.992   7.307 -0.2010  0.0599  0.1419
   76SLPC   H7Y 6894   4.312   5.841   7.302  1.4115 -0.0768 -1.4315
   76SLPC   C38 6895   4.241   6.003   7.432  0.2842 -0.1954 -0.0184
   76SLPC   H8X 6896   4.135   5.973   7.443  0.0022  1.2123  1.2911
   76SLPC   H8Y 6897   4.254   6.113   7.438  1.1884 -0.3860  1.8271
   76SLPC   C39 6898   4.311   5.948   7.559  0.5021 -0.9551  0.3819
   76SLPC   H9X 6899   4.420   5.932   7.543  0.3089 -1.0193 -0.9001
   76SLPC   H9Y 6900   4.260   5.851   7.575  1.8445 -1.8160 -0.4326
   76SLPC  C310 6901   4.282   6.035   7.680  0.5187 -0.3673 -0.5504
   76SLPC  H10X 6902   4.177   6.070   7.666  0.4300 -1.7038 -3.5057
   76SLPC  H10Y 6903   4.352   6.121   7.681 -0.4531  0.4290 -0.9774
   76SLPC  C311 6904   4.289   5.964   7.819 -0.0026 -0.0777 -0.2817
   76SLPC  H11X 6905   4.215   5.883   7.800  1.9329 -0.9587 -4.7386
   76SLPC  H11Y 6906   4.250   6.034   7.897 -2.2180 -0.9547 -0.5553
   76SLPC  C312 6907   4.424   5.908   7.860  0.4750  0.1099  0.0908
   76SLPC  H12X 6908   4.490   5.993   7.886  3.4555 -1.9005 -0.7314
   76SLPC  H12Y 6909   4.460   5.847   7.774  1.6951 -0.1823  0.8146
   76SLPC  C313 6910   4.407   5.824   7.990 -0.0257 -0.3505  0.2635
   76SLPC  H13X 6911   4.324   5.754   7.965 -1.0435  1.4092 -1.4049
   76SLPC  H13Y 6912   4.378   5.891   8.074 -0.0606  0.6574 -0.5394
   76SLPC  C314 6913   4.533   5.738   8.026 -0.3308  0.3555  0.1527
   76SLPC  H14X 6914   4.619   5.805   8.003  0.7734 -0.8181  0.7826
   76SLPC  H14Y 6915   4.519   5.644   7.968 -1.0481  0.3536  0.3182
   76SLPC  C315 6916   4.548   5.720   8.178  0.4296  0.2179 -0.1896
   76SLPC  H15X 6917   4.544   5.821   8.224  1.2258 -0.6276  1.8002
   76SLPC  H15Y 6918   4.651   5.688   8.202  0.3307  0.0061 -0.0457
   76SLPC  C316 6919   4.441   5.630   8.229  0.1538  0.5472 -0.1306
   76SLPC  H16X 6920   4.451   5.528   8.186 -0.4059  0.4035  0.0698
   76SLPC  H16Y 6921   4.346   5.669   8.185  0.4149  0.4371 -0.8006
   76SLPC  C317 6922   4.441   5.604   8.380 -0.8075  0.3399  0.4480
   76SLPC  H17X 6923   4.439   5.703   8.431  1.4786  0.1895  0.8835
   76SLPC  H17Y 6924   4.524   5.543   8.420 -2.7409 -3.8401 -1.5639
   76SLPC  C318 6925   4.310   5.547   8.432  0.2277 -0.0124 -0.4126
   76SLPC  H18X 6926   4.227   5.621   8.426  0.3533  0.1198 -0.5193
   76SLPC  H18Y 6927   4.321   5.517   8.539 -0.7271 -2.4370 -0.9646
   76SLPC  H18Z 6928   4.280   5.457   8.375  1.1227 -0.6751  0.1460
   77SLPC     N 6929   0.357   6.463   5.977  0.1583 -0.6627 -0.0915
   77SLPC   C13 6930   0.462   6.523   5.883 -0.2490  0.2258  0.0652
   77SLPC  H13A 6931   0.516   6.601   5.934  3.8054 -1.6074 -1.2431
   77SLPC  H13B 6932   0.533   6.446   5.856  1.0012  1.6208 -0.7168
   77SLPC  H13C 6933   0.418   6.576   5.799  3.2648  3.2014 -0.0148
   77SLPC   C14 6934   0.279   6.358   5.908 -0.1314  0.4226  0.1612
   77SLPC  H14A 6935   0.216   6.303   5.976 -0.0254 -0.5553 -0.5184
   77SLPC  H14B 6936   0.226   6.407   5.827  0.0185 -0.7472 -0.6621
   77SLPC  H14C 6937   0.352   6.286   5.875  0.6529  1.2649  0.0478
   77SLPC   C15 6938   0.262   6.564   6.018  0.1187  0.3374  0.2158
   77SLPC  H15A 6939   0.198   6.600   5.939  0.3274 -1.2744 -0.6926
   77SLPC  H15B 6940   0.188   6.514   6.080 -0.1596 -0.1327 -0.4954
   77SLPC  H15C 6941   0.309   6.640   6.079  1.3470 -1.5050  1.6207
   77SLPC   C12 6942   0.431   6.404   6.093 -0.0863  0.5987 -0.4425
   77SLPC  H12A 6943   0.511   6.345   6.050 -0.7307 -1.2794  0.8912
   77SLPC  H12B 6944   0.357   6.338   6.134 -0.0669 -0.7049 -2.4228
   77SLPC   C11 6945   0.483   6.490   6.210 -0.3873  0.1445  0.3920
   77SLPC  H11A 6946   0.544   6.571   6.164  0.3547  0.2339  1.5045
   77SLPC  H11B 6947   0.534   6.422   6.282  0.2329  0.0573 -0.1246
   77SLPC     P 6948   0.288   6.492   6.391  0.4400  0.2593 -0.1040
   77SLPC   O13 6949   0.176   6.581   6.417  0.3492  0.0679 -0.0359
   77SLPC   O14 6950   0.255   6.357   6.349 -0.2258  0.8243  0.4442
   77SLPC   O12 6951   0.382   6.561   6.279 -0.3361 -0.0990  0.4069
   77SLPC   O11 6952   0.379   6.471   6.519  0.0732 -0.2240  0.5156
   77SLPC    C1 6953   0.445   6.348   6.547  0.1207 -0.5387  0.7455
   77SLPC    HA 6954   0.473   6.293   6.454 -0.2879  0.2677  0.1464
   77SLPC    HB 6955   0.546   6.370   6.588 -1.0639 -1.3316  4.2308
   77SLPC    C2 6956   0.369   6.258   6.650 -0.3638 -0.8611  0.4102
   77SLPC    HS 6957   0.269   6.244   6.602 -0.7169 -1.6790  1.3437
   77SLPC   O21 6958   0.361   6.319   6.776 -0.1310 -0.3577  0.0724
   77SLPC   C21 6959   0.255   6.283   6.847  0.2601  0.3465 -0.6537
   77SLPC   O22 6960   0.172   6.204   6.805  0.7292  0.1277  0.5675
   77SLPC   C22 6961   0.253   6.373   6.972 -0.7467  0.4007 -0.1980
   77SLPC   H2R 6962   0.310   6.465   6.949 -1.8205  0.8356 -1.1702
   77SLPC   H2S 6963   0.148   6.398   6.997 -0.7015 -0.8816  1.3824
   77SLPC    C3 6964   0.431   6.116   6.643  0.2051 -0.1492 -0.4231
   77SLPC    HX 6965   0.528   6.133   6.694  0.5483  0.6258 -1.3239
   77SLPC    HY 6966   0.452   6.097   6.535  0.4645 -0.1047 -0.3807
   77SLPC   O31 6967   0.349   6.013   6.708  0.6459  0.8426 -0.2602
   77SLPC   C31 6968   0.264   5.955   6.623 -0.4376 -0.4510 -0.0194
   77SLPC   O32 6969   0.267   5.958   6.502 -0.0737 -0.4678  0.1727
   77SLPC   C32 6970   0.159   5.879   6.705 -0.5088 -0.6376  0.1832
   77SLPC   H2X 6971   0.109   5.952   6.772 -0.9945 -1.9168  1.2447
   77SLPC   H2Y 6972   0.217   5.813   6.773  2.2099  1.3270 -0.1655
   77SLPC   C23 6973   0.302   6.314   7.112  0.7004 -0.3170 -0.3642
   77SLPC   H3R 6974   0.322   6.387   7.193  2.0389 -1.6045  0.4904
   77SLPC   H3S 6975   0.403   6.268   7.101  0.4416 -0.1856 -4.1030
   77SLPC   C24 6976   0.214   6.204   7.165  0.9290 -0.3913  0.4786
   77SLPC   H4R 6977   0.168   6.156   7.076 -0.5400  3.3580 -0.8603
   77SLPC   H4S 6978   0.137   6.243   7.234  0.3083 -0.7819  0.0032
   77SLPC   C25 6979   0.292   6.090   7.244  0.2699 -0.7465 -0.1410
   77SLPC   H5R 6980   0.368   6.054   7.171  2.7065  2.0397  0.9263
   77SLPC   H5S 6981   0.228   6.003   7.267 -0.3295 -0.1554  0.4136
   77SLPC   C26 6982   0.369   6.136   7.362 -0.6007 -0.0959 -0.2508
   77SLPC   H6R 6983   0.429   6.226   7.338  0.6207 -0.5351  1.0614
   77SLPC   H6S 6984   0.443   6.057   7.389  0.6843  0.3138 -2.4364
   77SLPC   C27 6985   0.277   6.174   7.483 -0.6279  0.1308  0.3596
   77SLPC   H7R 6986   0.230   6.080   7.520  0.7847 -1.1896 -1.0846
   77SLPC   H7S 6987   0.202   6.249   7.450 -0.6048 -1.1233 -2.7284
   77SLPC   C28 6988   0.352   6.236   7.607  0.4862  0.5225  0.4850
   77SLPC   H8R 6989   0.263   6.255   7.670  1.2003  0.6656  1.4760
   77SLPC   H8S 6990   0.396   6.335   7.580 -0.9769  1.1803  0.4680
   77SLPC   C29 6991   0.455   6.151   7.675 -0.2554 -0.3748 -0.2616
   77SLPC   H9R 6992   0.554   6.152   7.627  1.1940 -0.8134  2.6100
   77SLPC  C210 6993   0.445   6.090   7.791 -0.2332 -0.3435 -0.0446
   77SLPC  H10R 6994   0.541   6.060   7.836 -0.2555 -2.3460 -1.2782
   77SLPC  C211 6995   0.337   6.081   7.893 -0.3395  0.3083  0.7297
   77SLPC  H11R 6996   0.265   6.001   7.866  0.2420  0.4750 -1.3750
   77SLPC  H11S 6997   0.275   6.173   7.884 -2.7857 -1.2981  0.8788
   77SLPC  C212 6998   0.384   6.065   8.034  0.3494  0.7510  0.6284
   77SLPC  H12R 6999   0.403   5.960   8.060 -0.8877  0.7684  1.6663
   77SLPC  C213 7000   0.377   6.155   8.135  0.0876 -0.1089  0.4774
   77SLPC  H13R 7001   0.406   6.113   8.232 -2.2893 -4.2865 -0.5231
   77SLPC  C214 7002   0.326   6.296   8.139  0.1868 -0.1648 -0.4354
   77SLPC  H14R 7003   0.243   6.296   8.213 -0.6100 -0.1344 -1.3121
   77SLPC  H14S 7004   0.272   6.339   8.051  0.0943 -1.3180 -0.9512
   77SLPC  C215 7005   0.422   6.400   8.202 -0.8041 -0.3783 -0.2885
   77SLPC  H15R 7006   0.482   6.361   8.288  1.5711  1.1434 -1.1971
   77SLPC  H15S 7007   0.368   6.492   8.232 -1.6673 -1.2055  0.7223
   77SLPC  C216 7008   0.528   6.455   8.106 -0.5242  0.0762 -0.2312
   77SLPC  H16R 7009   0.471   6.503   8.024  0.1272  1.1067 -0.0839
   77SLPC  H16S 7010   0.578   6.365   8.065 -1.7894 -1.3061  1.1832
   77SLPC  C217 7011   0.624   6.555   8.173 -0.2963 -0.6507 -0.0235
   77SLPC  H17R 7012   0.717   6.562   8.112 -0.0851 -2.3086  0.0680
   77SLPC  H17S 7013   0.666   6.511   8.266 -3.8012 -2.7294  0.6625
   77SLPC  C218 7014   0.572   6.693   8.204  0.7713 -0.1155 -0.0628
   77SLPC  H18R 7015   0.489   6.679   8.277 -0.4136  2.0044 -0.9634
   77SLPC  H18S 7016   0.527   6.746   8.118 -0.1924  0.4843  0.8019
   77SLPC  H18T 7017   0.648   6.760   8.250 -1.2537  1.9202  0.3937
   77SLPC   C33 7018   0.051   5.800   6.635  0.0582  0.3260  0.4892
   77SLPC   H3X 7019   0.090   5.751   6.543  0.8072  0.9395  0.4662
   77SLPC   H3Y 7020  -0.034   5.864   6.604 -0.2952  1.4085  3.5311
   77SLPC   C34 7021  -0.016   5.691   6.722 -0.0629 -0.4450 -0.0153
   77SLPC   H4X 7022  -0.039   5.738   6.820  0.7259  1.3184 -0.6527
   77SLPC   H4Y 7023   0.052   5.604   6.736  0.1122 -0.1961  0.7144
   77SLPC   C35 7024  -0.148   5.637   6.660 -0.6094  0.3669 -0.6081
   77SLPC   H5X 7025  -0.129   5.592   6.560  0.4761 -1.6398  0.4583
   77SLPC   H5Y 7026  -0.210   5.722   6.626 -0.2972  1.7168  2.0596
   77SLPC   C36 7027  -0.237   5.549   6.750  0.9349 -0.0892  0.3250
   77SLPC   H6X 7028  -0.310   5.513   6.675 -0.1385  1.0062  0.8317
   77SLPC   H6Y 7029  -0.278   5.624   6.821  4.3112  0.3007  1.9931
   77SLPC   C37 7030  -0.179   5.425   6.826  0.3844 -0.7262  0.2257
   77SLPC   H7X 7031  -0.097   5.458   6.893  0.1501  0.5112 -0.0761
   77SLPC   H7Y 7032  -0.137   5.364   6.744  0.8058  1.5734 -1.3252
   77SLPC   C38 7033  -0.280   5.330   6.889  0.8820 -0.4540  1.0819
   77SLPC   H8X 7034  -0.349   5.288   6.813  1.0209 -1.4807  1.5140
   77SLPC   H8Y 7035  -0.345   5.387   6.958  1.2717  1.7394 -0.3115
   77SLPC   C39 7036  -0.218   5.202   6.942 -0.5818  0.0143 -0.0908
   77SLPC   H9X 7037  -0.142   5.224   7.019 -1.0164  0.9270  0.0855
   77SLPC   H9Y 7038  -0.170   5.147   6.858  1.6819  1.6242  0.1107
   77SLPC  C310 7039  -0.322   5.103   6.994  0.2320  0.5832  0.5258
   77SLPC  H10X 7040  -0.409   5.089   6.927  0.2084 -1.7010  0.9883
   77SLPC  H10Y 7041  -0.359   5.147   7.089  0.9016  1.5747  0.3477
   77SLPC  C311 7042  -0.263   4.965   7.014 -0.1290  0.1276  0.3409
   77SLPC  H11X 7043  -0.186   4.982   7.092  0.9407  1.0628 -0.8773
   77SLPC  H11Y 7044  -0.206   4.921   6.929 -3.3743 -2.0598 -0.8111
   77SLPC  C312 7045  -0.357   4.852   7.073  0.1602 -1.3061  0.4165
   77SLPC  H12X 7046  -0.291   4.763   7.082  3.2169  0.9465  1.3747
   77SLPC  H12Y 7047  -0.440   4.827   7.004  0.1372  0.0932 -0.0684
   77SLPC  C313 7048  -0.418   4.891   7.211  0.4478 -0.7621  0.3117
   77SLPC  H13X 7049  -0.487   4.975   7.191 -0.2704 -1.1972  0.9189
   77SLPC  H13Y 7050  -0.334   4.932   7.271 -2.4792  1.8632  2.7785
   77SLPC  C314 7051  -0.483   4.779   7.290  0.1480  0.1302 -0.4660
   77SLPC  H14X 7052  -0.418   4.689   7.289  0.8688  0.6517 -0.7088
   77SLPC  H14Y 7053  -0.568   4.741   7.229  0.3158 -0.5019 -0.3129
   77SLPC  C315 7054  -0.520   4.811   7.440 -0.5819  0.0265 -0.2915
   77SLPC  H15X 7055  -0.591   4.896   7.452 -0.5420 -0.0620  0.5912
   77SLPC  H15Y 7056  -0.433   4.855   7.492  1.1665 -3.5541 -0.0204
   77SLPC  C316 7057  -0.576   4.702   7.530  0.5409 -0.0223  0.1548
   77SLPC  H16X 7058  -0.504   4.618   7.525  0.3649 -0.0662 -1.9273
   77SLPC  H16Y 7059  -0.676   4.678   7.488  1.5294  0.5739 -2.6280
   77SLPC  C317 7060  -0.595   4.739   7.674  0.1336 -0.2885  0.6270
   77SLPC  H17X 7061  -0.654   4.833   7.678  0.4772  0.1222 -2.2556
   77SLPC  H17Y 7062  -0.494   4.777   7.699  0.2366  2.2601 -3.1686
   77SLPC  C318 7063  -0.644   4.627   7.773  0.1632 -1.1038  0.1581
   77SLPC  H18X 7064  -0.754   4.623   7.790  0.1359  0.1713  0.3280
   77SLPC  H18Y 7065  -0.601   4.637   7.875  0.3425 -0.9842  0.0715
   77SLPC  H18Z 7066  -0.610   4.525   7.747 -0.8107 -1.0542 -1.3799
   78SLPC     N 7067   2.837   0.789   6.075  0.0060  0.1891 -0.2039
   78SLPC   C13 7068   2.931   0.896   6.098 -0.6004  0.0320  0.4429
   78SLPC  H13A 7069   2.883   0.991   6.077  0.9052  0.4834 -1.0295
   78SLPC  H13B 7070   2.982   0.883   6.193  0.7571 -0.8332 -0.3888
   78SLPC  H13C 7071   3.010   0.899   6.025  0.4780 -1.4143  1.5349
   78SLPC   C14 7072   2.751   0.833   5.959  0.1827 -0.1725  0.2348
   78SLPC  H14A 7073   2.817   0.850   5.875 -2.3490 -0.0997 -1.8203
   78SLPC  H14B 7074   2.680   0.756   5.930 -0.5254  0.2826  0.7393
   78SLPC  H14C 7075   2.691   0.918   5.989 -0.7788 -1.4542  2.0161
   78SLPC   C15 7076   2.757   0.765   6.197 -0.1185  0.2291 -0.7861
   78SLPC  H15A 7077   2.831   0.732   6.268  0.2588  1.7784 -0.4420
   78SLPC  H15B 7078   2.710   0.857   6.225 -0.3380 -0.1474  0.0949
   78SLPC  H15C 7079   2.687   0.683   6.194  2.0578 -1.6498 -3.3892
   78SLPC   C12 7080   2.906   0.658   6.037  0.9457 -0.2029 -0.2499
   78SLPC  H12A 7081   2.968   0.632   6.121 -1.8509 -1.6027  1.4500
   78SLPC  H12B 7082   2.969   0.669   5.951  0.2934 -0.5060 -0.7727
   78SLPC   C11 7083   2.832   0.513   6.033  0.1571  0.0812 -0.1561
   78SLPC  H11A 7084   2.921   0.447   6.030  1.2749  1.4975  1.0207
   78SLPC  H11B 7085   2.770   0.503   5.941 -1.7453  1.7726  0.9172
   78SLPC     P 7086   2.699   0.346   6.180  0.0023 -0.7448  0.2606
   78SLPC   O13 7087   2.602   0.303   6.078  0.2899  0.0340 -0.0319
   78SLPC   O14 7088   2.815   0.256   6.209  0.0685  0.5272 -0.1132
   78SLPC   O12 7089   2.749   0.492   6.145  0.1170  0.0720  0.0082
   78SLPC   O11 7090   2.619   0.362   6.309 -0.2017 -0.3357 -0.1995
   78SLPC    C1 7091   2.648   0.470   6.404  0.6913 -0.0325  0.9667
   78SLPC    HA 7092   2.747   0.516   6.381  0.3721  0.3358  0.3383
   78SLPC    HB 7093   2.572   0.550   6.396  2.6546  1.8975  1.0222
   78SLPC    C2 7094   2.646   0.406   6.542  0.0429 -0.2708  0.2285
   78SLPC    HS 7095   2.647   0.490   6.614 -1.3117 -0.0712  0.0274
   78SLPC   O21 7096   2.759   0.312   6.557 -0.9754 -0.2069  0.1933
   78SLPC   C21 7097   2.875   0.381   6.571 -0.1853 -0.5352 -0.5960
   78SLPC   O22 7098   2.892   0.501   6.561  0.1830 -0.1415  0.3526
   78SLPC   C22 7099   2.979   0.274   6.619 -0.0366 -0.4359  0.4797
   78SLPC   H2R 7100   2.936   0.239   6.715  0.1452  1.9883  1.4872
   78SLPC   H2S 7101   2.977   0.193   6.543  0.6178  0.8096 -0.8921
   78SLPC    C3 7102   2.511   0.335   6.565 -1.0376  0.4398  0.0056
   78SLPC    HX 7103   2.491   0.276   6.472 -0.4134 -3.7934  2.3969
   78SLPC    HY 7104   2.432   0.411   6.580 -3.6432 -2.0741 -0.4109
   78SLPC   O31 7105   2.523   0.249   6.671 -0.5688  0.7736 -0.5720
   78SLPC   C31 7106   2.534   0.293   6.791 -0.0076  0.5763 -0.5348
   78SLPC   O32 7107   2.553   0.412   6.820 -0.1985  0.0602  0.2433
   78SLPC   C32 7108   2.519   0.177   6.883  0.3151 -0.0292  0.4495
   78SLPC   H2X 7109   2.608   0.113   6.865 -0.9686 -1.2742 -1.6286
   78SLPC   H2Y 7110   2.432   0.118   6.847  0.7252 -0.2836 -0.1421
   78SLPC   C23 7111   3.115   0.333   6.634 -0.3045  0.4223  0.3464
   78SLPC   H3R 7112   3.121   0.401   6.721  0.8880 -1.9988  2.2359
   78SLPC   H3S 7113   3.152   0.385   6.543 -0.5537  0.2673  0.1558
   78SLPC   C24 7114   3.213   0.221   6.660 -0.7835  0.1767 -0.4940
   78SLPC   H4R 7115   3.226   0.181   6.558 -0.9756 -0.3288 -0.3247
   78SLPC   H4S 7116   3.169   0.153   6.737  0.9012 -2.6556 -1.9466
   78SLPC   C25 7117   3.345   0.279   6.720  0.2735  1.0000  0.0746
   78SLPC   H5R 7118   3.325   0.336   6.813  1.6237 -0.1470  1.0854
   78SLPC   H5S 7119   3.372   0.355   6.644  1.1011 -1.0110 -1.6907
   78SLPC   C26 7120   3.463   0.175   6.744  0.2995 -0.2292 -0.6199
   78SLPC   H6R 7121   3.515   0.152   6.649 -0.3388 -1.2399 -0.7311
   78SLPC   H6S 7122   3.413   0.080   6.771 -0.7156  0.5255  0.2058
   78SLPC   C27 7123   3.561   0.240   6.839  0.4746  0.5624  0.3880
   78SLPC   H7R 7124   3.571   0.346   6.806 -1.2754  0.4523 -0.5631
   78SLPC   H7S 7125   3.655   0.184   6.816  0.0621  0.7751 -1.9317
   78SLPC   C28 7126   3.514   0.230   6.985 -0.5472 -0.7160  0.0669
   78SLPC   H8R 7127   3.499   0.124   7.014  1.9552 -0.9875  0.4938
   78SLPC   H8S 7128   3.413   0.275   6.995 -0.2973 -0.3159  0.8378
   78SLPC   C29 7129   3.616   0.292   7.080 -0.7685  1.1193 -0.2212
   78SLPC   H9R 7130   3.653   0.391   7.050  0.6234  0.7843  0.3538
   78SLPC  C210 7131   3.671   0.246   7.197  0.6755  0.2722 -0.4748
   78SLPC  H10R 7132   3.756   0.305   7.236 -1.4579  1.9111  1.8652
   78SLPC  C211 7133   3.650   0.115   7.268  0.0373  1.2256 -0.4582
   78SLPC  H11R 7134   3.550   0.075   7.241 -0.5675  2.4974 -0.1201
   78SLPC  H11S 7135   3.640   0.149   7.373  0.0727 -0.2446  0.0428
   78SLPC  C212 7136   3.752   0.006   7.251 -0.4350  0.6464  0.0272
   78SLPC  H12R 7137   3.802   0.002   7.153  0.8922  0.3612  0.6992
   78SLPC  C213 7138   3.785  -0.076   7.352  0.6606 -0.6491  0.2892
   78SLPC  H13R 7139   3.869  -0.147   7.343  0.5790 -0.7108 -0.0143
   78SLPC  C214 7140   3.714  -0.073   7.485 -0.3386  0.6397 -0.1862
   78SLPC  H14R 7141   3.730  -0.174   7.530 -0.1580  0.6369 -0.2558
   78SLPC  H14S 7142   3.606  -0.051   7.475 -0.9149 -1.9836 -0.0620
   78SLPC  C215 7143   3.767   0.031   7.582  0.4749 -0.7764 -0.4222
   78SLPC  H15R 7144   3.811   0.112   7.520  0.9329  0.4546  1.4691
   78SLPC  H15S 7145   3.841  -0.008   7.656 -0.0613 -1.1323 -0.0651
   78SLPC  C216 7146   3.650   0.098   7.663 -0.4447 -0.5652 -0.4304
   78SLPC  H16R 7147   3.613   0.023   7.737 -0.0695  1.5070  1.9129
   78SLPC  H16S 7148   3.566   0.116   7.593  1.0028  0.1049 -1.9906
   78SLPC  C217 7149   3.705   0.231   7.733  0.0450 -0.1940  0.3072
   78SLPC  H17R 7150   3.728   0.294   7.644  0.3165  0.7583  1.0499
   78SLPC  H17S 7151   3.798   0.213   7.791  0.9448 -1.1526 -1.3674
   78SLPC  C218 7152   3.605   0.308   7.815  0.3529 -0.0965 -0.1544
   78SLPC  H18R 7153   3.570   0.246   7.901  1.5716 -0.4526  0.0978
   78SLPC  H18S 7154   3.512   0.340   7.765  0.3098  2.4924  1.4806
   78SLPC  H18T 7155   3.653   0.403   7.847 -1.7474  0.8042  0.3734
   78SLPC   C33 7156   2.518   0.219   7.036  0.2595  0.4192 -0.7711
   78SLPC   H3X 7157   2.609   0.270   7.073  0.0828 -0.8806  1.5784
   78SLPC   H3Y 7158   2.506   0.125   7.093  0.0842 -0.0064 -1.4978
   78SLPC   C34 7159   2.400   0.307   7.085 -0.2430  0.3562  0.3641
   78SLPC   H4X 7160   2.311   0.270   7.029 -1.2738  0.5498  1.8345
   78SLPC   H4Y 7161   2.424   0.409   7.048 -2.9049  0.0319 -2.4303
   78SLPC   C35 7162   2.375   0.297   7.228  0.0553 -0.1383  0.2682
   78SLPC   H5X 7163   2.372   0.191   7.261 -1.0402 -0.9031 -2.1331
   78SLPC   H5Y 7164   2.275   0.345   7.235  0.8111  1.8767 -1.8967
   78SLPC   C36 7165   2.470   0.375   7.315 -0.0496  0.1972  1.4465
   78SLPC   H6X 7166   2.503   0.465   7.259 -1.5380 -0.1650 -0.0332
   78SLPC   H6Y 7167   2.558   0.311   7.336 -0.6787 -1.1118  0.1751
   78SLPC   C37 7168   2.409   0.410   7.452  0.3088  0.4995 -0.8011
   78SLPC   H7X 7169   2.354   0.325   7.497 -0.5345  1.5983  0.2880
   78SLPC   H7Y 7170   2.326   0.483   7.437 -1.2887 -0.5166  2.6799
   78SLPC   C38 7171   2.518   0.451   7.554  0.1666  0.4155 -0.0189
   78SLPC   H8X 7172   2.565   0.549   7.530  1.0573  0.0441  0.1696
   78SLPC   H8Y 7173   2.596   0.372   7.547  0.8457  0.8715  2.1120
   78SLPC   C39 7174   2.442   0.451   7.687 -0.5870 -0.5154 -0.3316
   78SLPC   H9X 7175   2.408   0.348   7.712 -1.5439  0.3050  1.9042
   78SLPC   H9Y 7176   2.346   0.507   7.679  0.2201  0.8173 -0.8664
   78SLPC  C310 7177   2.530   0.488   7.803  0.3895 -0.1945 -0.3419
   78SLPC  H10X 7178   2.559   0.593   7.783 -2.6296  1.4900  3.2985
   78SLPC  H10Y 7179   2.626   0.432   7.804  0.3431 -0.2676  0.2079
   78SLPC  C311 7180   2.444   0.481   7.931  0.0602 -0.2028  0.2698
   78SLPC  H11X 7181   2.399   0.380   7.942  0.5482 -0.2740  1.7973
   78SLPC  H11Y 7182   2.358   0.550   7.928  1.1654  1.2648  1.5415
   78SLPC  C312 7183   2.512   0.509   8.063  0.3799 -0.5063  0.0501
   78SLPC  H12X 7184   2.595   0.434   8.068 -0.1481 -1.0432  0.9110
   78SLPC  H12Y 7185   2.450   0.488   8.153 -3.6877  0.6886 -2.3463
   78SLPC  C313 7186   2.566   0.658   8.068  0.5268  0.3119 -1.2442
   78SLPC  H13X 7187   2.480   0.727   8.057  0.8629  1.3251  2.0155
   78SLPC  H13Y 7188   2.628   0.684   7.978 -0.1761  0.4788 -1.6855
   78SLPC  C314 7189   2.646   0.696   8.197 -0.0740 -0.6045  0.5220
   78SLPC  H14X 7190   2.574   0.666   8.276 -0.9767  2.6648  1.0339
   78SLPC  H14Y 7191   2.662   0.805   8.215  2.6880 -0.7311 -0.9019
   78SLPC  C315 7192   2.770   0.612   8.225  0.1024  0.2766  0.1584
   78SLPC  H15X 7193   2.849   0.650   8.156 -1.3783  1.8490 -0.7108
   78SLPC  H15Y 7194   2.753   0.503   8.212  1.3975  0.0713  0.0889
   78SLPC  C316 7195   2.834   0.632   8.360 -0.5865  0.3554 -0.1549
   78SLPC  H16X 7196   2.765   0.626   8.447 -0.0340 -0.0583  0.2589
   78SLPC  H16Y 7197   2.872   0.736   8.375  2.7006 -0.8626  0.4020
   78SLPC  C317 7198   2.961   0.555   8.378 -0.3901  0.1672  0.1744
   78SLPC  H17X 7199   3.022   0.568   8.286 -1.4180  1.1670 -0.3765
   78SLPC  H17Y 7200   2.936   0.449   8.396  0.3641  0.1979  1.5513
   78SLPC  C318 7201   3.046   0.587   8.500  0.2070  0.0478  0.1296
   78SLPC  H18X 7202   3.146   0.538   8.498  0.8174  1.1322  2.1945
   78SLPC  H18Y 7203   2.995   0.563   8.596  2.3264  0.5260  1.4019
   78SLPC  H18Z 7204   3.057   0.697   8.505 -0.9117  0.2463 -1.4551
   79SLPC     N 7205   6.562   2.762   6.090  0.7119 -0.2360 -0.1006
   79SLPC   C13 7206   6.515   2.701   5.968 -0.0170  0.6098 -0.0622
   79SLPC  H13A 7207   6.477   2.602   5.990  1.3711  0.0838  0.0008
   79SLPC  H13B 7208   6.445   2.760   5.911 -0.5442 -0.9819 -1.1045
   79SLPC  H13C 7209   6.600   2.709   5.901  0.4501 -2.5337  0.0624
   79SLPC   C14 7210   6.463   2.742   6.197 -0.1567 -0.2826  0.9992
   79SLPC  H14A 7211   6.361   2.756   6.163  0.0914 -0.3445  0.2215
   79SLPC  H14B 7212   6.476   2.642   6.236  0.5571 -0.4214  0.3955
   79SLPC  H14C 7213   6.483   2.808   6.280 -0.4055 -0.8811  1.5436
   79SLPC   C15 7214   6.565   2.909   6.067 -0.0128  0.4882 -0.3008
   79SLPC  H15A 7215   6.604   2.961   6.154  0.9677 -0.6547 -0.0492
   79SLPC  H15B 7216   6.626   2.936   5.982  1.4758 -1.0304  0.2605
   79SLPC  H15C 7217   6.467   2.948   6.044 -0.2792  0.0919  0.1406
   79SLPC   C12 7218   6.690   2.699   6.137  0.3924  0.0249  0.8053
   79SLPC  H12A 7219   6.717   2.743   6.232 -0.9865 -1.4750  1.9197
   79SLPC  H12B 7220   6.757   2.726   6.057 -1.6168 -0.7888 -1.2166
   79SLPC   C11 7221   6.696   2.543   6.147 -0.4472  0.2676 -0.2061
   79SLPC  H11A 7222   6.801   2.521   6.175 -0.6114  0.8513  0.9013
   79SLPC  H11B 7223   6.671   2.488   6.054  0.8492 -0.7796  0.0452
   79SLPC     P 7224   6.563   2.347   6.250  0.1245 -0.0185 -0.4095
   79SLPC   O13 7225   6.434   2.348   6.183  0.1242  0.2254  0.2520
   79SLPC   O14 7226   6.666   2.248   6.212  0.0716  0.4766  0.1524
   79SLPC   O12 7227   6.611   2.499   6.250 -0.3186  0.4001  0.1184
   79SLPC   O11 7228   6.533   2.320   6.398  0.1342  0.1254  0.5369
   79SLPC    C1 7229   6.432   2.375   6.475  0.7670 -0.7622 -0.2883
   79SLPC    HA 7230   6.355   2.431   6.417 -0.1112 -1.6892 -0.0339
   79SLPC    HB 7231   6.390   2.292   6.535  1.2925 -1.5702 -1.0217
   79SLPC    C2 7232   6.494   2.467   6.585  0.6202  0.0906 -0.0159
   79SLPC    HS 7233   6.418   2.488   6.663  0.3436  2.2159 -0.8282
   79SLPC   O21 7234   6.540   2.586   6.524  0.6502  0.0806 -0.2182
   79SLPC   C21 7235   6.494   2.697   6.575  0.0357  0.1621  0.0625
   79SLPC   O22 7236   6.396   2.710   6.654 -0.7875 -1.0539 -0.0830
   79SLPC   C22 7237   6.597   2.801   6.533  0.0190  0.2233 -0.3843
   79SLPC   H2R 7238   6.699   2.759   6.548  0.5659  1.6391 -0.0079
   79SLPC   H2S 7239   6.587   2.812   6.423  3.8578 -1.0297 -0.9494
   79SLPC    C3 7240   6.609   2.402   6.654  0.4349 -0.1762 -0.1918
   79SLPC    HX 7241   6.688   2.405   6.575 -1.0766  1.2546 -1.7011
   79SLPC    HY 7242   6.574   2.298   6.675  1.2438 -0.8592 -2.0955
   79SLPC   O31 7243   6.652   2.473   6.770 -0.6831 -0.3288 -0.3865
   79SLPC   C31 7244   6.770   2.428   6.804  0.3293  0.8729  0.5453
   79SLPC   O32 7245   6.828   2.323   6.775 -0.3090  0.1343 -0.6770
   79SLPC   C32 7246   6.816   2.521   6.912  0.3797 -0.3665 -0.8263
   79SLPC   H2X 7247   6.768   2.498   7.009 -0.0488  0.2915 -0.8741
   79SLPC   H2Y 7248   6.802   2.629   6.886  0.1333 -0.2977 -0.4152
   79SLPC   C23 7249   6.581   2.942   6.602  0.7418  0.0143 -0.3741
   79SLPC   H3R 7250   6.478   2.978   6.587  1.1305  1.8027  0.9815
   79SLPC   H3S 7251   6.649   3.017   6.555  0.4621  1.1424  0.9528
   79SLPC   C24 7252   6.615   2.936   6.756  0.4097  0.4280 -0.1988
   79SLPC   H4R 7253   6.722   2.910   6.771 -0.0511 -0.7987  1.0438
   79SLPC   H4S 7254   6.556   2.852   6.799 -0.9798  1.6337  0.2684
   79SLPC   C25 7255   6.579   3.070   6.818 -0.1203 -0.2617 -0.2285
   79SLPC   H5R 7256   6.468   3.083   6.818 -0.1562 -0.3882 -2.6228
   79SLPC   H5S 7257   6.630   3.143   6.752  1.5488 -2.5831 -1.5575
   79SLPC   C26 7258   6.625   3.086   6.962  0.0091  0.4520 -0.3336
   79SLPC   H6R 7259   6.734   3.104   6.973 -0.4610  2.7619  0.8483
   79SLPC   H6S 7260   6.597   2.991   7.012  0.4877  0.5138  0.0482
   79SLPC   C27 7261   6.551   3.197   7.036 -0.1993  0.1827 -0.6014
   79SLPC   H7R 7262   6.446   3.205   7.001  0.0554 -1.6150 -1.8676
   79SLPC   H7S 7263   6.599   3.293   7.007  0.3505  0.6786  1.8795
   79SLPC   C28 7264   6.582   3.182   7.189  0.1550  0.2130 -0.1029
   79SLPC   H8R 7265   6.527   3.261   7.244  0.0720 -0.4016  0.6964
   79SLPC   H8S 7266   6.691   3.197   7.207  0.3792  0.9527 -1.9556
   79SLPC   C29 7267   6.540   3.058   7.263  0.2744  0.3847  0.2598
   79SLPC   H9R 7268   6.479   2.985   7.208 -1.6551 -0.0556  2.8516
   79SLPC  C210 7269   6.533   3.043   7.400  1.2931  0.7386  0.5110
   79SLPC  H10R 7270   6.485   2.952   7.439 -0.7840  0.8974 -1.5341
   79SLPC  C211 7271   6.581   3.137   7.502  1.3232  0.2640  0.6393
   79SLPC  H11R 7272   6.491   3.188   7.543 -0.1253 -0.6631 -1.2799
   79SLPC  H11S 7273   6.648   3.214   7.459 -0.5657  0.7001 -1.6131
   79SLPC  C212 7274   6.653   3.068   7.620 -0.2975  0.7033  0.7224
   79SLPC  H12R 7275   6.723   2.987   7.593 -2.4776 -1.9479  2.6403
   79SLPC  C213 7276   6.637   3.097   7.749  0.6767 -0.3382  0.2141
   79SLPC  H13R 7277   6.703   3.041   7.817  1.5321  0.1766 -0.1858
   79SLPC  C214 7278   6.537   3.200   7.809 -0.0190 -0.3599  0.7566
   79SLPC  H14R 7279   6.450   3.208   7.741  0.4239 -2.7298 -0.1142
   79SLPC  H14S 7280   6.592   3.297   7.813 -1.1159  0.3434 -0.6696
   79SLPC  C215 7281   6.480   3.168   7.944  0.4575  0.3995  0.7090
   79SLPC  H15R 7282   6.424   3.073   7.927 -0.0178  0.8381 -0.2557
   79SLPC  H15S 7283   6.394   3.235   7.967 -0.1929 -0.0695 -0.3259
   79SLPC  C216 7284   6.585   3.162   8.055  0.2310 -0.0219 -0.2063
   79SLPC  H16R 7285   6.625   3.265   8.067  2.7448 -1.0845  0.9861
   79SLPC  H16S 7286   6.672   3.095   8.036  0.7705  0.0469  1.8924
   79SLPC  C217 7287   6.523   3.129   8.192  0.1999  0.0466  0.5976
   79SLPC  H17R 7288   6.604   3.086   8.255 -1.2276 -2.3365  0.8784
   79SLPC  H17S 7289   6.448   3.049   8.173 -0.8595  1.3427 -0.8043
   79SLPC  C218 7290   6.455   3.244   8.261 -0.4932 -1.2173  0.0828
   79SLPC  H18R 7291   6.531   3.318   8.294  0.7840 -3.0946  1.4558
   79SLPC  H18S 7292   6.398   3.209   8.350  1.0918 -0.1898  1.5371
   79SLPC  H18T 7293   6.390   3.297   8.188  3.0432  0.5501 -1.9031
   79SLPC   C33 7294   6.967   2.504   6.939  0.7539  0.1303 -0.2255
   79SLPC   H3X 7295   7.023   2.559   6.860 -0.0220 -0.4310 -1.1827
   79SLPC   H3Y 7296   6.996   2.397   6.944  1.0660  0.1787 -0.9339
   79SLPC   C34 7297   7.011   2.563   7.075  0.4275 -0.1599 -0.3944
   79SLPC   H4X 7298   6.962   2.662   7.090  2.6173  1.0140 -0.7535
   79SLPC   H4Y 7299   7.117   2.594   7.065  0.1565  1.7099  2.0072
   79SLPC   C35 7300   6.999   2.471   7.197 -0.0220 -0.1650  0.2251
   79SLPC   H5X 7301   7.074   2.392   7.176  0.6679  0.7870 -0.9216
   79SLPC   H5Y 7302   6.905   2.413   7.208  0.3432 -0.6028  1.0781
   79SLPC   C36 7303   7.042   2.543   7.330  0.4007 -0.5703  0.2880
   79SLPC   H6X 7304   7.120   2.622   7.322 -0.0195 -0.2698 -1.0495
   79SLPC   H6Y 7305   7.085   2.463   7.393  0.9632 -0.9310 -0.5531
   79SLPC   C37 7306   6.924   2.604   7.413 -0.1197  0.5265  0.3319
   79SLPC   H7X 7307   6.845   2.526   7.415 -0.2306  0.6434  0.4506
   79SLPC   H7Y 7308   6.879   2.687   7.356  0.5604 -0.4561 -1.6792
   79SLPC   C38 7309   6.970   2.655   7.547 -0.2411 -0.0378 -0.1316
   79SLPC   H8X 7310   7.013   2.757   7.535 -4.2728  2.0109  1.6056
   79SLPC   H8Y 7311   7.049   2.590   7.589  0.6975  2.0887  1.4906
   79SLPC   C39 7312   6.862   2.664   7.661  0.3419  0.5781  0.5673
   79SLPC   H9X 7313   6.854   2.558   7.694 -2.9871  0.8556  0.8312
   79SLPC   H9Y 7314   6.772   2.692   7.602  1.0921 -0.6535 -1.1975
   79SLPC  C310 7315   6.897   2.754   7.775 -0.1055 -0.2974  0.0663
   79SLPC  H10X 7316   6.901   2.861   7.748 -0.5522  0.1928  1.8706
   79SLPC  H10Y 7317   6.998   2.726   7.814 -0.5764  0.9208  2.2049
   79SLPC  C311 7318   6.798   2.750   7.884  0.4686  0.0316 -0.3562
   79SLPC  H11X 7319   6.701   2.796   7.855  0.3883  0.2300  0.2221
   79SLPC  H11Y 7320   6.840   2.816   7.963  1.3325 -0.4675 -0.3960
   79SLPC  C312 7321   6.781   2.612   7.952  0.5228  0.3225 -0.1601
   79SLPC  H12X 7322   6.876   2.557   7.936 -0.7714 -1.8290 -0.6801
   79SLPC  H12Y 7323   6.707   2.547   7.900  1.1914  0.1250 -0.8606
   79SLPC  C313 7324   6.761   2.613   8.100  0.3151 -0.5555 -0.0913
   79SLPC  H13X 7325   6.695   2.528   8.129  1.1125 -0.7436  1.2072
   79SLPC  H13Y 7326   6.712   2.705   8.138  0.5787 -0.4736  0.0511
   79SLPC  C314 7327   6.894   2.593   8.175 -0.4054  0.1706 -0.3321
   79SLPC  H14X 7328   6.961   2.680   8.158  1.9195 -1.7647 -1.3241
   79SLPC  H14Y 7329   6.955   2.508   8.139 -0.7765 -0.0106 -0.5315
   79SLPC  C315 7330   6.881   2.568   8.323  0.2872  0.1668 -0.3538
   79SLPC  H15X 7331   6.981   2.562   8.371 -0.0465 -1.3723  0.1566
   79SLPC  H15Y 7332   6.834   2.469   8.341  0.6364  0.1551  0.5264
   79SLPC  C316 7333   6.795   2.660   8.408 -0.5921 -0.0281 -0.2210
   79SLPC  H16X 7334   6.775   2.617   8.509  3.1015  0.7894  0.9320
   79SLPC  H16Y 7335   6.698   2.688   8.360 -0.0118  0.6552 -1.0113
   79SLPC  C317 7336   6.856   2.798   8.430 -0.7034  0.2189  0.4926
   79SLPC  H17X 7337   6.878   2.848   8.333  0.3224 -0.3786  0.4109
   79SLPC  H17Y 7338   6.954   2.805   8.483 -1.8552  0.3175  2.6506
   79SLPC  C318 7339   6.761   2.897   8.494  0.0059 -0.0179  0.3608
   79SLPC  H18X 7340   6.756   2.874   8.603 -0.6825  1.2718  0.6083
   79SLPC  H18Y 7341   6.659   2.888   8.451  1.2212 -1.8013 -2.3230
   79SLPC  H18Z 7342   6.782   3.004   8.476  0.5678 -0.4413 -1.6298
   80SLPC     N 7343   1.453   6.106   6.115  0.3048  0.2745  0.6822
   80SLPC   C13 7344   1.311   6.054   6.119 -0.4217  0.2985 -0.1687
   80SLPC  H13A 7345   1.281   6.018   6.216 -1.7072  0.4856 -0.4866
   80SLPC  H13B 7346   1.235   6.129   6.101  0.7115  1.1244 -1.5150
   80SLPC  H13C 7347   1.280   5.979   6.048 -0.9752  0.2770  0.0907
   80SLPC   C14 7348   1.458   6.189   5.990 -0.2699 -0.1985  0.6574
   80SLPC  H14A 7349   1.415   6.285   6.015 -0.7029 -0.6472  1.6999
   80SLPC  H14B 7350   1.557   6.209   5.952 -0.7894 -0.5747 -0.9345
   80SLPC  H14C 7351   1.404   6.129   5.919  1.9913 -1.2642 -0.1960
   80SLPC   C15 7352   1.546   5.991   6.112  0.6037 -0.1095 -0.1076
   80SLPC  H15A 7353   1.524   5.928   6.026 -0.0514 -0.2193  0.1365
   80SLPC  H15B 7354   1.645   6.032   6.100 -0.7179  3.2162  0.0584
   80SLPC  H15C 7355   1.541   5.934   6.204  1.0686 -0.7297 -0.4574
   80SLPC   C12 7356   1.480   6.203   6.229  0.0490 -0.2745  0.5927
   80SLPC  H12A 7357   1.582   6.237   6.223 -0.1248  0.1088 -0.1744
   80SLPC  H12B 7358   1.478   6.134   6.313  0.5299 -0.1633  0.7005
   80SLPC   C11 7359   1.404   6.324   6.257  0.5396 -0.5924 -0.3913
   80SLPC  H11A 7360   1.419   6.362   6.360  1.6332 -0.6786 -0.5090
   80SLPC  H11B 7361   1.300   6.286   6.252 -0.1383  1.1394  0.1351
   80SLPC     P 7362   1.540   6.526   6.189  0.1769  0.0453  0.2653
   80SLPC   O13 7363   1.664   6.444   6.177  0.1522  0.2605  0.4005
   80SLPC   O14 7364   1.530   6.647   6.107 -0.4509  0.5176  0.2813
   80SLPC   O12 7365   1.412   6.428   6.161  0.6574 -0.1367  0.2797
   80SLPC   O11 7366   1.532   6.563   6.333 -0.1329 -0.6053  0.4892
   80SLPC    C1 7367   1.433   6.654   6.378 -0.3952  0.7255 -0.7539
   80SLPC    HA 7368   1.457   6.756   6.340 -2.1482  1.0573 -1.0421
   80SLPC    HB 7369   1.336   6.616   6.339  0.6129 -1.6806 -0.9953
   80SLPC    C2 7370   1.417   6.667   6.528  0.1185  0.0256 -0.5059
   80SLPC    HS 7371   1.322   6.720   6.550  0.5113  1.4798 -2.2299
   80SLPC   O21 7372   1.531   6.743   6.575  0.2921 -0.3443 -0.9690
   80SLPC   C21 7373   1.509   6.813   6.684  0.8484 -0.1613 -0.2867
   80SLPC   O22 7374   1.407   6.829   6.741 -0.0505  0.8699  0.5616
   80SLPC   C22 7375   1.642   6.846   6.747 -0.9726 -0.2058 -0.4675
   80SLPC   H2R 7376   1.676   6.772   6.822 -0.0873  2.7645  2.1655
   80SLPC   H2S 7377   1.730   6.857   6.680  1.4623 -0.3906  2.5990
   80SLPC    C3 7378   1.415   6.529   6.607 -0.2148 -0.2679 -0.5994
   80SLPC    HX 7379   1.501   6.461   6.586  0.0859  0.1748 -0.8236
   80SLPC    HY 7380   1.322   6.481   6.570 -1.0844  0.7283  0.2807
   80SLPC   O31 7381   1.383   6.543   6.745 -0.8296 -0.3730  1.2587
   80SLPC   C31 7382   1.485   6.538   6.834  0.1765  0.2153 -1.1283
   80SLPC   O32 7383   1.599   6.516   6.806 -0.1786  0.5067  0.9811
   80SLPC   C32 7384   1.429   6.575   6.973  0.3993  0.3241  0.0198
   80SLPC   H2X 7385   1.323   6.543   6.987  0.2537  1.3232  1.3022
   80SLPC   H2Y 7386   1.411   6.685   6.968  0.4361  0.3007 -0.5773
   80SLPC   C23 7387   1.626   6.982   6.824  0.5935 -0.2658 -0.1411
   80SLPC   H3R 7388   1.568   7.050   6.758  2.3190  1.9874  0.5992
   80SLPC   H3S 7389   1.726   7.026   6.841  0.0842  0.8226  0.0496
   80SLPC   C24 7390   1.561   6.956   6.963 -0.4302 -0.0486  0.3941
   80SLPC   H4R 7391   1.621   6.867   6.991  0.1516  0.3454  0.4104
   80SLPC   H4S 7392   1.453   6.933   6.959 -0.2710 -1.2409  2.4398
   80SLPC   C25 7393   1.553   7.079   7.052 -0.0288  0.0932  0.0088
   80SLPC   H5R 7394   1.500   7.171   7.019 -0.0755  0.2163  0.4242
   80SLPC   H5S 7395   1.658   7.115   7.059  0.2811 -0.6806 -0.5027
   80SLPC   C26 7396   1.525   7.042   7.197 -0.4015 -0.3500  0.0485
   80SLPC   H6R 7397   1.601   6.965   7.227 -0.4927 -0.8829 -1.0697
   80SLPC   H6S 7398   1.423   6.999   7.201  0.0315 -1.7449 -2.6926
   80SLPC   C27 7399   1.538   7.157   7.299 -0.4588  0.4203 -0.9890
   80SLPC   H7R 7400   1.511   7.253   7.250 -0.0197  1.0982  0.0688
   80SLPC   H7S 7401   1.646   7.165   7.326 -0.9511  2.8615  0.4335
   80SLPC   C28 7402   1.454   7.135   7.430 -0.3742  0.4918  0.6950
   80SLPC   H8R 7403   1.478   7.033   7.467  1.0401  0.1114 -1.2175
   80SLPC   H8S 7404   1.346   7.127   7.406  0.0435  2.5114 -2.1169
   80SLPC   C29 7405   1.486   7.229   7.546 -0.0355 -0.2544 -0.2124
   80SLPC   H9R 7406   1.557   7.302   7.504 -0.1939  0.6062  0.9975
   80SLPC  C210 7407   1.441   7.238   7.679  0.0511  0.7579 -0.4098
   80SLPC  H10R 7408   1.494   7.310   7.743  0.3091  1.0254 -0.9206
   80SLPC  C211 7409   1.344   7.150   7.748  0.3151  0.1583 -0.0554
   80SLPC  H11R 7410   1.390   7.061   7.797 -0.5712  0.8077  2.0472
   80SLPC  H11S 7411   1.263   7.115   7.681 -0.5174 -1.4195  1.7081
   80SLPC  C212 7412   1.264   7.208   7.866 -0.1554 -0.0048 -0.1085
   80SLPC  H12R 7413   1.288   7.310   7.897 -1.2761 -0.2670  1.6827
   80SLPC  C213 7414   1.162   7.152   7.937 -0.2558 -0.7734  0.6316
   80SLPC  H13R 7415   1.118   7.201   8.025 -0.7176  1.3970 -0.7524
   80SLPC  C214 7416   1.090   7.021   7.909 -0.4247 -0.5799 -0.0557
   80SLPC  H14R 7417   1.150   6.961   7.838  0.2706 -1.8519  1.5799
   80SLPC  H14S 7418   0.986   7.041   7.875 -0.8301 -0.0711  1.4399
   80SLPC  C215 7419   1.070   6.932   8.032  0.4311  0.1206 -0.0247
   80SLPC  H15R 7420   1.164   6.876   8.051 -0.4488 -1.0803  0.8849
   80SLPC  H15S 7421   1.002   6.850   8.002 -2.3044  2.4470 -0.3831
   80SLPC  C216 7422   1.007   7.001   8.155  0.3816 -0.2489 -0.6510
   80SLPC  H16R 7423   0.923   7.061   8.114  1.7519  1.8956 -0.4045
   80SLPC  H16S 7424   1.078   7.073   8.202 -1.6629  0.8608  0.7676
   80SLPC  C217 7425   0.968   6.890   8.266  0.0406 -0.3258  0.2861
   80SLPC  H17R 7426   1.061   6.842   8.301  1.5784  0.4882 -2.4953
   80SLPC  H17S 7427   0.918   6.808   8.210 -0.0053 -0.0222 -0.1234
   80SLPC  C218 7428   0.887   6.941   8.387  0.4172 -0.0533 -0.0303
   80SLPC  H18R 7429   0.941   7.026   8.436  1.0761 -0.4917  0.0111
   80SLPC  H18S 7430   0.868   6.865   8.465  2.0962 -0.6255 -0.1520
   80SLPC  H18T 7431   0.793   6.992   8.357  1.0116  0.7996 -0.4931
   80SLPC   C33 7432   1.515   6.520   7.092 -0.1643 -0.7698 -0.8638
   80SLPC   H3X 7433   1.618   6.552   7.065 -0.2676 -0.4359 -0.8601
   80SLPC   H3Y 7434   1.516   6.410   7.107  2.4132 -0.7555 -0.5888
   80SLPC   C34 7435   1.467   6.572   7.232 -0.2484  0.9683 -0.4845
   80SLPC   H4X 7436   1.391   6.503   7.273  0.9333  1.0025  1.8821
   80SLPC   H4Y 7437   1.432   6.677   7.217  0.6923  1.5083  0.8951
   80SLPC   C35 7438   1.576   6.572   7.340  0.0257  0.9370 -0.5220
   80SLPC   H5X 7439   1.658   6.645   7.325 -0.5591  2.2935  2.6423
   80SLPC   H5Y 7440   1.620   6.470   7.337 -2.3795 -0.1662  0.0512
   80SLPC   C36 7441   1.538   6.580   7.486 -0.3252  0.1224 -0.4545
   80SLPC   H6X 7442   1.632   6.577   7.546 -1.4557 -0.4566  1.3335
   80SLPC   H6Y 7443   1.474   6.497   7.523  4.0766 -3.2982 -0.0612
   80SLPC   C37 7444   1.456   6.709   7.508  0.2442 -0.1793 -0.1143
   80SLPC   H7X 7445   1.374   6.720   7.434 -0.5256 -0.9930  0.6185
   80SLPC   H7Y 7446   1.534   6.787   7.496  0.4004  0.1939  3.0255
   80SLPC   C38 7447   1.411   6.726   7.654  0.1469  0.4872  0.5216
   80SLPC   H8X 7448   1.391   6.623   7.687  1.3085 -0.1680 -0.7390
   80SLPC   H8Y 7449   1.321   6.792   7.651 -1.2356 -1.4300 -1.2630
   80SLPC   C39 7450   1.522   6.797   7.737  0.1952 -0.3050  0.6039
   80SLPC   H9X 7451   1.539   6.902   7.706 -0.5783 -0.9207 -2.1014
   80SLPC   H9Y 7452   1.613   6.734   7.733  1.4153  1.4227  0.9266
   80SLPC  C310 7453   1.472   6.813   7.882  0.7798  0.4318  0.5228
   80SLPC  H10X 7454   1.458   6.710   7.922  2.0547  0.1265  0.2116
   80SLPC  H10Y 7455   1.374   6.863   7.886  2.8995  4.7610  0.6461
   80SLPC  C311 7456   1.569   6.889   7.971 -0.5670 -0.2624  0.2634
   80SLPC  H11X 7457   1.607   6.982   7.924 -0.3309 -0.2248  0.5282
   80SLPC  H11Y 7458   1.662   6.833   7.993  0.3685  0.9217 -0.6077
   80SLPC  C312 7459   1.509   6.928   8.100  0.3087  0.4107 -0.5691
   80SLPC  H12X 7460   1.500   6.843   8.171 -1.2749  1.6914  0.7931
   80SLPC  H12Y 7461   1.409   6.973   8.084 -0.2518  0.2696  2.3614
   80SLPC  C313 7462   1.577   7.046   8.165 -0.0310  0.1505 -0.4563
   80SLPC  H13X 7463   1.559   7.141   8.109 -5.1197 -0.4261 -0.0387
   80SLPC  H13Y 7464   1.685   7.029   8.182  0.1563 -0.0043 -1.6998
   80SLPC  C314 7465   1.531   7.062   8.316  0.4530  0.0931  0.2937
   80SLPC  H14X 7466   1.549   6.964   8.365 -1.4058 -1.4435 -2.0169
   80SLPC  H14Y 7467   1.427   7.100   8.326  0.7381  1.0098 -0.1434
   80SLPC  C315 7468   1.621   7.154   8.401 -0.3090  0.1518 -0.3491
   80SLPC  H15X 7469   1.721   7.106   8.406 -0.5728 -0.6009 -2.0498
   80SLPC  H15Y 7470   1.579   7.173   8.503  1.3020  0.3763  0.2816
   80SLPC  C316 7471   1.636   7.295   8.329 -0.4754  0.3547 -1.0114
   80SLPC  H16X 7472   1.540   7.320   8.278 -0.9127  1.9576  0.5437
   80SLPC  H16Y 7473   1.712   7.284   8.249 -0.5227 -2.6234 -0.7071
   80SLPC  C317 7474   1.682   7.416   8.413  0.5300  0.7216  0.5725
   80SLPC  H17X 7475   1.787   7.400   8.444  0.7144  2.2008  0.7316
   80SLPC  H17Y 7476   1.626   7.424   8.509 -0.0995 -1.5894  0.4364
   80SLPC  C318 7477   1.677   7.553   8.337 -0.2424  0.2316 -0.4393
   80SLPC  H18X 7478   1.577   7.569   8.291 -0.5480  1.1052  0.4923
   80SLPC  H18Y 7479   1.752   7.557   8.256  0.2092  1.2576  0.0117
   80SLPC  H18Z 7480   1.692   7.645   8.398  1.4496 -1.9781  2.5919
   81SAPS     N 7481   1.605   2.111  10.854  0.0239 -0.1061 -0.3358
   81SAPS   HN1 7482   1.659   2.064  10.929 -1.1141  1.4864  1.5195
   81SAPS   HN2 7483   1.651   2.130  10.763  1.6281  1.9203  0.8724
   81SAPS   HN3 7484   1.574   2.205  10.884  0.0559  0.6970 -2.7387
   81SAPS   C12 7485   1.489   2.015  10.847  0.2773 -0.2823  0.9433
   81SAPS  H12A 7486   1.534   1.933  10.792 -2.1658  0.4554 -2.3494
   81SAPS   C13 7487   1.436   1.961  10.978 -0.3669 -0.2855 -0.1863
   81SAPS  O13A 7488   1.489   2.010  11.084 -0.0020  0.3141 -0.9627
   81SAPS  O13B 7489   1.349   1.872  10.980  0.4747 -0.5632 -0.2818
   81SAPS   C11 7490   1.377   2.077  10.758 -0.0773 -0.6958 -0.1185
   81SAPS  H11A 7491   1.310   1.998  10.718  0.7953 -2.0757  1.0899
   81SAPS  H11B 7492   1.415   2.125  10.666 -0.0520  0.2429  0.3758
   81SAPS     P 7493   1.312   2.316  10.835 -0.4435  0.4370  0.1225
   81SAPS   O13 7494   1.195   2.365  10.912  0.3664  0.5976  0.4737
   81SAPS   O14 7495   1.446   2.340  10.879 -0.3288 -0.9972  0.1179
   81SAPS   O12 7496   1.294   2.156  10.837 -0.2818 -0.2923 -0.5151
   81SAPS   O11 7497   1.289   2.356  10.688 -0.8138 -0.1909  0.3474
   81SAPS    C1 7498   1.176   2.309  10.612 -0.3028  1.0602  0.4086
   81SAPS    HA 7499   1.180   2.200  10.591  0.1114  1.5374 -2.1607
   81SAPS    HB 7500   1.086   2.328  10.674 -1.6351  0.7142 -1.4075
   81SAPS    C2 7501   1.135   2.385  10.481 -0.0058  0.0149  0.2971
   81SAPS    HS 7502   1.060   2.321  10.429 -0.0857  0.2229  0.1555
   81SAPS   O21 7503   1.250   2.401  10.395  0.4676 -0.8545 -0.0441
   81SAPS   C21 7504   1.298   2.286  10.344  0.0129 -0.3730 -0.2171
   81SAPS   O22 7505   1.245   2.179  10.352  0.3150  0.4776  0.4270
   81SAPS   C22 7506   1.430   2.311  10.262  0.4936  0.0558  0.2339
   81SAPS   H2R 7507   1.410   2.366  10.168  0.4115 -0.7546 -0.2240
   81SAPS   H2S 7508   1.484   2.387  10.323 -2.1081  2.4270 -0.3226
   81SAPS    C3 7509   1.067   2.526  10.507 -0.8775  0.2310 -0.1316
   81SAPS    HX 7510   1.123   2.572  10.591 -1.6934  0.3139  0.3740
   81SAPS    HY 7511   0.974   2.483  10.550 -0.5118 -2.2672 -1.6917
   81SAPS   O31 7512   1.030   2.604  10.392  0.5289 -0.0846  0.5255
   81SAPS   C31 7513   1.135   2.681  10.354 -0.4729  0.5348 -0.4449
   81SAPS   O32 7514   1.239   2.695  10.419 -0.1928 -0.2374 -0.2529
   81SAPS   C32 7515   1.113   2.759  10.224 -0.0042  0.6639 -0.2962
   81SAPS   H2X 7516   1.184   2.844  10.231  0.2620  0.8101 -3.8688
   81SAPS   H2Y 7517   1.006   2.788  10.218  0.1034  1.0312 -0.4478
   81SAPS   C23 7518   1.515   2.188  10.223  0.0388 -0.0766  0.0762
   81SAPS   H3R 7519   1.502   2.114  10.304 -0.0798  0.4764  0.5687
   81SAPS   H3S 7520   1.621   2.219  10.220  0.4887 -1.4867  1.0752
   81SAPS   C24 7521   1.469   2.134  10.084  0.2822  0.0940  0.3379
   81SAPS   H4R 7522   1.548   2.063  10.052  1.6781  1.9985 -0.5189
   81SAPS   H4S 7523   1.472   2.216  10.009  0.4914  0.4966  0.7853
   81SAPS   C25 7524   1.339   2.064  10.077  0.2361 -0.4155  0.9849
   81SAPS   H5R 7525   1.319   1.994  10.161 -4.7758 -2.5171 -1.6857
   81SAPS   C26 7526   1.238   2.068   9.991  0.4931 -0.4257  0.1661
   81SAPS   H6R 7527   1.156   1.995   9.994 -0.3084  0.3654 -1.8575
   81SAPS   C27 7528   1.241   2.147   9.861 -0.4866 -0.1914 -0.3180
   81SAPS   H7R 7529   1.327   2.216   9.872 -1.4118  0.9023  0.1437
   81SAPS   H7S 7530   1.162   2.224   9.877 -1.1751 -0.7675 -0.9076
   81SAPS   C28 7531   1.232   2.069   9.733  0.0908 -0.1956  0.2657
   81SAPS   H8R 7532   1.162   1.984   9.731  0.8775 -0.8921  1.6411
   81SAPS   C29 7533   1.301   2.093   9.620  0.3656  0.0469  0.3662
   81SAPS   H9R 7534   1.282   2.032   9.531 -0.5110  0.6487  0.1331
   81SAPS  C210 7535   1.405   2.200   9.608  0.2983  0.2044  0.5218
   81SAPS  H10R 7536   1.487   2.187   9.682 -1.8738 -0.0728  2.9300
   81SAPS  H10S 7537   1.355   2.296   9.630  0.7509  0.0917  2.0820
   81SAPS  C211 7538   1.464   2.215   9.468 -0.3164 -0.1434  0.7161
   81SAPS  H11R 7539   1.573   2.206   9.456 -0.6790 -1.8421 -1.7559
   81SAPS  C212 7540   1.406   2.226   9.347  0.2034  0.6736  0.3488
   81SAPS  H12R 7541   1.473   2.229   9.260 -0.7447  0.6113 -0.4004
   81SAPS  C213 7542   1.259   2.242   9.307 -0.5382 -0.3765  0.0210
   81SAPS  H13R 7543   1.190   2.268   9.390  0.2146 -0.0155  0.5364
   81SAPS  H13S 7544   1.226   2.143   9.271  2.0125 -0.5973 -1.8758
   81SAPS  C214 7545   1.243   2.333   9.191 -0.0952 -0.2686 -0.4588
   81SAPS  H14R 7546   1.230   2.440   9.213 -0.4211 -0.3909 -0.0489
   81SAPS  C215 7547   1.232   2.303   9.056 -0.5032 -0.5077 -0.1365
   81SAPS  H15R 7548   1.222   2.377   8.976  1.9626 -1.3953 -1.3402
   81SAPS  C216 7549   1.248   2.159   9.001  0.2430  0.5753  0.6254
   81SAPS  H16R 7550   1.163   2.143   8.931  1.6294  2.3906 -1.5655
   81SAPS  H16S 7551   1.239   2.080   9.079  0.3217  1.2132  1.2895
   81SAPS  C217 7552   1.378   2.131   8.924  0.9591  0.7451  0.6290
   81SAPS  H17R 7553   1.379   2.030   8.879  2.5066  1.2233 -0.4497
   81SAPS  H17S 7554   1.448   2.153   9.007  0.1928  0.7768  1.2829
   81SAPS  C218 7555   1.413   2.225   8.812 -0.6384  0.1094  0.3963
   81SAPS  H18R 7556   1.517   2.219   8.774 -0.7821  0.6041 -0.0801
   81SAPS  H18S 7557   1.399   2.332   8.840 -3.1586 -0.0255 -0.1808
   81SAPS  C219 7558   1.324   2.210   8.684 -0.0507 -0.3732 -0.1480
   81SAPS  H19R 7559   1.377   2.256   8.597  0.3496 -1.6943 -0.6222
   81SAPS  H19S 7560   1.227   2.263   8.695  1.5047  2.2598  1.3258
   81SAPS  C220 7561   1.298   2.066   8.633 -0.4592  0.1482  0.0795
   81SAPS  H20R 7562   1.399   2.019   8.626  0.1194  0.7209  3.4647
   81SAPS  H20S 7563   1.242   2.068   8.537 -1.0777 -2.2246  0.3456
   81SAPS  H20T 7564   1.239   2.000   8.701  1.9542 -0.9557  1.1841
   81SAPS   C33 7565   1.153   2.673  10.098  0.3654  1.2052  0.2052
   81SAPS   H3X 7566   1.262   2.650  10.104 -0.1527 -1.8696 -1.1232
   81SAPS   H3Y 7567   1.151   2.737  10.007  2.1376  0.8270 -0.1119
   81SAPS   C34 7568   1.074   2.545  10.089 -0.1055  0.0620  0.1613
   81SAPS   H4X 7569   0.970   2.562  10.124  0.4001  1.5223  1.0075
   81SAPS   H4Y 7570   1.114   2.473  10.163 -1.5929  0.6142  1.5154
   81SAPS   C35 7571   1.091   2.473   9.958  0.2958  0.2720 -0.4248
   81SAPS   H5X 7572   1.015   2.392   9.967  1.1651 -0.8966 -3.0155
   81SAPS   H5Y 7573   1.190   2.422   9.952 -0.3279 -1.0225  0.0105
   81SAPS   C36 7574   1.065   2.564   9.839  0.4126  0.0691 -0.7670
   81SAPS   H6X 7575   1.156   2.624   9.822  0.4516  0.4481  0.7511
   81SAPS   H6Y 7576   0.983   2.636   9.861  0.0434 -0.8875  1.1480
   81SAPS   C37 7577   1.027   2.479   9.709 -0.3444  0.4837  0.0842
   81SAPS   H7X 7578   0.938   2.416   9.731 -1.2707  1.7957  0.1595
   81SAPS   H7Y 7579   1.110   2.407   9.695 -1.0387 -0.4698  0.8427
   81SAPS   C38 7580   1.015   2.551   9.575  0.1238  0.6083 -0.3659
   81SAPS   H8X 7581   1.115   2.595   9.558 -1.0175  2.7832 -1.6769
   81SAPS   H8Y 7582   0.952   2.642   9.580  1.1911  1.4334 -1.6754
   81SAPS   C39 7583   0.959   2.451   9.479 -0.3593  0.0268  0.3746
   81SAPS   H9X 7584   0.873   2.391   9.514  1.2980 -1.6675  1.6437
   81SAPS   H9Y 7585   1.035   2.371   9.466  1.0206  1.2445  0.7437
   81SAPS  C310 7586   0.918   2.525   9.351  0.3515 -0.0773 -0.1896
   81SAPS  H10X 7587   1.001   2.585   9.308 -1.5977  2.2016 -0.8686
   81SAPS  H10Y 7588   0.840   2.598   9.382  0.1839  0.3891 -1.6996
   81SAPS  C311 7589   0.852   2.435   9.251 -0.2887  0.4103 -0.0881
   81SAPS  H11X 7590   0.776   2.367   9.296 -0.0217  0.2663  0.1468
   81SAPS  H11Y 7591   0.933   2.373   9.206  0.0080  1.1613 -0.5918
   81SAPS  C312 7592   0.785   2.521   9.138 -0.5124 -0.0447 -0.2972
   81SAPS  H12X 7593   0.721   2.604   9.175 -1.8095 -1.4518  0.6734
   81SAPS  H12Y 7594   0.710   2.460   9.082  0.1607 -0.7319 -0.4576
   81SAPS  C313 7595   0.880   2.573   9.029 -0.5403  0.3705 -0.0145
   81SAPS  H13X 7596   0.905   2.483   8.969 -0.6776 -0.1867  0.7461
   81SAPS  H13Y 7597   0.976   2.606   9.074 -0.1106  2.5101 -2.4138
   81SAPS  C314 7598   0.822   2.678   8.943 -0.1950 -0.3706 -0.3625
   81SAPS  H14X 7599   0.893   2.708   8.863 -0.4071 -1.4096 -0.9542
   81SAPS  H14Y 7600   0.820   2.768   9.007 -1.6878 -3.3051  3.9554
   81SAPS  C315 7601   0.680   2.654   8.871 -0.0919 -0.3091 -0.0380
   81SAPS  H15X 7602   0.615   2.621   8.956 -0.0971  2.3434  1.0396
   81SAPS  H15Y 7603   0.700   2.575   8.795  0.0396 -1.0109  0.7190
   81SAPS  C316 7604   0.624   2.772   8.790  0.4320  0.4652 -0.1169
   81SAPS  H16X 7605   0.699   2.811   8.718  1.4441  0.1256  0.7451
   81SAPS  H16Y 7606   0.593   2.856   8.857 -0.5477 -0.1699  0.2416
   81SAPS  C317 7607   0.505   2.728   8.699 -0.3058 -0.5377 -0.3204
   81SAPS  H17X 7608   0.432   2.666   8.756 -0.6014 -0.4206 -0.5701
   81SAPS  H17Y 7609   0.542   2.661   8.619  1.8799  1.2625 -0.8921
   81SAPS  C318 7610   0.454   2.847   8.620  0.2752  0.1606 -0.3346
   81SAPS  H18X 7611   0.536   2.894   8.561  1.7851 -0.0810  1.5358
   81SAPS  H18Y 7612   0.411   2.918   8.694 -1.4075 -0.3411 -0.8016
   81SAPS  H18Z 7613   0.380   2.838   8.537  0.5185 -1.7410 -0.3591
   82SAPS     N 7614   6.734   1.615  11.130  0.2376 -0.1620 -0.3591
   82SAPS   HN1 7615   6.637   1.602  11.094 -1.0074  0.7969  2.5135
   82SAPS   HN2 7616   6.721   1.656  11.225 -1.5722  1.3630 -1.2125
   82SAPS   HN3 7617   6.780   1.689  11.073 -3.0988  2.1608 -0.2325
   82SAPS   C12 7618   6.804   1.494  11.131  0.5986  1.0120 -0.9769
   82SAPS  H12A 7619   6.910   1.507  11.145  0.7451 -0.0039 -1.1238
   82SAPS   C13 7620   6.746   1.374  11.215 -0.2005 -0.1679 -0.0957
   82SAPS  O13A 7621   6.633   1.389  11.270  0.4827 -0.1326  0.2754
   82SAPS  O13B 7622   6.819   1.271  11.238  0.2936  0.6634  0.0927
   82SAPS   C11 7623   6.808   1.449  10.983 -0.0977  0.2255  0.1535
   82SAPS  H11A 7624   6.708   1.410  10.953  1.0503 -3.3530  0.6963
   82SAPS  H11B 7625   6.873   1.358  10.976 -0.7325 -0.2988  1.1138
   82SAPS     P 7626   6.781   1.617  10.786 -0.1736 -0.0233  0.1251
   82SAPS   O13 7627   6.672   1.698  10.844  0.7713 -0.2313 -0.5268
   82SAPS   O14 7628   6.874   1.675  10.686 -0.1937  0.0239  0.1748
   82SAPS   O12 7629   6.863   1.556  10.900 -0.0462  0.7750  0.7304
   82SAPS   O11 7630   6.719   1.490  10.717 -0.0272  0.3132 -0.4396
   82SAPS    C1 7631   6.801   1.384  10.672  0.4795  0.4325  0.2628
   82SAPS    HA 7632   6.892   1.362  10.730  0.7691  2.1350  0.4732
   82SAPS    HB 7633   6.731   1.298  10.673 -0.3189  1.0777  0.5059
   82SAPS    C2 7634   6.843   1.403  10.519  0.2355 -0.7517 -0.2750
   82SAPS    HS 7635   6.917   1.486  10.512  2.5708 -2.5979  1.7951
   82SAPS   O21 7636   6.725   1.427  10.441 -0.2509 -0.0348  0.2118
   82SAPS   C21 7637   6.744   1.510  10.333 -0.0062 -0.5295  0.2811
   82SAPS   O22 7638   6.850   1.563  10.298 -0.4894 -0.0439  0.3338
   82SAPS   C22 7639   6.614   1.522  10.255  0.0921  0.7601  0.0440
   82SAPS   H2R 7640   6.599   1.419  10.215  0.9718  1.5641 -2.4684
   82SAPS   H2S 7641   6.528   1.547  10.322  0.1108 -0.7819  0.6572
   82SAPS    C3 7642   6.916   1.274  10.474  0.6924  0.2780  0.2481
   82SAPS    HX 7643   6.848   1.188  10.487 -0.5025  0.8300 -2.1418
   82SAPS    HY 7644   7.004   1.259  10.540  0.0368  0.9949  1.3044
   82SAPS   O31 7645   6.955   1.277  10.333 -0.3467 -0.4866  0.2699
   82SAPS   C31 7646   7.080   1.315  10.305  0.2033 -0.8525  0.8122
   82SAPS   O32 7647   7.170   1.325  10.385 -0.2311  0.6320 -0.2819
   82SAPS   C32 7648   7.096   1.331  10.154  0.0839 -0.4067  0.0214
   82SAPS   H2X 7649   7.003   1.364  10.104  0.2345 -2.8343 -1.9688
   82SAPS   H2Y 7650   7.117   1.228  10.117 -1.3149 -0.1571 -1.4935
   82SAPS   C23 7651   6.637   1.615  10.139  0.8768 -0.8565  0.1194
   82SAPS   H3R 7652   6.707   1.570  10.066  0.5409  0.6171 -1.1323
   82SAPS   H3S 7653   6.682   1.704  10.189  0.0245  1.0131 -2.3456
   82SAPS   C24 7654   6.509   1.651  10.062  0.2630  0.4350 -0.0690
   82SAPS   H4R 7655   6.457   1.555  10.042  0.9561 -0.1536  0.8936
   82SAPS   H4S 7656   6.538   1.702   9.968  1.4957 -0.7616 -0.3540
   82SAPS   C25 7657   6.422   1.749  10.134  0.3185 -0.0292 -0.1504
   82SAPS   H5R 7658   6.410   1.717  10.239 -0.6521  1.0433  0.0762
   82SAPS   C26 7659   6.365   1.867  10.088  0.0321 -1.0931 -0.6831
   82SAPS   H6R 7660   6.309   1.936  10.152  2.0241 -1.5366  1.6213
   82SAPS   C27 7661   6.389   1.918   9.948 -0.4013 -0.1853  0.6232
   82SAPS   H7R 7662   6.307   1.988   9.922  0.7036  0.9859  0.2311
   82SAPS   H7S 7663   6.367   1.832   9.881 -0.9535  1.0245 -0.7957
   82SAPS   C28 7664   6.527   1.975   9.904  0.2283  0.2778  0.1509
   82SAPS   H8R 7665   6.603   1.960   9.983  0.4168  1.5178  0.2022
   82SAPS   C29 7666   6.559   2.018   9.783 -0.2881 -0.6052 -0.1067
   82SAPS   H9R 7667   6.662   2.056   9.772 -0.7750  0.3290 -1.4903
   82SAPS  C210 7668   6.462   2.030   9.670 -0.5523 -1.3031 -0.0485
   82SAPS  H10R 7669   6.358   2.001   9.699 -1.0316  0.0321 -0.4154
   82SAPS  H10S 7670   6.482   1.954   9.592 -1.9937 -0.6965 -1.0314
   82SAPS  C211 7671   6.452   2.164   9.602  0.0209  0.5012  0.2570
   82SAPS  H11R 7672   6.394   2.236   9.661 -0.4151  2.1765 -2.1123
   82SAPS  C212 7673   6.524   2.219   9.498 -0.0590 -0.6367  0.2019
   82SAPS  H12R 7674   6.504   2.325   9.477 -0.2382  0.0203  3.3992
   82SAPS  C213 7675   6.630   2.147   9.414  0.2519  0.7454  0.1262
   82SAPS  H13R 7676   6.654   2.218   9.332  0.0788  2.4188  1.4994
   82SAPS  H13S 7677   6.571   2.064   9.369 -0.4220  1.2412  0.0842
   82SAPS  C214 7678   6.767   2.102   9.460  0.2775  0.0614  0.0419
   82SAPS  H14R 7679   6.780   2.125   9.567  1.7821 -0.8670  0.0673
   82SAPS  C215 7680   6.865   2.059   9.380 -0.3840 -0.4371 -0.3106
   82SAPS  H15R 7681   6.959   2.021   9.423 -0.5275 -1.4234 -0.8557
   82SAPS  C216 7682   6.861   2.044   9.230 -0.0586  0.7341  0.1110
   82SAPS  H16R 7683   6.964   2.014   9.203  0.6024  0.8398  2.4678
   82SAPS  H16S 7684   6.846   2.140   9.176 -0.5422 -0.4027 -1.8344
   82SAPS  C217 7685   6.766   1.934   9.179  0.6124  0.6901 -0.0948
   82SAPS  H17R 7686   6.682   1.925   9.250  1.4821 -0.1162  0.8472
   82SAPS  H17S 7687   6.826   1.841   9.187 -0.0567  0.2463 -0.2186
   82SAPS  C218 7688   6.716   1.962   9.036  0.3353  0.2231 -0.0382
   82SAPS  H18R 7689   6.807   1.982   8.975  0.3246 -1.5255 -0.6585
   82SAPS  H18S 7690   6.659   2.058   9.037  1.1041  0.7252 -2.2831
   82SAPS  C219 7691   6.635   1.847   8.975 -0.6368  0.5950  0.0498
   82SAPS  H19R 7692   6.561   1.821   9.054  0.2149 -3.3426 -0.3197
   82SAPS  H19S 7693   6.704   1.761   8.961 -1.5975  0.0696 -1.5811
   82SAPS  C220 7694   6.561   1.900   8.855  1.3710  0.3868 -0.2064
   82SAPS  H20R 7695   6.630   1.948   8.782  1.1862  2.2228  0.7921
   82SAPS  H20S 7696   6.490   1.971   8.903 -0.5681 -0.2064 -2.1042
   82SAPS  H20T 7697   6.509   1.819   8.800 -0.2605  1.0520  0.3120
   82SAPS   C33 7698   7.216   1.429  10.130  0.3315  0.8601 -0.5038
   82SAPS   H3X 7699   7.206   1.512  10.204  0.3760 -1.9874  2.8440
   82SAPS   H3Y 7700   7.197   1.470  10.029  0.3165  0.2453 -0.7505
   82SAPS   C34 7701   7.352   1.352  10.139  0.0324 -0.1828  1.1713
   82SAPS   H4X 7702   7.344   1.266  10.208  0.2529  0.6425  2.2350
   82SAPS   H4Y 7703   7.428   1.421  10.182 -1.2401  2.1116 -0.1345
   82SAPS   C35 7704   7.399   1.323   9.996 -0.5572  0.8416  0.3441
   82SAPS   H5X 7705   7.505   1.293  10.009 -1.0461 -0.2043  2.0197
   82SAPS   H5Y 7706   7.414   1.414   9.934 -1.4347  0.2354 -0.7744
   82SAPS   C36 7707   7.342   1.200   9.930  0.4738  0.0852  0.2175
   82SAPS   H6X 7708   7.239   1.179   9.966 -0.2884  2.5158 -0.5178
   82SAPS   H6Y 7709   7.407   1.111   9.946  2.6507  1.3972 -1.0881
   82SAPS   C37 7710   7.319   1.229   9.777  0.4018 -0.2164  0.4109
   82SAPS   H7X 7711   7.299   1.130   9.731  1.9625 -0.9134  1.1837
   82SAPS   H7Y 7712   7.411   1.262   9.724  1.0928 -3.3794 -0.4555
   82SAPS   C38 7713   7.210   1.324   9.735  0.5570 -0.4349 -0.1334
   82SAPS   H8X 7714   7.232   1.425   9.776 -0.7291 -1.2235  2.6267
   82SAPS   H8Y 7715   7.116   1.283   9.778 -0.8460 -0.7406 -3.3253
   82SAPS   C39 7716   7.192   1.341   9.584  0.1033 -0.6909  0.1023
   82SAPS   H9X 7717   7.289   1.365   9.535  1.2581 -1.7341  1.7989
   82SAPS   H9Y 7718   7.114   1.420   9.575 -1.7129 -2.3695  0.7401
   82SAPS  C310 7719   7.137   1.216   9.512 -1.0289  0.2808 -0.0136
   82SAPS  H10X 7720   7.046   1.189   9.569 -0.2462 -4.2681 -0.7586
   82SAPS  H10Y 7721   7.214   1.136   9.515 -0.9470  0.2149 -2.6415
   82SAPS  C311 7722   7.098   1.250   9.370  0.2226 -0.3021  0.0818
   82SAPS  H11X 7723   7.187   1.279   9.309  0.2695  0.0544  0.3203
   82SAPS  H11Y 7724   7.020   1.328   9.363 -0.6880 -1.1783  0.3931
   82SAPS  C312 7725   7.051   1.120   9.302  0.6956  0.1000 -0.2249
   82SAPS  H12X 7726   6.979   1.063   9.364  0.9915 -0.4826 -0.4135
   82SAPS  H12Y 7727   7.140   1.056   9.284  0.8456  0.6719 -1.5745
   82SAPS  C313 7728   6.984   1.145   9.165 -0.1480  0.0267  0.4124
   82SAPS  H13X 7729   7.061   1.200   9.107 -2.6414 -0.0869 -3.1865
   82SAPS  H13Y 7730   6.906   1.223   9.172 -1.0915 -0.8091 -0.6860
   82SAPS  C314 7731   6.945   1.021   9.093 -0.0929 -0.0884  0.7656
   82SAPS  H14X 7732   6.848   0.984   9.132 -2.4376  0.4032 -4.1322
   82SAPS  H14Y 7733   7.023   0.943   9.101 -0.2813 -0.4209 -0.4319
   82SAPS  C315 7734   6.922   1.041   8.940  0.1114  0.1790  0.5347
   82SAPS  H15X 7735   7.017   1.071   8.892 -1.3157  1.2673 -1.6922
   82SAPS  H15Y 7736   6.850   1.126   8.939  1.1892  1.1573  3.0740
   82SAPS  C316 7737   6.876   0.919   8.864  0.3393 -0.1033 -0.4806
   82SAPS  H16X 7738   6.970   0.860   8.854  1.1403  1.5183 -3.1067
   82SAPS  H16Y 7739   6.839   0.938   8.761  0.6589  2.2882 -0.1912
   82SAPS  C317 7740   6.767   0.834   8.937  0.2018 -0.0510 -0.4903
   82SAPS  H17X 7741   6.681   0.903   8.953 -0.2773 -0.6528 -0.4340
   82SAPS  H17Y 7742   6.792   0.789   9.035  0.9881  1.1633 -0.1263
   82SAPS  C318 7743   6.724   0.706   8.855 -0.5361  0.7743 -0.3908
   82SAPS  H18X 7744   6.700   0.621   8.923 -0.2535  0.8719 -0.1718
   82SAPS  H18Y 7745   6.806   0.680   8.785 -0.5214 -0.0330 -0.0791
   82SAPS  H18Z 7746   6.633   0.726   8.794  1.7078 -0.6378 -4.3715
   83SAPS     N 7747   1.475   3.076  11.378 -0.5090 -0.2180  0.3453
   83SAPS   HN1 7748   1.412   3.000  11.346  0.9197 -1.8332  1.2851
   83SAPS   HN2 7749   1.492   3.074  11.481 -1.7140  3.8633  0.7313
   83SAPS   HN3 7750   1.431   3.169  11.362 -0.6862 -0.6005 -1.3780
   83SAPS   C12 7751   1.599   3.066  11.302  0.0202  0.1500  0.2336
   83SAPS  H12A 7752   1.675   3.121  11.355 -0.4335 -0.7157  1.8294
   83SAPS   C13 7753   1.650   2.922  11.286  0.2855 -0.3002 -0.4305
   83SAPS  O13A 7754   1.598   2.827  11.351 -0.2987  0.2452 -0.6218
   83SAPS  O13B 7755   1.745   2.901  11.210 -0.2998  0.7196 -0.1834
   83SAPS   C11 7756   1.571   3.134  11.170  0.0152  0.1955  0.9032
   83SAPS  H11A 7757   1.519   3.065  11.100 -0.8672  0.3260  1.4249
   83SAPS  H11B 7758   1.671   3.159  11.130 -1.1772  0.5473 -2.0442
   83SAPS     P 7759   1.471   3.357  11.066 -0.1042  0.0677  0.1413
   83SAPS   O13 7760   1.324   3.364  11.063 -0.1421 -0.4377 -0.3900
   83SAPS   O14 7761   1.546   3.483  11.077  0.2926  0.4164  0.3760
   83SAPS   O12 7762   1.511   3.266  11.194  0.8391 -0.1530 -0.4978
   83SAPS   O11 7763   1.520   3.267  10.951  0.4264  0.1554  0.2757
   83SAPS    C1 7764   1.629   3.297  10.864  0.1313  1.0185 -0.2739
   83SAPS    HA 7765   1.713   3.337  10.926  0.1950  0.8160 -0.2304
   83SAPS    HB 7766   1.663   3.199  10.824 -0.1118  0.7154  0.2637
   83SAPS    C2 7767   1.594   3.394  10.752  0.6303 -0.8183 -0.0987
   83SAPS    HS 7768   1.542   3.481  10.798 -0.5195 -2.2420  1.3831
   83SAPS   O21 7769   1.503   3.324  10.666  0.1537  0.4988  0.1747
   83SAPS   C21 7770   1.441   3.396  10.576  0.6245  0.0470 -0.6225
   83SAPS   O22 7771   1.437   3.519  10.577 -0.0400  0.1021 -0.0356
   83SAPS   C22 7772   1.372   3.308  10.466  0.0057  0.7643 -0.3565
   83SAPS   H2R 7773   1.419   3.207  10.468 -2.0915 -0.2322 -0.8190
   83SAPS   H2S 7774   1.265   3.303  10.495 -0.2882  0.7819 -1.4157
   83SAPS    C3 7775   1.728   3.434  10.680 -0.4264  0.0295  0.4993
   83SAPS    HX 7776   1.803   3.476  10.750 -1.3008  1.5542  0.5446
   83SAPS    HY 7777   1.703   3.506  10.599 -0.5905  1.3119  1.6758
   83SAPS   O31 7778   1.797   3.325  10.611  0.0431  0.4887  0.0021
   83SAPS   C31 7779   1.763   3.288  10.488  0.9029  0.7223  0.3172
   83SAPS   O32 7780   1.682   3.346  10.416 -0.5724  0.2920  1.0719
   83SAPS   C32 7781   1.835   3.166  10.447  0.0056 -0.2698  0.7620
   83SAPS   H2X 7782   1.800   3.085  10.514  2.7434 -1.3030  1.0301
   83SAPS   H2Y 7783   1.943   3.181  10.468  0.3172 -1.5029  0.1037
   83SAPS   C23 7784   1.380   3.369  10.325  0.3980  0.3217 -0.1406
   83SAPS   H3R 7785   1.477   3.370  10.272  0.9217 -1.8296  0.7239
   83SAPS   H3S 7786   1.359   3.478  10.332  0.0995  0.6297 -4.4441
   83SAPS   C24 7787   1.276   3.296  10.235 -0.2074 -0.5284 -0.4080
   83SAPS   H4R 7788   1.257   3.364  10.149  0.9606 -0.0176 -0.2767
   83SAPS   H4S 7789   1.179   3.286  10.288 -0.6923 -1.5132 -1.4455
   83SAPS   C25 7790   1.337   3.166  10.192  0.5893  0.6151 -0.3831
   83SAPS   H5R 7791   1.329   3.093  10.274  2.0409  1.9666  1.0043
   83SAPS   C26 7792   1.401   3.138  10.076  0.5005  0.3451  0.4218
   83SAPS   H6R 7793   1.456   3.043  10.066  0.4839  0.5384 -1.5329
   83SAPS   C27 7794   1.421   3.234   9.954  0.2357  0.1519 -0.1749
   83SAPS   H7R 7795   1.426   3.338   9.991 -0.5697 -0.7382  2.5370
   83SAPS   H7S 7796   1.330   3.223   9.890  0.0175  0.0865  0.1462
   83SAPS   C28 7797   1.538   3.186   9.871  0.3383 -0.0461  0.2624
   83SAPS   H8R 7798   1.640   3.208   9.905  0.0227  3.0002 -0.6010
   83SAPS   C29 7799   1.523   3.120   9.751 -0.0929  0.0030 -0.3098
   83SAPS   H9R 7800   1.614   3.080   9.705 -0.1613 -0.3414 -0.1514
   83SAPS  C210 7801   1.397   3.074   9.689 -0.8291  0.4834  0.5817
   83SAPS  H10R 7802   1.312   3.138   9.720 -0.4139  1.2911  0.0944
   83SAPS  H10S 7803   1.375   2.981   9.745  3.5910 -1.3310 -0.4302
   83SAPS  C211 7804   1.398   3.061   9.538  0.4661 -0.6776  0.2641
   83SAPS  H11R 7805   1.433   2.959   9.512  3.3119  0.3596 -0.1316
   83SAPS  C212 7806   1.371   3.163   9.446  0.1441  0.1360 -0.3477
   83SAPS  H12R 7807   1.366   3.138   9.339  0.5358 -1.1770 -0.0663
   83SAPS  C213 7808   1.341   3.307   9.475 -0.0817  0.1401 -0.2427
   83SAPS  H13R 7809   1.304   3.314   9.580  1.3414  0.1030  0.2689
   83SAPS  H13S 7810   1.257   3.344   9.412 -1.3962 -0.3421  1.2160
   83SAPS  C214 7811   1.472   3.389   9.463 -0.2347 -0.0764 -0.2900
   83SAPS  H14R 7812   1.530   3.381   9.556 -1.8932 -2.9399  0.5540
   83SAPS  C215 7813   1.504   3.474   9.366 -1.3570  0.2658 -0.5848
   83SAPS  H15R 7814   1.599   3.530   9.362 -1.1303 -0.1401 -0.9047
   83SAPS  C216 7815   1.418   3.502   9.244 -0.1942  0.7422  0.1391
   83SAPS  H16R 7816   1.410   3.612   9.229  1.3534  1.0650  1.5335
   83SAPS  H16S 7817   1.312   3.471   9.255 -0.2573  1.5341  1.9742
   83SAPS  C217 7818   1.485   3.435   9.123 -0.0842  0.1037  0.7808
   83SAPS  H17R 7819   1.509   3.329   9.146 -0.9872 -0.2756  0.0050
   83SAPS  H17S 7820   1.579   3.491   9.109 -0.8990  0.9579 -1.6239
   83SAPS  C218 7821   1.405   3.459   8.994  0.4547  0.4771  0.0684
   83SAPS  H18R 7822   1.358   3.560   8.993 -0.0877  0.2151 -1.5242
   83SAPS  H18S 7823   1.317   3.391   8.990  1.1763 -0.4230 -0.8765
   83SAPS  C219 7824   1.497   3.447   8.868  0.0614 -0.2254  0.0875
   83SAPS  H19R 7825   1.543   3.347   8.853 -0.3685 -0.1578 -1.7737
   83SAPS  H19S 7826   1.575   3.523   8.890 -0.7690  0.2450  1.5041
   83SAPS  C220 7827   1.435   3.485   8.734 -0.1079 -0.8487  0.8362
   83SAPS  H20R 7828   1.394   3.587   8.754  0.2843 -0.4405 -0.3985
   83SAPS  H20S 7829   1.361   3.411   8.697  1.4544 -1.3867 -1.3530
   83SAPS  H20T 7830   1.508   3.495   8.651  0.4114 -0.7103  1.3106
   83SAPS   C33 7831   1.802   3.124  10.302  0.2278 -0.4799 -0.3190
   83SAPS   H3X 7832   1.697   3.136  10.269  0.4090  0.8449 -0.4583
   83SAPS   H3Y 7833   1.814   3.014  10.301 -0.3438 -0.5453 -0.1140
   83SAPS   C34 7834   1.896   3.199  10.207  0.2803 -0.5303  0.8479
   83SAPS   H4X 7835   1.995   3.205  10.256  1.3071 -1.2359 -1.1194
   83SAPS   H4Y 7836   1.860   3.304  10.194  2.5211  0.1190 -0.2266
   83SAPS   C35 7837   1.899   3.144  10.059 -0.7060 -0.2324 -0.1797
   83SAPS   H5X 7838   1.978   3.205  10.010 -1.1504  0.2173 -0.3388
   83SAPS   H5Y 7839   1.808   3.175  10.004  0.8329  0.5890 -2.3693
   83SAPS   C36 7840   1.932   2.991  10.046  0.8753 -0.0963 -0.2237
   83SAPS   H6X 7841   1.838   2.934  10.060  2.1450 -2.4130 -0.8866
   83SAPS   H6Y 7842   2.003   2.956  10.124  1.5892 -1.1107 -1.3046
   83SAPS   C37 7843   1.999   2.962   9.916  0.0975 -0.2576  0.8176
   83SAPS   H7X 7844   1.998   2.851   9.914  1.4131 -0.2743 -0.9702
   83SAPS   H7Y 7845   2.104   2.998   9.917 -0.2105  0.6513  0.5598
   83SAPS   C38 7846   1.934   3.008   9.786 -0.7139 -0.5345  0.0895
   83SAPS   H8X 7847   1.910   3.116   9.790 -0.9784 -0.6061  0.5710
   83SAPS   H8Y 7848   1.846   2.946   9.756  0.8259 -2.5087 -0.4851
   83SAPS   C39 7849   2.027   2.994   9.663 -0.1790  0.5319 -0.0737
   83SAPS   H9X 7850   2.134   3.025   9.667  0.3894 -1.2826 -0.3842
   83SAPS   H9Y 7851   1.975   3.048   9.581 -1.4086 -1.7656 -0.8641
   83SAPS  C310 7852   2.032   2.850   9.598 -0.2387  0.0099 -0.4524
   83SAPS  H10X 7853   1.937   2.818   9.550 -0.5979  0.5014 -0.0724
   83SAPS  H10Y 7854   2.040   2.773   9.678 -2.6410  0.7494  0.5635
   83SAPS  C311 7855   2.142   2.838   9.484  0.2202 -0.0772  0.2754
   83SAPS  H11X 7856   2.238   2.842   9.539 -0.5770  0.8175  1.6376
   83SAPS  H11Y 7857   2.127   2.926   9.418 -1.0953  0.2437  0.9839
   83SAPS  C312 7858   2.102   2.713   9.394 -0.5085 -0.5383 -0.0058
   83SAPS  H12X 7859   1.993   2.708   9.370 -0.2072 -0.0612 -1.5013
   83SAPS  H12Y 7860   2.118   2.627   9.462 -1.5056  1.2437  2.5599
   83SAPS  C313 7861   2.177   2.703   9.257  0.6823 -0.5452  0.3260
   83SAPS  H13X 7862   2.136   2.607   9.220 -0.3669 -0.2603  0.7192
   83SAPS  H13Y 7863   2.288   2.693   9.262  0.6598  0.0937  2.8071
   83SAPS  C314 7864   2.150   2.812   9.150 -0.0987  0.0455  0.1772
   83SAPS  H14X 7865   2.193   2.911   9.172  0.9084 -0.6672  1.5085
   83SAPS  H14Y 7866   2.041   2.822   9.126 -0.1046 -1.1331 -0.3404
   83SAPS  C315 7867   2.198   2.766   9.017 -0.0852  0.2990  0.4845
   83SAPS  H15X 7868   2.134   2.681   8.984 -2.4978  0.9497  3.3621
   83SAPS  H15Y 7869   2.306   2.739   9.012  0.2965  2.0088 -0.9615
   83SAPS  C316 7870   2.187   2.878   8.910 -0.2445 -0.0438 -0.3507
   83SAPS  H16X 7871   2.254   2.960   8.944  0.4039 -1.0698  0.8995
   83SAPS  H16Y 7872   2.085   2.923   8.913 -0.1331  0.1938 -0.0923
   83SAPS  C317 7873   2.229   2.835   8.765  0.7024  0.6585  1.1691
   83SAPS  H17X 7874   2.167   2.749   8.731 -1.2331  3.5434 -3.1568
   83SAPS  H17Y 7875   2.335   2.807   8.783  0.3610 -1.6981 -0.2223
   83SAPS  C318 7876   2.224   2.936   8.654 -0.1267 -0.6657 -0.0578
   83SAPS  H18X 7877   2.120   2.975   8.645  0.1664  0.3534  0.8167
   83SAPS  H18Y 7878   2.236   2.883   8.557 -2.0986 -1.8595  0.3092
   83SAPS  H18Z 7879   2.298   3.013   8.684 -2.1387  1.9945 -1.6217
   84SAPS     N 7880   3.994   2.589  11.125 -0.2183  0.3315  0.9193
   84SAPS   HN1 7881   3.958   2.528  11.049  3.5400 -0.0903 -0.5849
   84SAPS   HN2 7882   4.051   2.664  11.081  3.0479 -3.5406 -1.7745
   84SAPS   HN3 7883   4.043   2.527  11.192  0.7015 -1.9084 -1.7357
   84SAPS   C12 7884   3.888   2.647  11.220 -0.2525 -0.6950  0.0844
   84SAPS  H12A 7885   3.791   2.620  11.181  1.1405 -2.3263 -2.3581
   84SAPS   C13 7886   3.919   2.580  11.368  0.2898 -0.0652  0.2724
   84SAPS  O13A 7887   3.994   2.477  11.371  0.1225  0.2962 -0.1268
   84SAPS  O13B 7888   3.874   2.629  11.471 -0.0122  0.4824  0.4183
   84SAPS   C11 7889   3.912   2.798  11.232  0.3879 -0.3435 -0.3058
   84SAPS  H11A 7890   4.018   2.815  11.262 -0.1263  0.9816  0.8046
   84SAPS  H11B 7891   3.843   2.840  11.308 -1.9737 -2.3598 -1.2584
   84SAPS     P 7892   3.749   2.935  11.072  0.4761  0.3899  0.3562
   84SAPS   O13 7893   3.636   2.839  11.091  0.3693 -0.1778  0.0962
   84SAPS   O14 7894   3.736   3.055  11.154  0.2239  0.0846 -0.7128
   84SAPS   O12 7895   3.885   2.865  11.106 -0.1025  0.2555  0.7619
   84SAPS   O11 7896   3.754   2.974  10.916  0.4720 -0.5728  0.1460
   84SAPS    C1 7897   3.760   2.858  10.829  0.0608  0.0460  1.2873
   84SAPS    HA 7898   3.732   2.762  10.875 -0.4055 -1.0763 -1.2243
   84SAPS    HB 7899   3.692   2.872  10.742  0.3342  1.4480  1.2752
   84SAPS    C2 7900   3.904   2.839  10.770 -0.1486 -0.3371  0.0151
   84SAPS    HS 7901   3.977   2.848  10.853  0.0127 -1.1584 -0.0336
   84SAPS   O21 7902   3.907   2.941  10.666 -0.1591  0.2152 -0.1040
   84SAPS   C21 7903   4.030   2.969  10.619 -0.2506  0.1422  0.1015
   84SAPS   O22 7904   4.137   2.914  10.649 -1.0024  0.1127  0.3482
   84SAPS   C22 7905   4.014   3.074  10.505 -0.2006  0.3081 -0.4977
   84SAPS   H2R 7906   4.056   3.171  10.539 -0.0100  0.7917 -2.0508
   84SAPS   H2S 7907   4.072   3.041  10.416 -1.9713 -0.3889 -1.4002
   84SAPS    C3 7908   3.929   2.699  10.705 -0.3485 -0.3164  0.3431
   84SAPS    HX 7909   3.938   2.619  10.782  1.4207  0.4222  0.9542
   84SAPS    HY 7910   4.032   2.687  10.664  0.3025 -1.5275  2.2331
   84SAPS   O31 7911   3.827   2.650  10.618  0.1463 -0.5986  0.0618
   84SAPS   C31 7912   3.843   2.681  10.484 -0.8815 -0.1138 -0.3888
   84SAPS   O32 7913   3.943   2.728  10.437 -0.0150  0.1205 -0.2480
   84SAPS   C32 7914   3.711   2.655  10.410 -0.2661 -0.4126 -0.0551
   84SAPS   H2X 7915   3.632   2.719  10.456  0.0444 -0.8190  1.0586
   84SAPS   H2Y 7916   3.685   2.550  10.434  1.0849 -0.3779  1.6275
   84SAPS   C23 7917   3.873   3.103  10.471 -0.0508 -0.2412 -0.6225
   84SAPS   H3R 7918   3.821   3.168  10.545  1.2664  2.1774 -1.7477
   84SAPS   H3S 7919   3.818   3.007  10.479  0.6806 -0.5837  0.5269
   84SAPS   C24 7920   3.863   3.154  10.326  0.5772 -0.2863  0.0337
   84SAPS   H4R 7921   3.936   3.238  10.332 -0.2438  0.5990 -1.8364
   84SAPS   H4S 7922   3.757   3.187  10.325 -0.1875 -2.6068  1.0064
   84SAPS   C25 7923   3.878   3.073  10.197  0.5160 -0.0378  0.0735
   84SAPS   H5R 7924   3.919   2.974  10.223  0.8870  0.1925  0.3812
   84SAPS   C26 7925   3.830   3.116  10.081 -0.5350 -0.7251 -0.2355
   84SAPS   H6R 7926   3.857   3.061   9.990  0.1142 -1.1777  0.2198
   84SAPS   C27 7927   3.764   3.238  10.040 -0.2997 -0.6141 -0.1945
   84SAPS   H7R 7928   3.743   3.296  10.133 -0.6696 -1.0368 -0.0119
   84SAPS   H7S 7929   3.668   3.222   9.986 -0.9427  0.0111  0.7338
   84SAPS   C28 7930   3.860   3.315   9.958  0.9961  0.1859  0.5186
   84SAPS   H8R 7931   3.918   3.388  10.017  0.9652  1.8236 -1.4073
   84SAPS   C29 7932   3.859   3.321   9.821 -0.7584  0.9796  0.2253
   84SAPS   H9R 7933   3.949   3.360   9.772 -2.5073  1.3661 -2.7775
   84SAPS  C210 7934   3.772   3.242   9.724  0.3653  0.3531 -0.2094
   84SAPS  H10R 7935   3.731   3.313   9.649 -0.0893  0.0607 -0.2421
   84SAPS  H10S 7936   3.680   3.209   9.777  2.2394 -0.6377  2.5386
   84SAPS  C211 7937   3.839   3.130   9.654 -0.7232  0.2546  0.1032
   84SAPS  H11R 7938   3.931   3.098   9.705 -0.3275 -0.6814 -1.1646
   84SAPS  C212 7939   3.815   3.084   9.530 -0.3691 -0.3663 -0.6112
   84SAPS  H12R 7940   3.881   3.008   9.487  1.8228  0.9443  0.3470
   84SAPS  C213 7941   3.698   3.128   9.444  1.0034  0.2854  0.2188
   84SAPS  H13R 7942   3.729   3.157   9.341  1.3562  2.5440  0.9307
   84SAPS  H13S 7943   3.641   3.206   9.499  2.3323  2.2401 -1.1097
   84SAPS  C214 7944   3.601   3.009   9.436 -0.7353 -0.3649 -0.4996
   84SAPS  H14R 7945   3.548   2.983   9.528 -0.3143 -2.1094 -0.7261
   84SAPS  C215 7946   3.588   2.925   9.332 -0.7825 -0.3675 -0.7308
   84SAPS  H15R 7947   3.519   2.840   9.342 -0.8118 -0.1088  1.6711
   84SAPS  C216 7948   3.674   2.923   9.210  0.5700 -0.4859  0.4978
   84SAPS  H16R 7949   3.720   2.823   9.196 -0.5496 -1.2124  1.8818
   84SAPS  H16S 7950   3.767   2.979   9.231 -0.5391  1.2476  0.9478
   84SAPS  C217 7951   3.611   2.970   9.077 -0.0765 -0.1354 -0.1214
   84SAPS  H17R 7952   3.582   3.077   9.079  0.3473  0.0313 -1.6983
   84SAPS  H17S 7953   3.511   2.923   9.064 -0.1740  0.2151 -0.6589
   84SAPS  C218 7954   3.707   2.931   8.967 -0.0336  0.0014  0.1490
   84SAPS  H18R 7955   3.720   2.821   8.978 -1.8375 -0.3180 -0.6818
   84SAPS  H18S 7956   3.804   2.985   8.975 -0.6230  0.7302  3.0507
   84SAPS  C219 7957   3.646   2.951   8.826  0.5380 -0.0742  0.0680
   84SAPS  H19R 7958   3.612   3.056   8.811  0.4645  0.0953  1.3849
   84SAPS  H19S 7959   3.553   2.892   8.812  0.5619 -0.2631  0.7072
   84SAPS  C220 7960   3.740   2.898   8.715 -1.0122 -0.2915 -0.0688
   84SAPS  H20R 7961   3.696   2.905   8.613  1.6067 -1.8767 -1.3507
   84SAPS  H20S 7962   3.771   2.792   8.731  2.6486  0.9694  1.6748
   84SAPS  H20T 7963   3.839   2.949   8.717 -0.3291 -1.6056  0.4953
   84SAPS   C33 7964   3.717   2.690  10.259  0.3494  0.0385 -0.0194
   84SAPS   H3X 7965   3.777   2.603  10.225 -0.3437 -0.3794 -0.1771
   84SAPS   H3Y 7966   3.768   2.788  10.243  0.3689 -0.4147 -3.1163
   84SAPS   C34 7967   3.580   2.669  10.191 -0.1476  0.7462  0.2207
   84SAPS   H4X 7968   3.525   2.764  10.205 -1.1889 -0.1202  2.3237
   84SAPS   H4Y 7969   3.529   2.584  10.241 -0.5855  1.6983  1.4202
   84SAPS   C35 7970   3.593   2.645  10.037  0.0651 -0.4222 -0.4785
   84SAPS   H5X 7971   3.500   2.595  10.004 -1.9652  2.3668  0.7642
   84SAPS   H5Y 7972   3.682   2.581  10.023  1.3596  1.5351 -1.4776
   84SAPS   C36 7973   3.597   2.763   9.940  0.5972  0.3807 -0.5606
   84SAPS   H6X 7974   3.676   2.839   9.959 -1.2155  2.3369 -0.6187
   84SAPS   H6Y 7975   3.505   2.824   9.954  1.6852  1.8184  0.4818
   84SAPS   C37 7976   3.604   2.725   9.791 -0.1249  0.0394 -0.0636
   84SAPS   H7X 7977   3.705   2.687   9.762  0.0039 -0.7789  1.4017
   84SAPS   H7Y 7978   3.582   2.818   9.735  0.5702  0.8365  0.9620
   84SAPS   C38 7979   3.497   2.631   9.743  0.0752  0.5731  0.0207
   84SAPS   H8X 7980   3.398   2.668   9.779  0.2987  2.1102 -0.8776
   84SAPS   H8Y 7981   3.503   2.534   9.796  2.7073 -0.3680 -1.8954
   84SAPS   C39 7982   3.487   2.612   9.586  0.2479  0.1300 -0.5818
   84SAPS   H9X 7983   3.579   2.564   9.545  2.5946  2.6674  1.5081
   84SAPS   H9Y 7984   3.482   2.714   9.544  0.0265 -0.0510 -1.0014
   84SAPS  C310 7985   3.367   2.532   9.539 -0.5565  0.4701 -0.3782
   84SAPS  H10X 7986   3.276   2.541   9.601  0.5345  1.4563  1.1055
   84SAPS  H10Y 7987   3.389   2.423   9.535 -0.0940  0.5447  0.1266
   84SAPS  C311 7988   3.341   2.569   9.389 -0.6684 -0.2100 -0.2732
   84SAPS  H11X 7989   3.338   2.680   9.390 -0.6403 -0.1881 -1.7794
   84SAPS  H11Y 7990   3.239   2.533   9.361 -0.0713 -0.3154 -2.3692
   84SAPS  C312 7991   3.441   2.524   9.289  0.0182 -0.0631 -0.0612
   84SAPS  H12X 7992   3.449   2.414   9.298 -0.9038 -0.0347  1.3482
   84SAPS  H12Y 7993   3.537   2.573   9.318  0.3904 -0.7397 -0.1467
   84SAPS  C313 7994   3.391   2.563   9.148 -0.9788  0.5092  0.0857
   84SAPS  H13X 7995   3.360   2.670   9.151 -3.6475 -0.1837 -1.1318
   84SAPS  H13Y 7996   3.307   2.496   9.117  0.1965 -0.3892 -1.1891
   84SAPS  C314 7997   3.507   2.547   9.046  0.1236 -0.2259  0.8469
   84SAPS  H14X 7998   3.537   2.441   9.050 -2.3790 -1.0827 -1.3998
   84SAPS  H14Y 7999   3.597   2.601   9.084  0.0215 -0.8781  2.0078
   84SAPS  C315 8000   3.486   2.576   8.907  0.0048  0.7053  0.3821
   84SAPS  H15X 8001   3.583   2.574   8.854  0.3500 -0.5907  1.0590
   84SAPS  H15Y 8002   3.458   2.683   8.897  0.1014  0.7183  0.2492
   84SAPS  C316 8003   3.380   2.487   8.842  0.6779 -0.1159  0.4149
   84SAPS  H16X 8004   3.279   2.513   8.883  0.1743 -2.7442  0.9464
   84SAPS  H16Y 8005   3.409   2.381   8.860 -1.8226 -0.6998  1.2846
   84SAPS  C317 8006   3.374   2.517   8.692  0.3636 -0.0893  0.1366
   84SAPS  H17X 8007   3.315   2.442   8.635 -0.1535 -1.0962  1.9566
   84SAPS  H17Y 8008   3.473   2.515   8.642 -0.0539  0.7590 -0.7604
   84SAPS  C318 8009   3.290   2.638   8.665 -0.6723  0.5304  0.0381
   84SAPS  H18X 8010   3.189   2.613   8.702  1.6393 -0.8627  6.1149
   84SAPS  H18Y 8011   3.304   2.667   8.559 -1.1928 -1.9848 -0.7402
   84SAPS  H18Z 8012   3.330   2.722   8.726 -3.2258  1.2992  0.6990
   85SAPS     N 8013   0.225   5.254  10.796 -0.1039  0.0709 -0.7295
   85SAPS   HN1 8014   0.308   5.229  10.739  1.5048  1.0197  1.1531
   85SAPS   HN2 8015   0.139   5.212  10.753 -0.0541 -1.3903  0.5341
   85SAPS   HN3 8016   0.229   5.358  10.794  0.4801  0.0649 -0.1284
   85SAPS   C12 8017   0.249   5.209  10.941  0.8591  0.3648 -0.7569
   85SAPS  H12A 8018   0.353   5.205  10.969 -0.0809  0.0251  2.9435
   85SAPS   C13 8019   0.195   5.301  11.057 -0.2911 -1.3110  0.2619
   85SAPS  O13A 8020   0.120   5.401  11.024  0.3658  0.2736 -0.0738
   85SAPS  O13B 8021   0.240   5.280  11.171  0.5519  0.0751  0.3392
   85SAPS   C11 8022   0.180   5.068  10.959  0.2930  0.6757 -1.1508
   85SAPS  H11A 8023   0.070   5.082  10.956  0.2304 -0.2244 -3.8160
   85SAPS  H11B 8024   0.202   5.041  11.065 -0.6128 -1.8780 -1.5865
   85SAPS     P 8025   0.198   4.818  10.919  0.4711 -0.0301 -0.0016
   85SAPS   O13 8026   0.294   4.777  11.024 -0.0796 -0.3403 -0.1175
   85SAPS   O14 8027   0.056   4.803  10.953  0.5867  0.1494  0.4173
   85SAPS   O12 8028   0.236   4.970  10.868 -0.2633  0.0280 -0.1679
   85SAPS   O11 8029   0.224   4.737  10.783 -0.0996  0.4479  0.0428
   85SAPS    C1 8030   0.174   4.788  10.657 -0.9127  0.0896  0.5523
   85SAPS    HA 8031   0.080   4.736  10.629  1.0686 -2.2023 -2.1496
   85SAPS    HB 8032   0.156   4.897  10.653 -2.2354 -0.1672 -1.8955
   85SAPS    C2 8033   0.269   4.766  10.532 -0.9067  0.3754 -0.3700
   85SAPS    HS 8034   0.235   4.831  10.449 -0.3321 -1.5266 -2.1533
   85SAPS   O21 8035   0.260   4.624  10.500 -0.0386  0.1220 -0.2123
   85SAPS   C21 8036   0.156   4.590  10.426 -0.2070  0.2735  1.0715
   85SAPS   O22 8037   0.076   4.667  10.373  0.0155 -0.0140 -0.2555
   85SAPS   C22 8038   0.144   4.433  10.415 -0.6396 -0.4140  0.0910
   85SAPS   H2R 8039   0.242   4.384  10.428 -0.4168 -1.0164 -3.3852
   85SAPS   H2S 8040   0.080   4.408  10.503 -0.4597 -0.3201  0.2477
   85SAPS    C3 8041   0.415   4.788  10.578  0.4007 -0.3538  0.9596
   85SAPS    HX 8042   0.444   4.713  10.655 -0.7882 -0.2753  1.4945
   85SAPS    HY 8043   0.423   4.886  10.628  1.7266 -0.5228  1.0809
   85SAPS   O31 8044   0.496   4.796  10.459  0.4194 -0.3279 -0.8160
   85SAPS   C31 8045   0.577   4.700  10.442  0.1359  0.9767  0.3910
   85SAPS   O32 8046   0.578   4.599  10.505  0.7960  0.2560 -0.1102
   85SAPS   C32 8047   0.678   4.741  10.339  0.2170 -0.3523  0.0894
   85SAPS   H2X 8048   0.757   4.799  10.392  1.0265 -0.2030 -1.2600
   85SAPS   H2Y 8049   0.638   4.814  10.266 -0.2728  0.3090  1.0098
   85SAPS   C23 8050   0.080   4.391  10.280 -0.2304 -0.7264  0.2381
   85SAPS   H3R 8051  -0.023   4.430  10.268  0.1368  0.4795  0.9371
   85SAPS   H3S 8052   0.064   4.282  10.296 -3.5609 -0.1029  1.5376
   85SAPS   C24 8053   0.167   4.418  10.152 -0.5742 -0.1435 -0.1810
   85SAPS   H4R 8054   0.261   4.364  10.179 -0.9577 -2.0685 -2.4410
   85SAPS   H4S 8055   0.198   4.524  10.143  0.9465 -0.5236  0.4020
   85SAPS   C25 8056   0.104   4.353  10.031  0.6876 -0.0971  0.3662
   85SAPS   H5R 8057   0.006   4.304  10.046  0.6225 -0.1244 -0.1485
   85SAPS   C26 8058   0.164   4.331   9.909 -0.0922  0.4072  0.2490
   85SAPS   H6R 8059   0.100   4.293   9.828 -0.4180 -0.8017  1.0555
   85SAPS   C27 8060   0.298   4.373   9.852 -0.0451  0.1653  0.3036
   85SAPS   H7R 8061   0.357   4.423   9.932 -0.9263 -0.0251  1.0855
   85SAPS   H7S 8062   0.281   4.442   9.768  0.8907 -1.2849 -1.1158
   85SAPS   C28 8063   0.373   4.254   9.798  0.6639 -0.7143  0.1251
   85SAPS   H8R 8064   0.383   4.178   9.877 -0.3746 -1.4375 -0.4270
   85SAPS   C29 8065   0.423   4.241   9.674 -0.5365 -0.4256  0.6850
   85SAPS   H9R 8066   0.475   4.151   9.638  1.3631  0.9376 -0.0052
   85SAPS  C210 8067   0.394   4.330   9.557  0.5590  0.3042 -0.0287
   85SAPS  H10R 8068   0.492   4.367   9.520  0.1020  2.6164  0.9774
   85SAPS  H10S 8069   0.337   4.421   9.587 -1.3929 -0.9046 -0.0059
   85SAPS  C211 8070   0.323   4.256   9.448  0.4500  0.3593  0.1632
   85SAPS  H11R 8071   0.214   4.242   9.460  0.5441 -0.2329  0.3864
   85SAPS  C212 8072   0.375   4.206   9.332 -0.9149 -0.0278  0.5314
   85SAPS  H12R 8073   0.308   4.147   9.269  1.0762 -0.9214 -0.7999
   85SAPS  C213 8074   0.515   4.210   9.271 -0.0317 -0.4531 -0.2002
   85SAPS  H13R 8075   0.562   4.292   9.329 -1.4954  0.0836  0.2590
   85SAPS  H13S 8076   0.502   4.238   9.165  0.2045 -2.7186 -0.8476
   85SAPS  C214 8077   0.603   4.083   9.302  0.0160  0.4173  0.2737
   85SAPS  H14R 8078   0.565   4.021   9.385 -0.4339 -2.1944 -1.7821
   85SAPS  C215 8079   0.716   4.041   9.233 -0.0782 -0.8540  0.4709
   85SAPS  H15R 8080   0.776   3.956   9.265  1.7239  1.0467  2.2681
   85SAPS  C216 8081   0.770   4.110   9.113  0.1533  0.2492  0.0713
   85SAPS  H16R 8082   0.849   4.181   9.144  0.5535  0.0619 -0.5182
   85SAPS  H16S 8083   0.696   4.180   9.068  0.0056  0.1053  0.0898
   85SAPS  C217 8084   0.821   4.013   8.996  0.2498  0.0989 -0.4310
   85SAPS  H17R 8085   0.735   3.948   8.969  1.5512 -1.8360  0.0025
   85SAPS  H17S 8086   0.903   3.945   9.027 -0.2194 -0.7216 -0.9619
   85SAPS  C218 8087   0.852   4.086   8.864 -0.6999  0.2365 -0.7217
   85SAPS  H18R 8088   0.950   4.134   8.882 -0.8566 -0.8410  3.4113
   85SAPS  H18S 8089   0.770   4.160   8.863 -1.8140 -0.9766 -0.3911
   85SAPS  C219 8090   0.859   3.987   8.741 -0.1803  0.2568  0.1228
   85SAPS  H19R 8091   0.888   4.043   8.650  0.1484 -0.5734 -0.2963
   85SAPS  H19S 8092   0.760   3.935   8.743  0.5341 -1.1450 -0.0442
   85SAPS  C220 8093   0.970   3.883   8.755  0.8441 -0.9626 -0.0836
   85SAPS  H20R 8094   0.938   3.805   8.683 -0.9027 -0.2889 -0.0896
   85SAPS  H20S 8095   0.949   3.845   8.858  0.5965  0.5974  0.4612
   85SAPS  H20T 8096   1.069   3.928   8.737  0.1200  1.8899  2.5035
   85SAPS   C33 8097   0.739   4.620  10.270  0.4548 -0.8091 -0.4105
   85SAPS   H3X 8098   0.660   4.547  10.242  0.1256 -0.8045  0.4658
   85SAPS   H3Y 8099   0.810   4.572  10.341  0.3480 -2.0675 -1.1351
   85SAPS   C34 8100   0.808   4.669  10.145  0.5193  0.4813 -0.1515
   85SAPS   H4X 8101   0.884   4.744  10.177 -0.5341  1.0052  1.1567
   85SAPS   H4Y 8102   0.730   4.722  10.087  0.1959 -1.8036 -1.8907
   85SAPS   C35 8103   0.878   4.550  10.072 -0.6558  0.1698  0.5809
   85SAPS   H5X 8104   0.799   4.475  10.049 -0.2349 -0.1712  0.2618
   85SAPS   H5Y 8105   0.951   4.500  10.138  0.8263  0.3796 -0.8855
   85SAPS   C36 8106   0.948   4.599   9.947 -0.3066 -1.0988 -0.0954
   85SAPS   H6X 8107   1.002   4.511   9.907 -0.0387  0.4759 -3.3201
   85SAPS   H6Y 8108   1.035   4.656   9.984 -1.4710 -0.0470  1.0972
   85SAPS   C37 8109   0.867   4.669   9.837 -0.3965 -0.6027  0.6865
   85SAPS   H7X 8110   0.823   4.764   9.874 -1.5937  0.1186 -2.4221
   85SAPS   H7Y 8111   0.781   4.601   9.818  1.3049 -2.8581  0.8298
   85SAPS   C38 8112   0.946   4.693   9.706  0.2085  0.6409  0.4395
   85SAPS   H8X 8113   1.044   4.741   9.722  0.3883  1.6955 -3.5188
   85SAPS   H8Y 8114   0.892   4.759   9.634 -1.1337  0.5539  1.3332
   85SAPS   C39 8115   0.968   4.554   9.633  0.5086  0.6753  0.1177
   85SAPS   H9X 8116   0.892   4.484   9.675  1.5862  0.1617  1.2437
   85SAPS   H9Y 8117   1.071   4.521   9.658  0.0014 -1.4585 -0.5674
   85SAPS  C310 8118   0.960   4.555   9.485 -0.0059  0.6367 -0.2109
   85SAPS  H10X 8119   0.874   4.610   9.440  0.4403  0.6181 -1.0951
   85SAPS  H10Y 8120   0.966   4.449   9.452  0.4435  0.5929  0.0197
   85SAPS  C311 8121   1.088   4.615   9.418 -0.5093 -0.3271  0.0330
   85SAPS  H11X 8122   1.152   4.531   9.384 -1.9865 -0.6111 -2.1793
   85SAPS  H11Y 8123   1.143   4.675   9.494 -1.3231  2.7161 -1.7289
   85SAPS  C312 8124   1.062   4.696   9.292  0.4773  0.8173  0.1647
   85SAPS  H12X 8125   1.155   4.754   9.277  1.6393 -2.0031 -4.6338
   85SAPS  H12Y 8126   0.989   4.778   9.307  0.1173  0.1790  2.0854
   85SAPS  C313 8127   1.034   4.623   9.162 -0.4710  0.2100 -0.0344
   85SAPS  H13X 8128   1.117   4.550   9.150  0.3992  1.3651 -1.1421
   85SAPS  H13Y 8129   1.038   4.704   9.087  0.9839  1.0504  0.9306
   85SAPS  C314 8130   0.888   4.555   9.147 -0.0358 -0.1333  0.5430
   85SAPS  H14X 8131   0.816   4.639   9.154 -2.3458 -1.8555 -1.9572
   85SAPS  H14Y 8132   0.876   4.491   9.237 -1.6716 -0.3591  0.1751
   85SAPS  C315 8133   0.857   4.475   9.020  0.3910 -0.1946 -0.4906
   85SAPS  H15X 8134   0.785   4.391   9.029  0.1548  0.1240  0.6967
   85SAPS  H15Y 8135   0.952   4.419   9.007  0.8566 -0.0375  2.0767
   85SAPS  C316 8136   0.812   4.565   8.898  0.1845 -0.1991 -0.0932
   85SAPS  H16X 8137   0.886   4.644   8.873  1.1337 -1.2571 -0.6904
   85SAPS  H16Y 8138   0.711   4.602   8.925  0.6689  0.6646  0.5860
   85SAPS  C317 8139   0.783   4.498   8.762 -0.6336 -0.2232 -0.0989
   85SAPS  H17X 8140   0.719   4.409   8.778 -1.1595  0.3802  1.2653
   85SAPS  H17Y 8141   0.881   4.462   8.723 -1.0100 -0.9666 -0.3680
   85SAPS  C318 8142   0.711   4.586   8.658 -0.2906  0.6046 -0.4809
   85SAPS  H18X 8143   0.699   4.527   8.564 -0.7271 -0.1296  0.0337
   85SAPS  H18Y 8144   0.781   4.667   8.629  1.0510 -0.3873 -0.1159
   85SAPS  H18Z 8145   0.612   4.618   8.697 -0.2244  0.5869 -0.3006
   86SAPS     N 8146   3.038   4.207  11.152  0.2238  0.1188 -0.1163
   86SAPS   HN1 8147   3.084   4.297  11.126  0.2036  0.0545 -0.3727
   86SAPS   HN2 8148   3.071   4.208  11.251  0.2551  2.0556 -0.1361
   86SAPS   HN3 8149   3.068   4.120  11.104 -3.6597 -0.3746 -1.8263
   86SAPS   C12 8150   2.891   4.221  11.146  0.7221 -0.3213  0.0134
   86SAPS  H12A 8151   2.852   4.122  11.130  0.3140  0.1120 -1.7091
   86SAPS   C13 8152   2.822   4.282  11.275 -0.3156 -0.7064 -0.1852
   86SAPS  O13A 8153   2.891   4.316  11.372  0.0351 -0.8781  0.4880
   86SAPS  O13B 8154   2.696   4.266  11.280  0.1739  0.0512  0.2296
   86SAPS   C11 8155   2.852   4.306  11.017 -0.3373  0.0112 -0.6085
   86SAPS  H11A 8156   2.741   4.309  11.009 -0.3160  1.5537 -0.4167
   86SAPS  H11B 8157   2.885   4.269  10.918 -2.2653 -1.5930 -0.6761
   86SAPS     P 8158   3.032   4.499  10.990 -0.1403  0.5260  0.0891
   86SAPS   O13 8159   3.033   4.646  11.024 -0.0446 -0.4420 -0.3685
   86SAPS   O14 8160   3.144   4.422  11.052 -0.6444  0.0283 -0.0857
   86SAPS   O12 8161   2.904   4.439  11.039  0.3864 -0.2804 -0.2317
   86SAPS   O11 8162   3.031   4.478  10.836 -0.6804 -0.4389 -0.1838
   86SAPS    C1 8163   2.981   4.583  10.747 -0.1279 -0.1580 -0.3118
   86SAPS    HA 8164   3.002   4.689  10.775  0.0088  0.4373 -2.5628
   86SAPS    HB 8165   3.043   4.574  10.655  0.5999 -0.1822  0.1774
   86SAPS    C2 8166   2.833   4.574  10.725  0.3913  0.3264 -0.3573
   86SAPS    HS 8167   2.786   4.575  10.825  0.3236  1.2035 -0.3920
   86SAPS   O21 8168   2.815   4.446  10.661  0.3097 -0.2675  0.2964
   86SAPS   C21 8169   2.702   4.387  10.691  0.5012 -0.4083 -0.2491
   86SAPS   O22 8170   2.614   4.435  10.762  0.1740 -0.1762  0.0080
   86SAPS   C22 8171   2.696   4.254  10.621 -0.4471 -0.9566 -0.8909
   86SAPS   H2R 8172   2.789   4.206  10.658 -1.4016 -2.2456 -0.1241
   86SAPS   H2S 8173   2.613   4.196  10.665 -1.5576  2.2009  1.3123
   86SAPS    C3 8174   2.778   4.691  10.638  0.4877 -0.5651  0.2019
   86SAPS    HX 8175   2.813   4.784  10.688  1.6818 -0.8271 -0.1213
   86SAPS    HY 8176   2.667   4.686  10.637  0.4260  0.7955 -1.6141
   86SAPS   O31 8177   2.835   4.686  10.503  0.2050  0.4014 -0.1608
   86SAPS   C31 8178   2.754   4.749  10.419 -0.5572 -0.3398  0.1785
   86SAPS   O32 8179   2.655   4.808  10.445 -0.1418  0.5912  0.0545
   86SAPS   C32 8180   2.808   4.720  10.283  0.3947 -0.0082 -0.9604
   86SAPS   H2X 8181   2.873   4.630  10.287 -1.5070 -1.2889  3.9049
   86SAPS   H2Y 8182   2.853   4.819  10.259  0.2518 -0.5553 -3.6254
   86SAPS   C23 8183   2.676   4.269  10.468 -0.7917  0.1402  0.1313
   86SAPS   H3R 8184   2.585   4.325  10.436 -1.0417 -1.3621 -1.8872
   86SAPS   H3S 8185   2.662   4.161  10.447 -1.6793  0.7408 -2.4563
   86SAPS   C24 8186   2.793   4.332  10.388 -0.0462 -0.0205 -0.0777
   86SAPS   H4R 8187   2.891   4.280  10.397  0.1837  0.6418  1.3656
   86SAPS   H4S 8188   2.810   4.438  10.417  1.8493 -0.8068  1.8278
   86SAPS   C25 8189   2.748   4.313  10.242 -0.5432 -0.1683  0.0785
   86SAPS   H5R 8190   2.641   4.328  10.224  0.0115  0.6342 -2.7522
   86SAPS   C26 8191   2.828   4.299  10.138  0.2562 -0.0640 -0.0922
   86SAPS   H6R 8192   2.789   4.275  10.038  0.0871  1.7219 -0.4802
   86SAPS   C27 8193   2.976   4.288  10.125  0.8299 -0.0953  0.2448
   86SAPS   H7R 8194   2.993   4.195  10.066 -0.6400 -0.1822 -0.0604
   86SAPS   H7S 8195   3.020   4.267  10.225  1.6660  0.4095 -0.0155
   86SAPS   C28 8196   3.055   4.402  10.061 -0.5355 -0.3920  0.2374
   86SAPS   H8R 8197   3.088   4.471  10.140  0.9006  0.3421 -0.9654
   86SAPS   C29 8198   3.098   4.412   9.937  0.5129 -0.2379  0.3263
   86SAPS   H9R 8199   3.149   4.501   9.895 -0.6994  0.9337  1.3006
   86SAPS  C210 8200   3.063   4.321   9.827 -0.4493  0.5850 -0.0662
   86SAPS  H10R 8201   3.018   4.233   9.877 -1.0595  1.7911  1.5519
   86SAPS  H10S 8202   3.157   4.291   9.776 -0.6360  0.5690 -0.4071
   86SAPS  C211 8203   2.958   4.381   9.741 -0.0348  0.1142  0.8247
   86SAPS  H11R 8204   2.872   4.425   9.794  1.0883  3.6418 -0.1526
   86SAPS  C212 8205   2.949   4.376   9.611  0.1127 -0.6766  0.7976
   86SAPS  H12R 8206   2.852   4.404   9.567 -0.0068 -1.3298  0.6405
   86SAPS  C213 8207   3.057   4.313   9.525 -0.8549  1.1732  0.1965
   86SAPS  H13R 8208   3.024   4.231   9.459  0.0260  1.6751 -0.8686
   86SAPS  H13S 8209   3.135   4.259   9.584 -2.4113 -1.1806  0.1643
   86SAPS  C214 8210   3.130   4.413   9.437  0.5163 -0.3002 -0.2652
   86SAPS  H14R 8211   3.156   4.506   9.491 -1.3166  0.5548 -0.7884
   86SAPS  C215 8212   3.153   4.388   9.308  0.0252 -0.2254  0.0821
   86SAPS  H15R 8213   3.201   4.469   9.251 -1.6916 -1.2544 -2.9276
   86SAPS  C216 8214   3.138   4.265   9.218 -0.4554 -0.1953 -0.0793
   86SAPS  H16R 8215   3.123   4.169   9.272  1.1078 -1.4384 -1.7700
   86SAPS  H16S 8216   3.225   4.255   9.149 -0.3124 -1.6399  0.2970
   86SAPS  C217 8217   3.011   4.279   9.121 -0.2138  0.0060  0.3299
   86SAPS  H17R 8218   3.012   4.376   9.066  2.4187 -0.4018 -0.4531
   86SAPS  H17S 8219   2.916   4.289   9.178 -0.9617 -0.2019 -0.8817
   86SAPS  C218 8220   3.013   4.173   9.012  0.6166  0.2129  0.4270
   86SAPS  H18R 8221   3.038   4.072   9.049 -0.0417 -0.5383 -1.1428
   86SAPS  H18S 8222   3.104   4.203   8.956  1.5435  1.2119  2.4133
   86SAPS  C219 8223   2.886   4.156   8.920 -0.6514 -0.2140 -0.6757
   86SAPS  H19R 8224   2.880   4.249   8.860  1.3071  1.0136  0.9667
   86SAPS  H19S 8225   2.803   4.153   8.994  0.9929  1.0334  1.2684
   86SAPS  C220 8226   2.874   4.036   8.831 -0.2977  0.4843  0.1764
   86SAPS  H20R 8227   2.886   3.942   8.890  2.7731  2.0283  2.1550
   86SAPS  H20S 8228   2.947   4.028   8.748 -1.0997  1.4283 -0.6201
   86SAPS  H20T 8229   2.777   4.038   8.777 -0.7717 -1.8530  0.8749
   86SAPS   C33 8230   2.692   4.703  10.178  0.1484  0.3622  0.2070
   86SAPS   H3X 8231   2.609   4.770  10.208 -0.6143 -0.1507 -0.7476
   86SAPS   H3Y 8232   2.641   4.605  10.192 -1.5553  1.3792  1.3142
   86SAPS   C34 8233   2.741   4.719  10.034  0.4966  0.0007  0.0175
   86SAPS   H4X 8234   2.666   4.692   9.957 -0.3689  1.1285  0.4461
   86SAPS   H4Y 8235   2.825   4.649  10.013  0.6292 -0.0952  0.8427
   86SAPS   C35 8236   2.786   4.862  10.002 -0.3100 -0.0672  0.1401
   86SAPS   H5X 8237   2.874   4.884  10.067 -0.0649 -2.1289  0.5369
   86SAPS   H5Y 8238   2.715   4.940  10.037 -0.4664 -0.0034 -0.3156
   86SAPS   C36 8239   2.816   4.879   9.854 -0.2183  0.2272 -0.1291
   86SAPS   H6X 8240   2.825   4.985   9.822 -1.8536 -0.2157 -2.1357
   86SAPS   H6Y 8241   2.727   4.841   9.800 -1.4913 -0.2850  2.2818
   86SAPS   C37 8242   2.945   4.812   9.816 -0.1698  0.4672  0.0482
   86SAPS   H7X 8243   2.944   4.701   9.824  2.1424  0.3698 -0.7472
   86SAPS   H7Y 8244   3.027   4.840   9.886  0.7922  0.7830 -1.1921
   86SAPS   C38 8245   2.998   4.834   9.674 -0.0521  0.1470  0.0547
   86SAPS   H8X 8246   3.107   4.812   9.671  0.1479  0.7876  2.1120
   86SAPS   H8Y 8247   2.975   4.941   9.652 -1.1878 -0.2007 -0.5035
   86SAPS   C39 8248   2.924   4.745   9.577  1.1408 -0.4816 -0.0243
   86SAPS   H9X 8249   2.815   4.768   9.581  0.8491 -1.9652  1.7370
   86SAPS   H9Y 8250   2.931   4.637   9.603  4.2015 -0.2328  0.2823
   86SAPS  C310 8251   2.983   4.754   9.435  0.2926  0.4204  0.2270
   86SAPS  H10X 8252   3.085   4.711   9.424  0.4753  1.1488 -1.0277
   86SAPS  H10Y 8253   2.993   4.861   9.409  0.8650  0.9572  2.5059
   86SAPS  C311 8254   2.891   4.695   9.329 -0.8974  0.8724  0.8030
   86SAPS  H11X 8255   2.886   4.585   9.346  0.2940  0.9387  1.5672
   86SAPS  H11Y 8256   2.940   4.716   9.231 -0.4117  0.2490  0.9117
   86SAPS  C312 8257   2.753   4.751   9.312 -0.4242 -0.5708  0.1856
   86SAPS  H12X 8258   2.763   4.861   9.300 -0.3831 -0.7167 -1.1467
   86SAPS  H12Y 8259   2.699   4.740   9.409 -0.3778  0.1600  0.2948
   86SAPS  C313 8260   2.684   4.685   9.190 -0.2744 -0.2314  0.6376
   86SAPS  H13X 8261   2.689   4.574   9.197 -0.9200 -0.3120 -0.0462
   86SAPS  H13Y 8262   2.732   4.710   9.093  1.9664 -0.4025  1.6726
   86SAPS  C314 8263   2.533   4.704   9.193 -0.7184 -0.2651 -0.0968
   86SAPS  H14X 8264   2.509   4.812   9.205  0.0196 -0.2174  1.0184
   86SAPS  H14Y 8265   2.493   4.657   9.286  1.7532  0.7356  1.5511
   86SAPS  C315 8266   2.453   4.646   9.077 -0.1662 -0.0977 -0.4116
   86SAPS  H15X 8267   2.382   4.571   9.119 -0.9505  0.7722 -0.1622
   86SAPS  H15Y 8268   2.524   4.593   9.010  1.2302  1.4539 -0.1909
   86SAPS  C316 8269   2.377   4.754   9.001 -0.1900  0.5872 -0.7640
   86SAPS  H16X 8270   2.452   4.811   8.942 -0.5368  0.9010 -0.9033
   86SAPS  H16Y 8271   2.324   4.808   9.083  1.5278  0.4789  0.4317
   86SAPS  C317 8272   2.272   4.686   8.910  0.5911 -0.3216  0.3636
   86SAPS  H17X 8273   2.319   4.600   8.858  0.1913  0.2450 -0.9289
   86SAPS  H17Y 8274   2.232   4.751   8.830  2.7866  0.6420  0.0040
   86SAPS  C318 8275   2.148   4.634   8.990  0.0038  0.3572 -0.4028
   86SAPS  H18X 8276   2.086   4.566   8.929 -0.5403  2.0078 -1.7174
   86SAPS  H18Y 8277   2.085   4.718   9.026  2.1590  1.0395  1.9461
   86SAPS  H18Z 8278   2.187   4.570   9.072  0.5708  0.4421 -0.6033
   87SAPS     N 8279   2.990   5.723  11.013 -0.2035  0.4361  0.1314
   87SAPS   HN1 8280   2.995   5.822  11.043  0.8517  0.6787 -0.8017
   87SAPS   HN2 8281   3.077   5.671  11.038 -0.3687 -0.1741 -0.5441
   87SAPS   HN3 8282   2.968   5.716  10.912 -2.8115 -1.0287  0.7687
   87SAPS   C12 8283   2.888   5.646  11.088  0.0517 -0.0936 -0.3750
   87SAPS  H12A 8284   2.936   5.633  11.184 -0.2353 -0.4781 -0.2858
   87SAPS   C13 8285   2.750   5.724  11.098  0.0907  1.1100  0.5147
   87SAPS  O13A 8286   2.734   5.830  11.032  0.2757 -0.1863 -0.0897
   87SAPS  O13B 8287   2.663   5.678  11.172 -0.1689 -0.2562  0.4193
   87SAPS   C11 8288   2.868   5.507  11.025  0.4122 -0.4657  0.0422
   87SAPS  H11A 8289   2.822   5.515  10.925  0.0680  1.0288  0.3028
   87SAPS  H11B 8290   2.809   5.444  11.096  1.2632  1.7227  2.7985
   87SAPS     P 8291   3.027   5.315  10.936 -0.2209  0.5757 -0.1997
   87SAPS   O13 8292   3.140   5.247  11.004  0.5509 -0.3009 -0.2124
   87SAPS   O14 8293   2.906   5.239  10.912  0.1859  0.2703 -0.1518
   87SAPS   O12 8294   2.997   5.448  11.017  0.0336 -0.3500 -0.3613
   87SAPS   O11 8295   3.088   5.356  10.793 -0.3974 -0.6791  0.5710
   87SAPS    C1 8296   3.056   5.471  10.720  0.6359  0.5856  0.9779
   87SAPS    HA 8297   3.030   5.554  10.790  0.0517  0.2591  1.1488
   87SAPS    HB 8298   3.151   5.499  10.670  0.7426 -3.0809 -0.9912
   87SAPS    C2 8299   2.930   5.457  10.636 -0.3713  1.0766  0.0314
   87SAPS    HS 8300   2.856   5.432  10.715  3.1714 -0.0188  3.2093
   87SAPS   O21 8301   2.955   5.346  10.541 -0.4094  0.0089  0.3088
   87SAPS   C21 8302   2.854   5.262  10.523 -0.0177  0.0955 -0.4891
   87SAPS   O22 8303   2.755   5.262  10.599  0.0771  0.3298  0.4144
   87SAPS   C22 8304   2.888   5.150  10.421 -0.4383 -0.5529  0.6850
   87SAPS   H2R 8305   2.992   5.166  10.386 -0.9366 -0.0005 -0.5842
   87SAPS   H2S 8306   2.872   5.057  10.478 -1.4256 -0.1614  1.0540
   87SAPS    C3 8307   2.881   5.580  10.560 -0.7570 -0.1685 -0.7306
   87SAPS    HX 8308   2.966   5.595  10.490  0.2584 -1.0904  0.2900
   87SAPS    HY 8309   2.883   5.672  10.622  0.8704 -0.1369 -0.8285
   87SAPS   O31 8310   2.753   5.561  10.501  0.1178 -0.5860 -0.4619
   87SAPS   C31 8311   2.748   5.585  10.371  0.5347 -0.2441 -0.6183
   87SAPS   O32 8312   2.839   5.624  10.300 -0.2062  0.2980  0.5374
   87SAPS   C32 8313   2.602   5.578  10.323 -0.4837 -0.2665  0.0347
   87SAPS   H2X 8314   2.564   5.683  10.317  1.6870  0.5755  0.2788
   87SAPS   H2Y 8315   2.546   5.551  10.415  1.3335 -0.4452  1.1271
   87SAPS   C23 8316   2.796   5.151  10.292  0.1417 -0.0893  0.2572
   87SAPS   H3R 8317   2.710   5.221  10.298 -0.0864 -0.3716  0.3530
   87SAPS   H3S 8318   2.755   5.048  10.283  0.7057 -0.1903 -1.2635
   87SAPS   C24 8319   2.871   5.194  10.159  0.1373  0.5758  0.3955
   87SAPS   H4R 8320   2.810   5.212  10.068  0.4241  1.1205  0.3090
   87SAPS   H4S 8321   2.937   5.112  10.122 -0.9538 -1.5833  3.0563
   87SAPS   C25 8322   2.944   5.328  10.169 -0.2171 -0.0075 -0.4978
   87SAPS   H5R 8323   2.882   5.416  10.188 -0.4794 -0.1148 -0.8357
   87SAPS   C26 8324   3.067   5.348  10.146 -0.3347  0.2286  0.7672
   87SAPS   H6R 8325   3.106   5.450  10.158  0.3828  0.2565 -1.5160
   87SAPS   C27 8326   3.178   5.246  10.108  0.0824  0.2244 -0.7851
   87SAPS   H7R 8327   3.143   5.141  10.112  0.6035  0.0011 -1.8293
   87SAPS   H7S 8328   3.259   5.249  10.185  0.9996 -2.0828 -1.6223
   87SAPS   C28 8329   3.248   5.286   9.978 -0.0534  0.2491 -0.0432
   87SAPS   H8R 8330   3.349   5.328   9.974  0.2543 -0.1483  2.7904
   87SAPS   C29 8331   3.184   5.278   9.862  0.3381 -0.2588 -0.1443
   87SAPS   H9R 8332   3.249   5.307   9.778  2.6649 -0.3472  1.5906
   87SAPS  C210 8333   3.048   5.239   9.829 -0.3117 -0.4618  0.4166
   87SAPS  H10R 8334   2.987   5.206   9.915 -1.6031  1.2662  0.1837
   87SAPS  H10S 8335   3.066   5.142   9.777  1.5441  1.0715 -1.9303
   87SAPS  C211 8336   2.974   5.325   9.736  0.1032  0.1867 -0.3573
   87SAPS  H11R 8337   2.898   5.394   9.773  1.2385  1.5091 -0.4396
   87SAPS  C212 8338   2.992   5.316   9.601 -0.3251 -0.7109  0.2549
   87SAPS  H12R 8339   2.925   5.380   9.541  1.0726  0.7024  0.1862
   87SAPS  C213 8340   3.091   5.237   9.518 -0.5911  0.4247 -0.0323
   87SAPS  H13R 8341   3.043   5.151   9.468  0.4465 -0.2325  0.1012
   87SAPS  H13S 8342   3.170   5.200   9.587 -0.2170  0.6477 -0.3346
   87SAPS  C214 8343   3.128   5.327   9.404  0.2716  0.6583 -0.4513
   87SAPS  H14R 8344   3.223   5.372   9.437  0.7072 -1.1150  0.7933
   87SAPS  C215 8345   3.071   5.357   9.284 -0.0985  0.1631  0.0231
   87SAPS  H15R 8346   3.122   5.424   9.213 -0.2296 -1.1896 -1.3682
   87SAPS  C216 8347   2.937   5.312   9.225  0.3927 -0.2364  0.0823
   87SAPS  H16R 8348   2.905   5.401   9.167  0.2561 -0.5012 -0.2456
   87SAPS  H16S 8349   2.860   5.291   9.302 -0.5135  0.9936 -0.4757
   87SAPS  C217 8350   2.955   5.197   9.125 -0.2110  0.6991 -0.4809
   87SAPS  H17R 8351   2.946   5.098   9.175 -1.6622  0.5016 -1.1082
   87SAPS  H17S 8352   3.059   5.194   9.086  0.6250 -0.2406  1.7272
   87SAPS  C218 8353   2.860   5.199   9.007 -0.0592  0.2966  0.8839
   87SAPS  H18R 8354   2.881   5.122   8.930 -1.7574  1.4095 -0.7335
   87SAPS  H18S 8355   2.861   5.299   8.958 -1.8926  1.3514  2.8564
   87SAPS  C219 8356   2.709   5.176   9.050 -1.5055  0.5358 -0.3145
   87SAPS  H19R 8357   2.648   5.185   8.958 -1.4639 -0.1920 -0.4138
   87SAPS  H19S 8358   2.681   5.259   9.119  0.4072  0.2466  0.8328
   87SAPS  C220 8359   2.683   5.038   9.116 -0.9258  0.6093 -0.2436
   87SAPS  H20R 8360   2.597   4.987   9.067 -1.1247  1.0879 -0.3936
   87SAPS  H20S 8361   2.664   5.051   9.224  1.6005  0.0983  0.3142
   87SAPS  H20T 8362   2.775   4.975   9.107 -0.0872  1.8767 -0.6708
   87SAPS   C33 8363   2.575   5.490  10.204  0.6437 -0.0478  0.1940
   87SAPS   H3X 8364   2.475   5.443  10.203  1.4994 -1.8792  0.0115
   87SAPS   H3Y 8365   2.639   5.400  10.203  2.1849  1.0360 -0.3583
   87SAPS   C34 8366   2.597   5.577  10.072 -0.1348  0.1435 -0.0053
   87SAPS   H4X 8367   2.681   5.643  10.101 -1.7045  1.4848  1.6579
   87SAPS   H4Y 8368   2.513   5.647  10.048  0.0075  0.8351  1.4708
   87SAPS   C35 8369   2.618   5.495   9.945  0.0196  1.0251  0.0649
   87SAPS   H5X 8370   2.545   5.412   9.936  0.1026  0.7401  1.8850
   87SAPS   H5Y 8371   2.721   5.453   9.943  0.6157  2.4311  0.9312
   87SAPS   C36 8372   2.602   5.599   9.828 -0.2778 -0.3773 -0.4471
   87SAPS   H6X 8373   2.691   5.666   9.824 -1.5574  1.4245  0.1659
   87SAPS   H6Y 8374   2.520   5.673   9.844  1.0694  0.5584  2.4134
   87SAPS   C37 8375   2.567   5.530   9.695 -0.1871 -0.5171 -0.4521
   87SAPS   H7X 8376   2.480   5.461   9.696 -0.1392 -0.6420 -2.3366
   87SAPS   H7Y 8377   2.657   5.469   9.674  1.1439  1.3986 -0.4468
   87SAPS   C38 8378   2.546   5.628   9.579 -0.7210 -0.0911  0.0367
   87SAPS   H8X 8379   2.627   5.703   9.568  0.0093 -0.8845  0.0175
   87SAPS   H8Y 8380   2.454   5.690   9.590 -1.0167 -0.6360  0.6415
   87SAPS   C39 8381   2.550   5.552   9.445 -0.0958 -0.3390 -0.5526
   87SAPS   H9X 8382   2.484   5.464   9.461  0.0106 -0.3017  0.0801
   87SAPS   H9Y 8383   2.657   5.519   9.443 -0.0675 -0.2836  0.0090
   87SAPS  C310 8384   2.530   5.639   9.318 -0.0179  0.2321 -0.1221
   87SAPS  H10X 8385   2.622   5.700   9.303 -0.9523  2.0404  1.2360
   87SAPS  H10Y 8386   2.459   5.719   9.350  1.5596  1.3539  0.6639
   87SAPS  C311 8387   2.484   5.550   9.203 -0.5581 -0.2462  0.1351
   87SAPS  H11X 8388   2.383   5.511   9.227 -1.0963  1.0699  0.0719
   87SAPS  H11Y 8389   2.559   5.469   9.191  0.4001  0.9315 -2.0995
   87SAPS  C312 8390   2.475   5.625   9.062  0.3062  0.4484 -0.5461
   87SAPS  H12X 8391   2.581   5.630   9.030  0.4927 -0.4417 -0.0803
   87SAPS  H12Y 8392   2.417   5.720   9.068 -1.7020 -0.4594 -4.1273
   87SAPS  C313 8393   2.400   5.552   8.945  0.4082  0.3496 -0.7691
   87SAPS  H13X 8394   2.291   5.551   8.968  0.5895  0.2994  0.0928
   87SAPS  H13Y 8395   2.425   5.445   8.932  2.4836  0.5540  1.3456
   87SAPS  C314 8396   2.433   5.620   8.811  0.6332 -0.6513  0.0051
   87SAPS  H14X 8397   2.369   5.575   8.733 -0.0884 -0.4552  0.4834
   87SAPS  H14Y 8398   2.539   5.598   8.786  0.1720 -0.3419 -2.2459
   87SAPS  C315 8399   2.429   5.778   8.825  0.1373 -0.0334  0.1500
   87SAPS  H15X 8400   2.497   5.808   8.908  1.4641 -0.1403 -0.8804
   87SAPS  H15Y 8401   2.322   5.800   8.843 -0.5410 -1.1980 -2.3162
   87SAPS  C316 8402   2.467   5.845   8.693  1.0283  0.1977  0.4167
   87SAPS  H16X 8403   2.485   5.767   8.617  0.4815 -0.4974  0.9991
   87SAPS  H16Y 8404   2.562   5.901   8.704 -0.5269  2.7507  1.4207
   87SAPS  C317 8405   2.356   5.932   8.623  0.0771  0.1548 -0.6100
   87SAPS  H17X 8406   2.351   6.030   8.675 -1.6611 -0.3525  0.2341
   87SAPS  H17Y 8407   2.264   5.872   8.641  1.2402 -1.6173 -0.3224
   87SAPS  C318 8408   2.387   5.948   8.476  0.2506 -0.9418  0.0059
   87SAPS  H18X 8409   2.294   5.955   8.416 -1.2265  0.2590  2.3140
   87SAPS  H18Y 8410   2.443   5.866   8.428 -1.2663 -2.3963  0.6879
   87SAPS  H18Z 8411   2.433   6.047   8.453 -1.6213 -0.3191 -1.2076
   88SAPS     N 8412   4.952   4.258  10.912 -0.6167  0.1161 -0.2864
   88SAPS   HN1 8413   4.997   4.318  10.841 -0.6144 -0.0339 -0.4136
   88SAPS   HN2 8414   4.867   4.204  10.884 -0.0088 -1.1479  0.2477
   88SAPS   HN3 8415   4.914   4.321  10.986  0.1647  1.1372 -0.7417
   88SAPS   C12 8416   5.057   4.169  10.971 -0.5294 -0.5296  0.2714
   88SAPS  H12A 8417   5.107   4.132  10.882  1.6902  1.3030  0.7201
   88SAPS   C13 8418   5.160   4.240  11.062 -0.1819  0.4059 -0.2979
   88SAPS  O13A 8419   5.135   4.360  11.082  0.1746  0.0140  0.1662
   88SAPS  O13B 8420   5.266   4.186  11.094 -0.1225 -0.6198  0.2340
   88SAPS   C11 8421   4.987   4.061  11.054 -0.2220  0.8179  0.0172
   88SAPS  H11A 8422   4.934   4.115  11.136 -0.8487 -0.3336  0.3728
   88SAPS  H11B 8423   5.069   3.997  11.092  0.3163  1.6489  0.2695
   88SAPS     P 8424   4.915   3.868  10.906  0.0606  0.1662 -0.1006
   88SAPS   O13 8425   4.896   3.755  11.000 -1.0226 -0.1985 -0.7628
   88SAPS   O14 8426   4.841   3.863  10.781  0.2715 -0.0296 -0.5210
   88SAPS   O12 8427   4.880   3.996  10.980  0.4257  0.3457  0.3565
   88SAPS   O11 8428   5.071   3.875  10.880 -0.2853 -0.5466 -0.1911
   88SAPS    C1 8429   5.134   3.894  10.753  0.4141  0.5601 -0.1064
   88SAPS    HA 8430   5.065   3.938  10.678  0.2395  0.7167  0.1453
   88SAPS    HB 8431   5.217   3.967  10.764  0.4946  0.6442 -1.1947
   88SAPS    C2 8432   5.177   3.760  10.689  0.5671 -0.6936  0.4267
   88SAPS    HS 8433   5.231   3.794  10.598 -0.8328  2.6926  0.7805
   88SAPS   O21 8434   5.053   3.693  10.660 -0.1821 -0.3447  0.1685
   88SAPS   C21 8435   5.032   3.653  10.533  0.7941 -0.1653 -0.0453
   88SAPS   O22 8436   5.117   3.660  10.448  0.2249 -0.4522  0.9228
   88SAPS   C22 8437   4.896   3.603  10.524  0.3546 -0.2779 -0.4877
   88SAPS   H2R 8438   4.875   3.540  10.613 -0.3825  0.3655 -0.2034
   88SAPS   H2S 8439   4.828   3.690  10.531 -1.5599 -1.6868 -1.1542
   88SAPS    C3 8440   5.270   3.684  10.786 -0.2287  0.5913 -0.2083
   88SAPS    HX 8441   5.220   3.657  10.882  0.8997 -1.5501 -0.1915
   88SAPS    HY 8442   5.362   3.743  10.806 -0.0209  0.6080 -1.1929
   88SAPS   O31 8443   5.297   3.555  10.733  0.1935  0.2956  0.4180
   88SAPS   C31 8444   5.392   3.551  10.640  0.5045  0.0603  0.1933
   88SAPS   O32 8445   5.464   3.645  10.608 -0.0884  0.6648  0.0162
   88SAPS   C32 8446   5.386   3.408  10.581  0.1804 -0.4126  0.0584
   88SAPS   H2X 8447   5.280   3.394  10.551  0.0438  0.5059  0.0987
   88SAPS   H2Y 8448   5.402   3.336  10.664  0.8910  0.9977  1.1705
   88SAPS   C23 8449   4.850   3.527  10.397 -0.1816 -0.1756  0.2423
   88SAPS   H3R 8450   4.749   3.481  10.404  0.9380 -2.6875  0.0649
   88SAPS   H3S 8451   4.925   3.446  10.386 -0.9248 -0.9681  0.9324
   88SAPS   C24 8452   4.862   3.612  10.258  0.3113  0.2224 -0.1898
   88SAPS   H4R 8453   4.853   3.528  10.186 -0.3153 -0.0172  0.1652
   88SAPS   H4S 8454   4.963   3.656  10.243  0.1052  0.5382 -0.6732
   88SAPS   C25 8455   4.748   3.708  10.248  0.4875 -1.0030 -0.6469
   88SAPS   H5R 8456   4.777   3.800  10.300  0.2613 -2.4099  2.0791
   88SAPS   C26 8457   4.627   3.690  10.181  0.0666 -0.0571 -0.9052
   88SAPS   H6R 8458   4.549   3.768  10.179 -0.9071 -0.9994 -0.4156
   88SAPS   C27 8459   4.577   3.577  10.096 -0.2932 -0.3847 -0.3082
   88SAPS   H7R 8460   4.469   3.557  10.114  0.0967  0.2341  3.0088
   88SAPS   H7S 8461   4.617   3.479  10.129  0.3790 -0.6494 -1.8839
   88SAPS   C28 8462   4.622   3.579   9.947  0.3794  0.9994 -0.4396
   88SAPS   H8R 8463   4.718   3.629   9.930 -0.6715  3.1769 -0.1809
   88SAPS   C29 8464   4.562   3.531   9.834 -0.2776 -0.1013  0.3209
   88SAPS   H9R 8465   4.617   3.539   9.739 -2.1676  1.0717 -0.6852
   88SAPS  C210 8466   4.425   3.462   9.832 -0.3973 -1.1205 -0.2336
   88SAPS  H10R 8467   4.379   3.487   9.734 -1.1725 -1.4052  0.0536
   88SAPS  H10S 8468   4.354   3.506   9.904 -2.9424 -4.1725 -0.7554
   88SAPS  C211 8469   4.429   3.310   9.848 -0.3920  0.2431 -0.1091
   88SAPS  H11R 8470   4.463   3.271   9.945 -2.5051  0.9955  0.9548
   88SAPS  C212 8471   4.390   3.224   9.753 -0.0088  0.4997  0.0177
   88SAPS  H12R 8472   4.407   3.117   9.769 -2.2163 -0.0632 -1.1323
   88SAPS  C213 8473   4.329   3.267   9.620 -0.6177  0.3183 -0.2855
   88SAPS  H13R 8474   4.339   3.181   9.550 -0.4726 -0.4022  0.6121
   88SAPS  H13S 8475   4.403   3.337   9.575 -1.5885  0.6589 -1.3845
   88SAPS  C214 8476   4.189   3.324   9.616  0.3072  0.0016 -0.1585
   88SAPS  H14R 8477   4.138   3.318   9.713 -0.4319  0.3251 -0.5260
   88SAPS  C215 8478   4.116   3.352   9.503  0.3245 -0.8078 -0.3569
   88SAPS  H15R 8479   4.013   3.391   9.509  0.5541 -0.2470 -0.0058
   88SAPS  C216 8480   4.171   3.333   9.359 -0.1682 -0.6691  0.1258
   88SAPS  H16R 8481   4.276   3.298   9.353 -0.9938 -2.9622 -1.2874
   88SAPS  H16S 8482   4.183   3.437   9.323 -0.9037 -0.7926 -0.4744
   88SAPS  C217 8483   4.078   3.242   9.278 -0.0442  0.7432 -0.2564
   88SAPS  H17R 8484   3.989   3.301   9.247  0.4587  2.5880  1.6745
   88SAPS  H17S 8485   4.032   3.164   9.342 -0.1710  0.9285 -0.1211
   88SAPS  C218 8486   4.137   3.183   9.156  0.5069  0.5001  0.1029
   88SAPS  H18R 8487   4.225   3.119   9.181  0.7246  1.1449  0.9954
   88SAPS  H18S 8488   4.186   3.270   9.107 -0.4557 -0.4995 -2.7687
   88SAPS  C219 8489   4.038   3.117   9.067 -0.1905  0.0865  0.1477
   88SAPS  H19R 8490   3.956   3.190   9.051  2.3172  2.9790  0.0484
   88SAPS  H19S 8491   3.994   3.030   9.121 -1.3669  1.9297  2.1882
   88SAPS  C220 8492   4.105   3.066   8.940  0.1320 -0.0611  1.0782
   88SAPS  H20R 8493   4.033   2.996   8.892 -0.7009  0.2218  1.9072
   88SAPS  H20S 8494   4.191   3.003   8.971 -0.0827 -0.5234  0.7370
   88SAPS  H20T 8495   4.137   3.150   8.874 -0.3142 -2.5134 -2.4342
   88SAPS   C33 8496   5.470   3.381  10.453  0.3446  0.4498 -0.3785
   88SAPS   H3X 8497   5.579   3.383  10.471  0.3076 -1.2986  0.0957
   88SAPS   H3Y 8498   5.441   3.450  10.371 -1.2505 -1.2977 -1.3162
   88SAPS   C34 8499   5.435   3.243  10.396 -0.5871 -0.4385  0.5241
   88SAPS   H4X 8500   5.327   3.231  10.375 -0.4038  0.8534 -1.3237
   88SAPS   H4Y 8501   5.463   3.163  10.467  0.0551 -1.2982 -0.6769
   88SAPS   C35 8502   5.522   3.215  10.277  0.2888  0.7850  0.1173
   88SAPS   H5X 8503   5.620   3.170  10.305  0.2324  1.0397  0.7233
   88SAPS   H5Y 8504   5.560   3.311  10.236 -0.6087  0.9510 -0.3392
   88SAPS   C36 8505   5.455   3.113  10.183  0.1919 -1.0497  1.0804
   88SAPS   H6X 8506   5.346   3.108  10.199  0.0273  0.2227  0.3964
   88SAPS   H6Y 8507   5.478   3.006  10.206 -0.0346 -1.2822  0.2520
   88SAPS   C37 8508   5.477   3.151  10.035  0.2550  0.1439 -0.7181
   88SAPS   H7X 8509   5.581   3.182  10.010  0.9108 -0.7142  0.8802
   88SAPS   H7Y 8510   5.413   3.239  10.009 -0.2429 -0.0236 -0.0739
   88SAPS   C38 8511   5.427   3.036   9.947  0.6159 -0.4236  0.0404
   88SAPS   H8X 8512   5.321   3.011   9.966  0.5320 -0.3788 -0.3588
   88SAPS   H8Y 8513   5.493   2.947   9.959  0.5094 -0.6613 -1.1056
   88SAPS   C39 8514   5.443   3.066   9.797  0.3102 -0.8284  0.2750
   88SAPS   H9X 8515   5.550   3.079   9.770  0.1099 -0.3971 -0.3469
   88SAPS   H9Y 8516   5.389   3.163   9.782 -0.9771 -1.6959 -0.7855
   88SAPS  C310 8517   5.377   2.975   9.704  0.4054  0.1529  0.5373
   88SAPS  H10X 8518   5.266   2.980   9.713  0.1433 -1.7878 -1.1334
   88SAPS  H10Y 8519   5.407   2.869   9.717 -1.5247 -0.4647  0.1267
   88SAPS  C311 8520   5.403   3.024   9.556 -0.0910 -0.2674 -1.0631
   88SAPS  H11X 8521   5.509   2.999   9.532  0.4244  1.1907 -0.3119
   88SAPS  H11Y 8522   5.391   3.134   9.550  2.8792  0.1774  0.5498
   88SAPS  C312 8523   5.309   2.956   9.450  0.4258 -0.4852  0.0036
   88SAPS  H12X 8524   5.202   2.957   9.479  0.5720 -0.3229  0.5407
   88SAPS  H12Y 8525   5.333   2.848   9.438 -0.4613 -0.7852  0.8906
   88SAPS  C313 8526   5.337   3.014   9.308  0.4084  0.0491 -0.3670
   88SAPS  H13X 8527   5.440   2.986   9.276  0.2203 -0.9399 -0.1429
   88SAPS  H13Y 8528   5.336   3.125   9.314 -0.4232 -0.0951  2.8957
   88SAPS  C314 8529   5.238   2.973   9.197 -0.3639  0.6084  0.7723
   88SAPS  H14X 8530   5.154   3.043   9.218 -2.5779 -1.5793 -0.5558
   88SAPS  H14Y 8531   5.209   2.866   9.205  1.9795 -0.1170 -0.0206
   88SAPS  C315 8532   5.298   3.006   9.056 -0.8627 -0.1786  0.4887
   88SAPS  H15X 8533   5.348   3.104   9.063 -0.4663 -0.3441 -0.0106
   88SAPS  H15Y 8534   5.214   3.013   8.984  1.9557  1.3321 -2.7745
   88SAPS  C316 8535   5.406   2.896   9.023  1.1072  0.1404 -0.1269
   88SAPS  H16X 8536   5.355   2.797   9.020  1.1519  0.1456 -1.0424
   88SAPS  H16Y 8537   5.489   2.893   9.096  0.0102 -0.3842  1.1395
   88SAPS  C317 8538   5.458   2.913   8.883 -0.4883  0.3718  0.1560
   88SAPS  H17X 8539   5.523   3.003   8.881  2.2735 -1.5375  1.2659
   88SAPS  H17Y 8540   5.382   2.926   8.803 -1.3975  1.1035  1.1231
   88SAPS  C318 8541   5.541   2.798   8.833 -0.1300 -0.3671  0.1273
   88SAPS  H18X 8542   5.620   2.778   8.908  0.4898 -0.2708 -0.4932
   88SAPS  H18Y 8543   5.583   2.811   8.731  0.2828  0.9873  0.4531
   88SAPS  H18Z 8544   5.479   2.706   8.834  1.1692 -1.2529  1.3223
   89SAPS     N 8545   4.299   6.714  11.060 -0.0610  0.3410 -0.1506
   89SAPS   HN1 8546   4.281   6.731  11.161  0.0273 -2.9737  0.4895
   89SAPS   HN2 8547   4.393   6.751  11.038  0.6919  0.4341  2.9702
   89SAPS   HN3 8548   4.227   6.757  10.999 -0.7132 -1.0344 -0.3719
   89SAPS   C12 8549   4.317   6.569  11.033  0.0157  0.8119  0.5319
   89SAPS  H12A 8550   4.404   6.525  11.079  0.4815  0.7933 -0.3463
   89SAPS   C13 8551   4.214   6.478  11.098 -0.2985  0.8846 -0.3802
   89SAPS  O13A 8552   4.116   6.532  11.152  0.4604  0.5786 -0.0339
   89SAPS  O13B 8553   4.201   6.363  11.046 -0.1005  0.1668 -0.4731
   89SAPS   C11 8554   4.302   6.563  10.876 -0.5270  0.6286  0.3690
   89SAPS  H11A 8555   4.198   6.600  10.864 -1.8969 -2.5563  1.8760
   89SAPS  H11B 8556   4.302   6.458  10.839  0.4528  0.6757  0.1965
   89SAPS     P 8557   4.538   6.596  10.749 -0.5612  0.2914 -0.3453
   89SAPS   O13 8558   4.601   6.712  10.678  0.1681 -0.2218 -0.1463
   89SAPS   O14 8559   4.624   6.531  10.851  0.2082  0.0741  0.3650
   89SAPS   O12 8560   4.402   6.642  10.814  0.1826 -0.0231  0.4424
   89SAPS   O11 8561   4.483   6.488  10.650  0.0869 -0.2296 -0.3182
   89SAPS    C1 8562   4.383   6.530  10.551  0.4192  0.3606 -0.0989
   89SAPS    HA 8563   4.284   6.487  10.579  0.9539 -0.8399 -0.0112
   89SAPS    HB 8564   4.371   6.640  10.543  0.3316  0.2277 -2.1710
   89SAPS    C2 8565   4.418   6.491  10.404 -0.8177 -0.2145  0.2349
   89SAPS    HS 8566   4.342   6.540  10.339 -0.7689  0.6643  0.8429
   89SAPS   O21 8567   4.400   6.353  10.382 -0.4066  0.2815 -0.0425
   89SAPS   C21 8568   4.284   6.296  10.387  0.0707 -0.5648 -0.0013
   89SAPS   O22 8569   4.178   6.356  10.400 -0.2247 -0.5002 -0.2667
   89SAPS   C22 8570   4.304   6.147  10.397 -0.1002 -0.5510  0.1499
   89SAPS   H2R 8571   4.407   6.129  10.434  0.1548  0.7318  0.0731
   89SAPS   H2S 8572   4.234   6.111  10.475 -1.7981 -0.1115 -1.1309
   89SAPS    C3 8573   4.566   6.539  10.356  0.5959  0.5379 -0.5691
   89SAPS    HX 8574   4.630   6.502  10.438  0.4533 -1.6127 -1.3855
   89SAPS    HY 8575   4.565   6.650  10.349 -2.7133  0.4834 -1.9024
   89SAPS   O31 8576   4.603   6.481  10.231 -0.6305 -0.3549 -0.0285
   89SAPS   C31 8577   4.713   6.413  10.215  0.4440 -0.6256  0.2475
   89SAPS   O32 8578   4.805   6.397  10.291 -0.0202  0.1729 -0.6825
   89SAPS   C32 8579   4.715   6.378  10.066 -0.9632  0.1123 -0.3357
   89SAPS   H2X 8580   4.659   6.284  10.049 -0.4399 -0.1310 -0.7503
   89SAPS   H2Y 8581   4.822   6.367  10.039 -0.6031 -0.3644  1.2716
   89SAPS   C23 8582   4.266   6.080  10.263 -0.3907  0.1381  0.4777
   89SAPS   H3R 8583   4.171   6.125  10.225 -0.5353  1.0002  1.8567
   89SAPS   H3S 8584   4.238   5.975  10.288 -0.1503 -0.0271  0.0662
   89SAPS   C24 8585   4.376   6.075  10.167  0.4662  0.0170  0.5081
   89SAPS   H4R 8586   4.363   5.983  10.106 -0.1740  1.8210 -2.1920
   89SAPS   H4S 8587   4.471   6.058  10.223 -0.6191 -3.0366  1.5249
   89SAPS   C25 8588   4.385   6.200  10.078 -0.5002  0.2190 -0.0154
   89SAPS   H5R 8589   4.408   6.296  10.127 -1.0906 -0.2244  1.1397
   89SAPS   C26 8590   4.381   6.200   9.939 -0.0480  0.6908  0.5377
   89SAPS   H6R 8591   4.383   6.298   9.890 -1.4926 -0.2782 -1.5325
   89SAPS   C27 8592   4.357   6.083   9.844  0.1793  0.5520  0.2137
   89SAPS   H7R 8593   4.279   6.117   9.773  0.7738 -0.4753 -0.9592
   89SAPS   H7S 8594   4.306   6.006   9.907 -1.9081  1.4532 -0.3368
   89SAPS   C28 8595   4.483   6.037   9.776 -0.0794 -0.0952 -0.4486
   89SAPS   H8R 8596   4.563   6.010   9.847  1.1326  1.2355 -1.2888
   89SAPS   C29 8597   4.513   6.025   9.651 -0.3778  0.5722 -0.2229
   89SAPS   H9R 8598   4.612   5.981   9.634 -0.8698 -1.3080  1.6052
   89SAPS  C210 8599   4.414   6.042   9.534 -0.2019  0.1289 -0.1916
   89SAPS  H10R 8600   4.317   6.009   9.577  1.6912 -5.0428  0.4042
   89SAPS  H10S 8601   4.439   5.964   9.460 -0.6967 -0.1583 -0.0572
   89SAPS  C211 8602   4.395   6.179   9.481 -0.4944  0.1675  0.5906
   89SAPS  H11R 8603   4.362   6.254   9.555 -0.6850  0.8912 -0.2239
   89SAPS  C212 8604   4.417   6.218   9.355  0.5931 -0.1015 -0.0734
   89SAPS  H12R 8605   4.396   6.320   9.321 -1.0996 -1.2762 -2.6368
   89SAPS  C213 8606   4.469   6.135   9.240 -0.2081  0.2109  0.2997
   89SAPS  H13R 8607   4.530   6.052   9.283 -1.3290 -0.9884 -0.3853
   89SAPS  H13S 8608   4.532   6.198   9.174 -0.7605 -0.2565 -0.6929
   89SAPS  C214 8609   4.342   6.082   9.175 -0.3249 -0.1836 -0.0980
   89SAPS  H14R 8610   4.283   6.010   9.233  0.6802 -0.0020  1.1859
   89SAPS  C215 8611   4.312   6.115   9.050  0.8359 -0.4875 -0.0057
   89SAPS  H15R 8612   4.217   6.077   9.011  0.8877  0.4386 -1.0701
   89SAPS  C216 8613   4.387   6.200   8.946  0.2380  0.3712 -0.4077
   89SAPS  H16R 8614   4.475   6.246   8.997 -0.0964 -2.4470  2.8718
   89SAPS  H16S 8615   4.319   6.284   8.924  0.9668  0.8049 -1.0373
   89SAPS  C217 8616   4.445   6.115   8.831 -0.6457 -0.1858  0.8380
   89SAPS  H17R 8617   4.486   6.025   8.882 -1.6853 -1.4956 -0.5786
   89SAPS  H17S 8618   4.521   6.173   8.774 -1.2251  0.3534  0.6204
   89SAPS  C218 8619   4.343   6.063   8.732 -0.9514 -0.2373 -0.5432
   89SAPS  H18R 8620   4.269   6.143   8.710 -0.3652  0.5919  0.4388
   89SAPS  H18S 8621   4.295   5.974   8.780  1.5761 -1.6978 -0.6448
   89SAPS  C219 8622   4.407   6.019   8.604  0.0807  0.0588  0.3768
   89SAPS  H19R 8623   4.455   6.107   8.556 -2.8222  0.6185 -1.6836
   89SAPS  H19S 8624   4.333   5.979   8.532  1.2028  0.8197 -1.2275
   89SAPS  C220 8625   4.504   5.907   8.632  0.5572 -0.6103  0.4897
   89SAPS  H20R 8626   4.550   5.870   8.538 -1.2679  0.7368 -0.9807
   89SAPS  H20S 8627   4.454   5.814   8.666  0.5613 -1.4504 -1.7260
   89SAPS  H20T 8628   4.578   5.942   8.707  2.2814  1.2297 -2.0057
   89SAPS   C33 8629   4.654   6.478   9.957 -0.2118 -0.2749  0.3679
   89SAPS   H3X 8630   4.683   6.585   9.966  0.1974 -0.2896 -0.6899
   89SAPS   H3Y 8631   4.547   6.462   9.979  0.0235 -1.8938  0.4026
   89SAPS   C34 8632   4.697   6.426   9.815  0.6588 -0.2807 -0.0141
   89SAPS   H4X 8633   4.684   6.316   9.800  0.4755 -0.2901  0.2179
   89SAPS   H4Y 8634   4.806   6.448   9.813  0.2926  1.7877  1.3812
   89SAPS   C35 8635   4.621   6.496   9.698  0.0852 -0.4987  0.7157
   89SAPS   H5X 8636   4.604   6.605   9.709 -1.9052 -0.8321  1.1553
   89SAPS   H5Y 8637   4.524   6.445   9.678  0.3629 -0.8116  0.1762
   89SAPS   C36 8638   4.691   6.475   9.564 -0.0798 -0.1880 -0.2800
   89SAPS   H6X 8639   4.676   6.366   9.543 -0.3496 -0.4269  1.0986
   89SAPS   H6Y 8640   4.797   6.499   9.586 -1.1222  1.8819  2.8174
   89SAPS   C37 8641   4.653   6.570   9.449 -0.7010  0.4478 -0.0113
   89SAPS   H7X 8642   4.722   6.657   9.449 -2.0109  1.4932  0.3882
   89SAPS   H7Y 8643   4.548   6.600   9.466 -0.5771  1.1703 -0.5109
   89SAPS   C38 8644   4.677   6.506   9.317 -0.0943  0.3742  1.0935
   89SAPS   H8X 8645   4.614   6.414   9.320 -0.3950  0.5132 -0.3431
   89SAPS   H8Y 8646   4.783   6.477   9.297 -0.4589 -0.0261 -0.3440
   89SAPS   C39 8647   4.632   6.591   9.196 -0.4589 -0.0974  0.5444
   89SAPS   H9X 8648   4.691   6.685   9.190 -2.6437  1.2192 -0.7608
   89SAPS   H9Y 8649   4.530   6.628   9.217 -1.4485 -2.5082  0.1651
   89SAPS  C310 8650   4.622   6.520   9.057  0.6032 -0.5445 -0.4876
   89SAPS  H10X 8651   4.611   6.600   8.980 -0.5517 -1.1815 -0.9987
   89SAPS  H10Y 8652   4.554   6.433   9.047  1.7893 -1.5787  0.2982
   89SAPS  C311 8653   4.762   6.483   9.017  0.1747  0.4211  0.1937
   89SAPS  H11X 8654   4.824   6.438   9.097 -0.6042  0.9639  1.1058
   89SAPS  H11Y 8655   4.815   6.577   8.987 -3.7021  2.4402 -0.6630
   89SAPS  C312 8656   4.769   6.379   8.900  0.2323 -0.6870  0.3102
   89SAPS  H12X 8657   4.683   6.308   8.894  0.9512 -1.8075  2.5353
   89SAPS  H12Y 8658   4.859   6.315   8.913 -0.4488 -1.4363  1.4796
   89SAPS  C313 8659   4.784   6.439   8.758  0.2421 -0.9027  0.0514
   89SAPS  H13X 8660   4.847   6.384   8.686  1.4379  0.2428  0.1942
   89SAPS  H13Y 8661   4.819   6.545   8.759 -1.6510 -0.2570  1.4597
   89SAPS  C314 8662   4.644   6.448   8.689  0.1567  0.3968 -0.2708
   89SAPS  H14X 8663   4.577   6.501   8.760  0.0591  0.2770 -0.2743
   89SAPS  H14Y 8664   4.610   6.344   8.673  0.8132 -0.3442  2.9540
   89SAPS  C315 8665   4.652   6.528   8.558  1.0973  0.0883 -0.4243
   89SAPS  H15X 8666   4.720   6.459   8.503 -0.6407 -0.4498 -1.9189
   89SAPS  H15Y 8667   4.701   6.627   8.567  1.1461 -0.1014  1.8729
   89SAPS  C316 8668   4.523   6.541   8.478  0.3543 -0.0493  0.9700
   89SAPS  H16X 8669   4.444   6.595   8.534 -0.9693  0.7847 -1.6152
   89SAPS  H16Y 8670   4.494   6.436   8.460  0.7378  0.3848 -2.6061
   89SAPS  C317 8671   4.545   6.606   8.339  0.8100 -0.2220 -0.5675
   89SAPS  H17X 8672   4.606   6.534   8.281  0.2770 -1.2350  0.1159
   89SAPS  H17Y 8673   4.594   6.706   8.335 -0.6874  0.5097 -1.2230
   89SAPS  C318 8674   4.414   6.615   8.262 -0.6921 -0.1223  0.4863
   89SAPS  H18X 8675   4.432   6.657   8.161  0.4586  1.5693  1.3567
   89SAPS  H18Y 8676   4.337   6.677   8.313  1.7694  2.3788  1.2967
   89SAPS  H18Z 8677   4.364   6.517   8.252 -0.6248 -0.3360  1.9958
   90SAPS     N 8678   0.358   5.991  10.631  0.2125  0.6022 -0.8455
   90SAPS   HN1 8679   0.367   5.897  10.586 -0.1372 -0.6211  1.5674
   90SAPS   HN2 8680   0.266   6.024  10.595 -0.1977  1.7223  1.1428
   90SAPS   HN3 8681   0.433   6.038  10.578  1.1209  0.7712  0.5681
   90SAPS   C12 8682   0.369   5.986  10.782  0.1883  0.1346  0.1224
   90SAPS  H12A 8683   0.473   5.964  10.797  0.3457  1.1688  0.5786
   90SAPS   C13 8684   0.335   6.125  10.847  0.6978 -0.5105  0.6535
   90SAPS  O13A 8685   0.308   6.223  10.778  0.2817  0.0606 -0.1764
   90SAPS  O13B 8686   0.360   6.136  10.971  0.3596  0.7149 -0.3505
   90SAPS   C11 8687   0.273   5.880  10.836  0.9013  0.5777 -0.1241
   90SAPS  H11A 8688   0.167   5.907  10.817  1.2295  2.2646  0.3293
   90SAPS  H11B 8689   0.284   5.895  10.946 -0.6051  0.4905  0.0436
   90SAPS     P 8690   0.225   5.630  10.780  0.1330  0.4623 -0.3374
   90SAPS   O13 8691   0.302   5.508  10.776 -0.7287 -0.0243  0.1702
   90SAPS   O14 8692   0.120   5.633  10.887 -0.6797  0.3109  0.3817
   90SAPS   O12 8693   0.323   5.752  10.792  0.3705  0.3148 -0.4802
   90SAPS   O11 8694   0.162   5.668  10.634  0.0111  0.1610 -0.8209
   90SAPS    C1 8695   0.052   5.601  10.590  0.1301 -0.2090  1.3286
   90SAPS    HA 8696   0.071   5.492  10.604 -0.0340 -0.5825 -1.0828
   90SAPS    HB 8697  -0.044   5.633  10.635  0.6159  2.7329  0.3260
   90SAPS    C2 8698   0.052   5.619  10.433  0.1033 -0.6857 -0.0898
   90SAPS    HS 8699  -0.031   5.555  10.395 -0.6653 -1.0270  2.0843
   90SAPS   O21 8700   0.176   5.582  10.378 -0.2309 -0.1630 -0.2779
   90SAPS   C21 8701   0.191   5.451  10.371  0.2471 -0.1450  0.1148
   90SAPS   O22 8702   0.104   5.371  10.385  0.1097  0.4032 -0.7125
   90SAPS   C22 8703   0.337   5.419  10.335  0.0403 -0.1236  0.2871
   90SAPS   H2R 8704   0.370   5.456  10.235 -0.3587  1.2764  0.6683
   90SAPS   H2S 8705   0.397   5.473  10.411 -1.9001  0.5835  1.3395
   90SAPS    C3 8706   0.022   5.771  10.406 -0.3817 -0.3230 -0.3593
   90SAPS    HX 8707   0.092   5.836  10.463 -0.7776 -0.3108  0.1173
   90SAPS    HY 8708  -0.084   5.788  10.434 -0.7075  0.3867 -2.0335
   90SAPS   O31 8709   0.036   5.802  10.269 -0.2007 -0.0615  0.1431
   90SAPS   C31 8710  -0.003   5.922  10.227 -0.1339  0.1156  0.5764
   90SAPS   O32 8711  -0.017   6.022  10.291 -0.3172 -0.6786 -0.7405
   90SAPS   C32 8712  -0.027   5.932  10.078  0.1622 -0.0147 -0.0610
   90SAPS   H2X 8713  -0.082   5.838  10.053 -1.9068  1.2929 -0.5849
   90SAPS   H2Y 8714   0.074   5.931  10.032 -0.1816  0.3102 -0.8487
   90SAPS   C23 8715   0.357   5.267  10.333  0.4830  0.1279  0.3586
   90SAPS   H3R 8716   0.314   5.215  10.422 -2.9668 -2.4898 -2.6917
   90SAPS   H3S 8717   0.468   5.268  10.344  0.3747  0.8394  1.5278
   90SAPS   C24 8718   0.298   5.184  10.219 -0.8853 -0.6289 -0.6372
   90SAPS   H4R 8719   0.195   5.219  10.199 -1.0262 -0.2878  0.6369
   90SAPS   H4S 8720   0.273   5.078  10.242 -0.3270 -0.2809  1.7849
   90SAPS   C25 8721   0.366   5.194  10.089  0.2246  0.0665  0.1405
   90SAPS   H5R 8722   0.415   5.285  10.052  0.9089  0.1505  1.2414
   90SAPS   C26 8723   0.367   5.094   9.999  0.0665 -0.6346  0.3997
   90SAPS   H6R 8724   0.404   5.117   9.899  2.0741  1.1119  1.5156
   90SAPS   C27 8725   0.305   4.958  10.013 -0.1991  0.2969 -0.1814
   90SAPS   H7R 8726   0.279   4.911   9.916 -1.7117 -0.7760  0.7273
   90SAPS   H7S 8727   0.205   4.969  10.060  0.2175  1.4345  0.4420
   90SAPS   C28 8728   0.383   4.861  10.101 -0.6068  0.4567  0.9839
   90SAPS   H8R 8729   0.384   4.866  10.211  2.0093  0.0168  1.0255
   90SAPS   C29 8730   0.444   4.757  10.046 -0.2963 -0.5010 -0.4221
   90SAPS   H9R 8731   0.481   4.683  10.119 -0.3327 -2.0734 -1.9798
   90SAPS  C210 8732   0.443   4.717   9.901 -0.5294 -0.2033 -0.0671
   90SAPS  H10R 8733   0.339   4.702   9.864 -1.5949  1.8037  1.9830
   90SAPS  H10S 8734   0.504   4.626   9.886  2.0271  1.6833 -1.5083
   90SAPS  C211 8735   0.510   4.830   9.818 -0.3863  0.6719 -0.3315
   90SAPS  H11R 8736   0.561   4.908   9.877  0.5567  1.2856 -1.9197
   90SAPS  C212 8737   0.500   4.832   9.686  0.1970 -0.2292 -0.0595
   90SAPS  H12R 8738   0.555   4.917   9.643  1.7945 -0.2812  1.7783
   90SAPS  C213 8739   0.440   4.732   9.589  0.1475 -0.1409  0.4007
   90SAPS  H13R 8740   0.359   4.781   9.530  1.6702  1.1479 -0.6669
   90SAPS  H13S 8741   0.373   4.662   9.644  0.1075 -0.0697  0.4403
   90SAPS  C214 8742   0.536   4.653   9.507  0.0111 -0.6018 -0.1802
   90SAPS  H14R 8743   0.604   4.597   9.572 -0.7578 -1.7673 -0.3484
   90SAPS  C215 8744   0.543   4.636   9.377 -0.9554  0.2018  0.2964
   90SAPS  H15R 8745   0.616   4.569   9.329 -1.2483  0.9950 -1.2988
   90SAPS  C216 8746   0.441   4.695   9.275 -0.3537  0.1969 -0.1853
   90SAPS  H16R 8747   0.471   4.799   9.252  0.3362 -0.2473 -1.3749
   90SAPS  H16S 8748   0.337   4.686   9.310 -0.3093  3.0845  0.8269
   90SAPS  C217 8749   0.464   4.615   9.137 -0.4838  0.3220 -0.3636
   90SAPS  H17R 8750   0.469   4.505   9.147  1.8509  0.4463  0.3004
   90SAPS  H17S 8751   0.570   4.644   9.120 -0.7567  0.7828 -1.2986
   90SAPS  C218 8752   0.378   4.661   9.023  0.5262 -0.4537 -0.1308
   90SAPS  H18R 8753   0.408   4.764   8.995 -2.5956  0.7762  0.8696
   90SAPS  H18S 8754   0.276   4.675   9.065  1.4026  2.5163  1.1575
   90SAPS  C219 8755   0.369   4.573   8.896  1.1036  0.5344  0.9322
   90SAPS  H19R 8756   0.304   4.486   8.922  1.5279 -0.0307  0.1550
   90SAPS  H19S 8757   0.474   4.539   8.880  1.6447  2.7936 -0.6627
   90SAPS  C220 8758   0.310   4.644   8.780 -0.3030  0.6621 -0.0881
   90SAPS  H20R 8759   0.203   4.673   8.786 -0.3910  0.2813  0.1908
   90SAPS  H20S 8760   0.328   4.581   8.690 -1.5622  0.9159 -0.5268
   90SAPS  H20T 8761   0.370   4.738   8.771  2.9121 -1.2720  0.4038
   90SAPS   C33 8762  -0.104   6.053  10.024 -0.0513 -0.9162  0.3184
   90SAPS   H3X 8763  -0.039   6.140  10.045 -1.8989  0.0365  2.2414
   90SAPS   H3Y 8764  -0.195   6.065  10.086  0.1828 -0.8728  0.6528
   90SAPS   C34 8765  -0.139   6.036   9.877  0.0976 -0.8579 -0.1188
   90SAPS   H4X 8766  -0.225   6.098   9.843  2.8078  3.2178  0.1719
   90SAPS   H4Y 8767  -0.166   5.928   9.879 -1.2721 -0.5498 -0.7059
   90SAPS   C35 8768  -0.023   6.047   9.780  0.0669 -0.3277 -0.0064
   90SAPS   H5X 8769   0.063   5.991   9.822  1.1720  1.9073  0.7788
   90SAPS   H5Y 8770   0.004   6.155   9.771 -0.8844  0.0512  1.4680
   90SAPS   C36 8771  -0.063   5.998   9.639  0.2209 -0.2560  0.5969
   90SAPS   H6X 8772  -0.111   5.898   9.634  1.5432 -0.8424 -0.4621
   90SAPS   H6Y 8773   0.031   5.995   9.581  0.1062 -3.3282  0.5114
   90SAPS   C37 8774  -0.157   6.104   9.564  0.0787 -0.2902  0.8816
   90SAPS   H7X 8775  -0.104   6.201   9.575  0.0951 -0.2005  0.0788
   90SAPS   H7Y 8776  -0.258   6.116   9.608 -0.9704 -0.2657 -1.4384
   90SAPS   C38 8777  -0.166   6.044   9.420  0.1492 -0.2110  0.3923
   90SAPS   H8X 8778  -0.231   6.109   9.358  3.2229  2.4736 -0.1548
   90SAPS   H8Y 8779  -0.214   5.944   9.414  0.7921 -0.4847 -0.2929
   90SAPS   C39 8780  -0.036   6.051   9.335 -0.2736  0.1366  0.4248
   90SAPS   H9X 8781   0.033   5.966   9.357 -0.0380  0.1868 -0.1035
   90SAPS   H9Y 8782   0.018   6.146   9.353  0.6201 -0.1176 -0.8333
   90SAPS  C310 8783  -0.067   6.038   9.184  0.1099  0.5886  0.1411
   90SAPS  H10X 8784  -0.094   6.135   9.138 -0.2265 -0.1355 -1.2141
   90SAPS  H10Y 8785  -0.139   5.956   9.165  1.5242 -0.4313 -0.8911
   90SAPS  C311 8786   0.050   5.976   9.100 -0.0090 -0.5881 -0.2300
   90SAPS  H11X 8787   0.086   5.879   9.141 -2.7773 -0.6916  2.1085
   90SAPS  H11Y 8788   0.136   6.046   9.094 -0.2545 -0.1217  1.4692
   90SAPS  C312 8789   0.006   5.940   8.947  0.1096 -0.3188 -0.5920
   90SAPS  H12X 8790  -0.007   6.025   8.876  2.5825  0.4110 -0.2170
   90SAPS  H12Y 8791  -0.094   5.894   8.958  0.2846  0.0613  3.0622
   90SAPS  C313 8792   0.092   5.839   8.874 -0.4926 -0.2382 -0.8246
   90SAPS  H13X 8793   0.114   5.752   8.940  0.3875  0.2892 -0.4015
   90SAPS  H13Y 8794   0.188   5.885   8.841 -1.3499  0.7418 -1.9662
   90SAPS  C314 8795   0.026   5.788   8.745 -0.7675  0.1253 -0.2167
   90SAPS  H14X 8796   0.025   5.876   8.677  0.9064  0.1870 -0.1830
   90SAPS  H14Y 8797  -0.080   5.762   8.766 -0.4147  0.5690  2.3754
   90SAPS  C315 8798   0.107   5.671   8.694  0.6432 -0.7568 -0.1510
   90SAPS  H15X 8799   0.151   5.614   8.779 -0.5689 -3.4211 -1.2626
   90SAPS  H15Y 8800   0.195   5.713   8.642 -1.6019  2.0836 -1.8091
   90SAPS  C316 8801   0.029   5.581   8.600 -0.0707 -0.0474  0.3979
   90SAPS  H16X 8802  -0.008   5.646   8.518  0.2372  1.7850  1.6612
   90SAPS  H16Y 8803  -0.053   5.537   8.660  0.7974  1.1513  2.5388
   90SAPS  C317 8804   0.115   5.466   8.533 -0.4610 -0.8268  0.1011
   90SAPS  H17X 8805   0.042   5.386   8.510 -0.9923 -0.0835 -0.8577
   90SAPS  H17Y 8806   0.193   5.430   8.604 -0.2690 -1.7063 -0.5465
   90SAPS  C318 8807   0.169   5.517   8.403  0.8606  0.1916 -0.1138
   90SAPS  H18X 8808   0.204   5.425   8.350  1.2593  1.3310 -1.8664
   90SAPS  H18Y 8809   0.256   5.586   8.407  1.0935 -0.1675  1.4486
   90SAPS  H18Z 8810   0.081   5.553   8.347  0.5307 -1.3668 -0.6420
   91SAPS     N 8811   4.536   4.098   5.973 -0.5809  0.0038  0.2395
   91SAPS   HN1 8812   4.561   4.019   6.037 -0.1745  0.1758  0.2914
   91SAPS   HN2 8813   4.515   4.186   6.025  2.5815  0.8768  0.1201
   91SAPS   HN3 8814   4.452   4.070   5.919 -0.6685  0.7242 -0.0056
   91SAPS   C12 8815   4.646   4.128   5.872 -0.1778  0.4154 -0.3464
   91SAPS  H12A 8816   4.648   4.040   5.810 -2.3697  1.5429 -2.1002
   91SAPS   C13 8817   4.623   4.245   5.773 -0.8000 -0.3409  0.3231
   91SAPS  O13A 8818   4.523   4.317   5.782 -0.5548 -0.0109 -0.0477
   91SAPS  O13B 8819   4.706   4.269   5.684 -0.9043 -0.0074 -0.1505
   91SAPS   C11 8820   4.777   4.156   5.951 -0.6295 -0.0551 -0.2453
   91SAPS  H11A 8821   4.763   4.235   6.028 -1.4377  0.3426 -0.7947
   91SAPS  H11B 8822   4.848   4.208   5.883  0.3378  0.3228  1.0331
   91SAPS     P 8823   4.814   3.974   6.130 -0.4028  0.0267  0.2414
   91SAPS   O13 8824   4.665   3.950   6.142 -0.8817  0.4379  0.1111
   91SAPS   O14 8825   4.898   3.852   6.146 -0.3925 -0.5004 -0.1166
   91SAPS   O12 8826   4.846   4.039   5.994 -0.2982  0.1607 -0.2688
   91SAPS   O11 8827   4.860   4.086   6.225  0.0878  0.0873  0.3936
   91SAPS    C1 8828   4.967   4.173   6.231 -0.2163 -0.0698 -0.5990
   91SAPS    HA 8829   5.047   4.159   6.156 -1.5586  0.5168 -2.1686
   91SAPS    HB 8830   4.942   4.281   6.230  0.3539  0.0970  1.0442
   91SAPS    C2 8831   5.039   4.151   6.369 -0.6553 -0.2508 -0.0366
   91SAPS    HS 8832   5.126   4.086   6.344  0.0038  0.3153  0.7284
   91SAPS   O21 8833   4.956   4.085   6.460  0.2749 -0.0139  0.2500
   91SAPS   C21 8834   5.004   3.981   6.526  0.1108 -0.0603 -0.0600
   91SAPS   O22 8835   5.102   3.916   6.492 -0.4805  0.1899 -0.0535
   91SAPS   C22 8836   4.912   3.947   6.640 -0.2132  0.2256 -0.3126
   91SAPS   H2R 8837   4.882   4.046   6.682  0.3000  0.0463  0.4895
   91SAPS   H2S 8838   4.819   3.903   6.599 -1.2539  1.5375  0.5786
   91SAPS    C3 8839   5.116   4.277   6.430 -0.3243 -0.0811 -0.3941
   91SAPS    HX 8840   5.034   4.350   6.442 -0.7652 -0.5959 -0.2873
   91SAPS    HY 8841   5.177   4.320   6.348  1.3643  0.3502  1.0420
   91SAPS   O31 8842   5.206   4.243   6.540  0.3072 -0.1644  0.0841
   91SAPS   C31 8843   5.149   4.265   6.659 -0.3725  0.0603 -0.1891
   91SAPS   O32 8844   5.032   4.289   6.678  0.3507  0.1371  0.1858
   91SAPS   C32 8845   5.245   4.254   6.771  0.4842  0.5059 -0.5115
   91SAPS   H2X 8846   5.337   4.312   6.751  2.3574 -1.3799  2.3072
   91SAPS   H2Y 8847   5.272   4.146   6.779  0.2465  0.3662 -1.5213
   91SAPS   C23 8848   4.987   3.857   6.742  0.4544  0.0809 -0.7051
   91SAPS   H3R 8849   5.086   3.903   6.764  0.1749  0.4948 -0.2883
   91SAPS   H3S 8850   4.999   3.755   6.700  2.8965  0.2314 -0.3945
   91SAPS   C24 8851   4.909   3.856   6.879 -0.3421 -0.3727 -0.1839
   91SAPS   H4R 8852   4.801   3.855   6.855 -0.3291 -0.8363 -0.2403
   91SAPS   H4S 8853   4.930   3.948   6.937 -0.9089 -0.1792 -0.2881
   91SAPS   C25 8854   4.952   3.728   6.958 -0.9776 -1.0124  1.1398
   91SAPS   H5R 8855   4.972   3.639   6.896  0.6852  0.9527 -1.2187
   91SAPS   C26 8856   4.956   3.719   7.092 -0.6567  0.1931  0.6777
   91SAPS   H6R 8857   4.991   3.622   7.131 -0.3374  0.7933  1.9052
   91SAPS   C27 8858   4.930   3.830   7.189 -0.1562  0.1311 -0.0685
   91SAPS   H7R 8859   4.861   3.782   7.262 -0.0834  2.4311  1.5553
   91SAPS   H7S 8860   4.873   3.911   7.137  0.1346 -0.3917 -1.2177
   91SAPS   C28 8861   5.061   3.878   7.246 -0.0433 -0.0365 -0.1663
   91SAPS   H8R 8862   5.140   3.899   7.173  0.3848 -0.2504  0.2368
   91SAPS   C29 8863   5.086   3.902   7.371 -0.1434  0.3496 -0.7801
   91SAPS   H9R 8864   5.189   3.923   7.404  0.2418 -2.3175 -0.1871
   91SAPS  C210 8865   4.988   3.886   7.484  0.3183  0.1827  0.5201
   91SAPS  H10R 8866   5.017   3.794   7.540 -0.6526  1.0227  2.4372
   91SAPS  H10S 8867   4.881   3.880   7.456 -0.4024  1.6794  2.8381
   91SAPS  C211 8868   5.005   4.010   7.567  0.5706 -0.0067  0.0189
   91SAPS  H11R 8869   5.006   4.103   7.510 -0.5648 -0.8783 -1.4641
   91SAPS  C212 8870   5.013   4.017   7.703  0.0321 -0.1968  1.0364
   91SAPS  H12R 8871   5.034   4.106   7.764  0.8393  0.6417 -0.4189
   91SAPS  C213 8872   5.013   3.900   7.792 -1.1267 -0.2120  0.1496
   91SAPS  H13R 8873   4.942   3.821   7.760 -2.5920  0.9954  0.3607
   91SAPS  H13S 8874   4.976   3.924   7.894  0.7063  1.7915  0.3652
   91SAPS  C214 8875   5.149   3.831   7.799  0.4415  0.0272 -0.3445
   91SAPS  H14R 8876   5.180   3.787   7.703 -0.3914 -1.9086  0.2472
   91SAPS  C215 8877   5.227   3.821   7.908 -0.2198  0.0878 -0.0133
   91SAPS  H15R 8878   5.326   3.774   7.901 -0.3283 -0.2529  0.6790
   91SAPS  C216 8879   5.193   3.877   8.047  0.1920 -0.4604 -0.7108
   91SAPS  H16R 8880   5.137   3.973   8.049  0.2577 -0.4405  0.4811
   91SAPS  H16S 8881   5.290   3.908   8.092  1.1614 -1.6334 -1.9450
   91SAPS  C217 8882   5.141   3.770   8.146  0.1413  0.7335 -0.2794
   91SAPS  H17R 8883   5.210   3.684   8.153  0.5622  1.0819 -0.1498
   91SAPS  H17S 8884   5.038   3.733   8.124 -1.0902  3.1845  1.1730
   91SAPS  C218 8885   5.143   3.815   8.295  0.4433  0.2130  0.9948
   91SAPS  H18R 8886   5.053   3.873   8.326  0.8115  1.2427  0.1782
   91SAPS  H18S 8887   5.221   3.894   8.306 -0.1605  0.8770  0.5094
   91SAPS  C219 8888   5.178   3.703   8.387 -0.0383 -0.1687 -0.6004
   91SAPS  H19R 8889   5.174   3.751   8.487  0.5378 -1.3867  0.0202
   91SAPS  H19S 8890   5.282   3.666   8.373 -0.3517 -1.2616 -0.0628
   91SAPS  C220 8891   5.076   3.593   8.373  0.2477  0.0121  0.7097
   91SAPS  H20R 8892   5.083   3.552   8.270 -0.2374 -1.2513  1.1659
   91SAPS  H20S 8893   4.969   3.617   8.389 -0.1037 -1.4442  0.6474
   91SAPS  H20T 8894   5.111   3.510   8.438 -0.1194 -1.0433 -0.4316
   91SAPS   C33 8895   5.192   4.320   6.902 -0.2902  0.1987 -0.0888
   91SAPS   H3X 8896   5.082   4.307   6.917 -0.5237  0.2745 -1.6381
   91SAPS   H3Y 8897   5.204   4.430   6.890 -1.4190  0.4420  0.8012
   91SAPS   C34 8898   5.260   4.274   7.028 -0.5149 -0.5876 -0.0591
   91SAPS   H4X 8899   5.371   4.271   7.016 -0.6320  0.2774 -1.6070
   91SAPS   H4Y 8900   5.238   4.169   7.058  2.1332 -1.4197 -0.8042
   91SAPS   C35 8901   5.201   4.344   7.153  0.4814  0.2442 -0.4530
   91SAPS   H5X 8902   5.093   4.321   7.164  0.7590 -1.2767 -0.8620
   91SAPS   H5Y 8903   5.215   4.453   7.134  1.6452  0.0880 -0.5428
   91SAPS   C36 8904   5.273   4.302   7.282 -0.7642  0.2448  0.3091
   91SAPS   H6X 8905   5.380   4.332   7.275  0.1873 -2.7717  1.3772
   91SAPS   H6Y 8906   5.277   4.191   7.284  1.3639  0.3150  1.5719
   91SAPS   C37 8907   5.209   4.346   7.411  0.8000  0.2840 -0.8127
   91SAPS   H7X 8908   5.099   4.326   7.415  0.4252  2.4163  0.0547
   91SAPS   H7Y 8909   5.210   4.456   7.427 -3.1576  0.4870 -1.4079
   91SAPS   C38 8910   5.286   4.273   7.529 -0.8945  0.1858 -0.6150
   91SAPS   H8X 8911   5.395   4.267   7.512  0.2170  0.4335  5.3769
   91SAPS   H8Y 8912   5.252   4.167   7.523 -0.2157  0.0106 -1.3223
   91SAPS   C39 8913   5.251   4.322   7.671  0.4927 -0.2498  0.5881
   91SAPS   H9X 8914   5.142   4.304   7.685 -0.7779  3.2457 -3.5511
   91SAPS   H9Y 8915   5.262   4.433   7.677 -2.5646  0.0741  1.1466
   91SAPS  C310 8916   5.326   4.244   7.784 -0.1979  0.7679 -0.2388
   91SAPS  H10X 8917   5.434   4.261   7.769 -0.2361  1.7481  0.5692
   91SAPS  H10Y 8918   5.297   4.136   7.785  1.8635  0.1976  0.4110
   91SAPS  C311 8919   5.298   4.302   7.927  0.4586  0.1567 -0.1756
   91SAPS  H11X 8920   5.188   4.305   7.943  0.7451  0.0385  1.8730
   91SAPS  H11Y 8921   5.350   4.401   7.933  0.7069 -0.0180  0.5542
   91SAPS  C312 8922   5.356   4.218   8.042 -0.1885 -0.5338 -0.6698
   91SAPS  H12X 8923   5.421   4.142   7.994  3.1281  1.7768 -0.0026
   91SAPS  H12Y 8924   5.266   4.175   8.089  0.5786 -0.7617  0.6002
   91SAPS  C313 8925   5.428   4.307   8.155 -0.3570  0.6024 -0.3671
   91SAPS  H13X 8926   5.366   4.398   8.169 -0.4604  0.2572  1.5640
   91SAPS  H13Y 8927   5.533   4.341   8.137 -0.9737  3.6170  1.4296
   91SAPS  C314 8928   5.437   4.226   8.288  0.2210  0.7024 -0.7680
   91SAPS  H14X 8929   5.339   4.177   8.307 -0.3425  1.3349 -1.9961
   91SAPS  H14Y 8930   5.454   4.298   8.371 -1.6069 -0.7411  0.9118
   91SAPS  C315 8931   5.547   4.118   8.291  0.4286  1.0180 -0.1716
   91SAPS  H15X 8932   5.645   4.169   8.277  0.5142  0.5564 -1.2486
   91SAPS  H15Y 8933   5.526   4.036   8.220 -4.6984  0.3091  1.9011
   91SAPS  C316 8934   5.557   4.046   8.428  0.7075  0.4940 -0.4797
   91SAPS  H16X 8935   5.576   4.115   8.513  0.5081 -1.3400  1.0834
   91SAPS  H16Y 8936   5.647   3.981   8.419 -0.4577 -1.2048 -0.0122
   91SAPS  C317 8937   5.430   3.965   8.455 -0.3663 -0.3900 -0.7388
   91SAPS  H17X 8938   5.426   3.902   8.364 -1.0379  0.4149 -1.2705
   91SAPS  H17Y 8939   5.343   4.034   8.461  0.3177  0.4863 -0.6777
   91SAPS  C318 8940   5.435   3.879   8.589 -0.1120 -0.1508  0.3847
   91SAPS  H18X 8941   5.539   3.842   8.594 -0.9707 -2.5716  1.4083
   91SAPS  H18Y 8942   5.363   3.795   8.576 -1.6008  1.4222 -1.9016
   91SAPS  H18Z 8943   5.416   3.942   8.679 -1.1646  3.1660 -2.0576
   92SAPS     N 8944   4.424   1.393   6.396 -0.2967  0.6873 -0.4422
   92SAPS   HN1 8945   4.412   1.492   6.366 -0.4239  0.0674 -2.5163
   92SAPS   HN2 8946   4.359   1.331   6.344  1.7645 -2.2805  0.3952
   92SAPS   HN3 8947   4.387   1.389   6.493  1.7275 -0.0113  0.3432
   92SAPS   C12 8948   4.568   1.351   6.392 -0.2462  0.0200 -0.3743
   92SAPS  H12A 8949   4.586   1.287   6.477 -1.1388 -0.5956 -0.6495
   92SAPS   C13 8950   4.617   1.280   6.260 -0.7765 -0.2601  0.3095
   92SAPS  O13A 8951   4.546   1.245   6.161  0.2902  0.0053 -0.6329
   92SAPS  O13B 8952   4.741   1.253   6.261 -0.0378  0.8560  0.3707
   92SAPS   C11 8953   4.657   1.486   6.422 -0.2722 -0.0796 -0.1287
   92SAPS  H11A 8954   4.630   1.550   6.336 -2.5497 -0.9611 -0.0911
   92SAPS  H11B 8955   4.763   1.452   6.421 -0.4421 -0.6696  0.9034
   92SAPS     P 8956   4.611   1.699   6.568 -0.6002 -0.2785  0.2763
   92SAPS   O13 8957   4.671   1.765   6.450 -0.2179  0.1028 -0.2994
   92SAPS   O14 8958   4.470   1.728   6.592  0.5295 -0.4151 -0.1134
   92SAPS   O12 8959   4.627   1.543   6.550 -0.2543 -0.3175  0.1948
   92SAPS   O11 8960   4.703   1.747   6.689  0.0934 -0.2013  0.2642
   92SAPS    C1 8961   4.826   1.681   6.714  0.1785  0.8309 -0.8926
   92SAPS    HA 8962   4.868   1.630   6.624  1.2388 -0.1924  0.1659
   92SAPS    HB 8963   4.897   1.755   6.756  0.3147  0.4523 -0.4599
   92SAPS    C2 8964   4.822   1.579   6.822  0.9694 -0.2528 -0.3547
   92SAPS    HS 8965   4.753   1.499   6.789 -0.6458  1.4400 -1.1408
   92SAPS   O21 8966   4.794   1.638   6.952 -0.1195  0.0839 -0.0889
   92SAPS   C21 8967   4.669   1.651   6.994  0.2269 -1.2457  0.2211
   92SAPS   O22 8968   4.581   1.578   6.954 -0.7418 -0.0206  0.0826
   92SAPS   C22 8969   4.647   1.755   7.105 -0.3661  0.0605  1.2588
   92SAPS   H2R 8970   4.678   1.715   7.203  1.3488 -0.3283  0.5810
   92SAPS   H2S 8971   4.711   1.844   7.084  0.5287 -0.6225  1.0361
   92SAPS    C3 8972   4.958   1.497   6.838  0.0741  0.0041  0.0200
   92SAPS    HX 8973   5.046   1.563   6.855  1.3939 -1.0582 -2.4359
   92SAPS    HY 8974   4.970   1.445   6.741  0.2681  1.1502 -0.5819
   92SAPS   O31 8975   4.944   1.412   6.954  0.6056 -0.0323  0.2328
   92SAPS   C31 8976   4.923   1.284   6.923 -0.5986  0.3694 -0.3915
   92SAPS   O32 8977   4.942   1.230   6.817 -0.6118  0.6903 -0.5759
   92SAPS   C32 8978   4.861   1.209   7.036  0.5615  0.2919  0.3976
   92SAPS   H2X 8979   4.851   1.103   7.007  0.9472  0.4415 -0.2843
   92SAPS   H2Y 8980   4.763   1.255   7.063  1.0140  0.3572  2.0066
   92SAPS   C23 8981   4.497   1.794   7.119  0.1179  0.4496 -0.5898
   92SAPS   H3R 8982   4.429   1.710   7.144 -0.9179  1.3704 -0.2419
   92SAPS   H3S 8983   4.452   1.813   7.019 -1.3151 -0.9467 -0.2222
   92SAPS   C24 8984   4.460   1.909   7.220 -0.8134  0.0905 -0.8499
   92SAPS   H4R 8985   4.477   1.879   7.325 -2.9691  0.1222 -0.4640
   92SAPS   H4S 8986   4.350   1.915   7.210 -0.9295 -0.2401  0.2367
   92SAPS   C25 8987   4.529   2.036   7.180  0.2142  0.1283  0.2437
   92SAPS   H5R 8988   4.477   2.099   7.107  1.4392  0.8989  0.0158
   92SAPS   C26 8989   4.642   2.092   7.242 -0.0726  0.3597  0.0159
   92SAPS   H6R 8990   4.682   2.185   7.198 -1.0215 -0.0729 -1.8306
   92SAPS   C27 8991   4.717   2.033   7.358 -0.7930 -0.0516 -0.4351
   92SAPS   H7R 8992   4.817   2.077   7.373 -1.0501  0.2237  0.5159
   92SAPS   H7S 8993   4.739   1.926   7.336 -0.9803  0.3254 -2.5773
   92SAPS   C28 8994   4.645   2.032   7.492  0.5992 -0.4181 -1.0917
   92SAPS   H8R 8995   4.542   2.072   7.490 -0.1064 -1.9398  1.3926
   92SAPS   C29 8996   4.703   2.025   7.618  0.3393 -0.3603  0.0475
   92SAPS   H9R 8997   4.635   2.046   7.703  0.9374 -0.7061  0.6151
   92SAPS  C210 8998   4.849   1.988   7.655  0.8192 -0.1042  0.0095
   92SAPS  H10R 8999   4.910   1.950   7.569 -1.4351  0.7255 -1.9924
   92SAPS  H10S 9000   4.851   1.902   7.726  0.9779 -0.5363 -0.5137
   92SAPS  C211 9001   4.909   2.111   7.720 -0.4974 -0.2045  0.1701
   92SAPS  H11R 9002   4.921   2.199   7.655 -0.2713 -0.2021  0.2137
   92SAPS  C212 9003   4.944   2.110   7.849  0.5106 -0.1596  0.2928
   92SAPS  H12R 9004   4.982   2.201   7.898 -0.9271  0.6234 -0.0145
   92SAPS  C213 9005   4.939   1.991   7.945  0.2800 -0.4502  1.0927
   92SAPS  H13R 9006   4.960   1.893   7.897 -1.1506  0.6074 -1.8568
   92SAPS  H13S 9007   4.835   1.982   7.983  0.6178 -4.6663  1.2979
   92SAPS  C214 9008   5.046   2.002   8.050 -0.3225 -0.4685  0.5773
   92SAPS  H14R 9009   5.148   1.991   8.008 -0.9077 -3.1344 -0.2818
   92SAPS  C215 9010   5.022   2.013   8.183 -0.3179 -0.8665  0.5295
   92SAPS  H15R 9011   5.110   2.017   8.248 -1.2061  0.2107  1.6935
   92SAPS  C216 9012   4.899   2.011   8.257  0.3632 -0.7816  0.2501
   92SAPS  H16R 9013   4.804   1.990   8.202  1.0144 -1.8649 -0.4694
   92SAPS  H16S 9014   4.878   2.111   8.301  1.0961 -0.0164 -1.1079
   92SAPS  C217 9015   4.913   1.927   8.384  0.2836 -0.0926  0.4726
   92SAPS  H17R 9016   4.986   1.971   8.456  1.8755 -1.4080 -0.3106
   92SAPS  H17S 9017   4.951   1.825   8.364 -0.5083 -0.2543 -0.2309
   92SAPS  C218 9018   4.777   1.921   8.458 -0.5423 -0.6571  0.1569
   92SAPS  H18R 9019   4.688   1.903   8.394 -0.2093 -2.4313  0.1704
   92SAPS  H18S 9020   4.756   2.026   8.489 -1.4845 -0.6553 -0.4647
   92SAPS  C219 9021   4.770   1.853   8.595 -0.1419  1.0855  0.5961
   92SAPS  H19R 9022   4.686   1.894   8.656 -0.1022  2.3033 -0.1541
   92SAPS  H19S 9023   4.860   1.881   8.653  1.1972  1.4473 -1.5804
   92SAPS  C220 9024   4.756   1.703   8.588 -0.5825  0.0898 -0.1192
   92SAPS  H20R 9025   4.653   1.681   8.553 -0.8890  2.2660 -0.6504
   92SAPS  H20S 9026   4.785   1.650   8.682  0.1015  1.0940  0.2511
   92SAPS  H20T 9027   4.827   1.661   8.513 -0.0776  3.0373 -1.3324
   92SAPS   C33 9028   4.944   1.228   7.167 -0.4748  0.0405  0.0242
   92SAPS   H3X 9029   4.950   1.336   7.193 -1.9980 -0.0380  0.8144
   92SAPS   H3Y 9030   5.045   1.186   7.156 -0.7832 -0.0559 -2.5735
   92SAPS   C34 9031   4.882   1.163   7.293  0.4214 -0.2698  0.0850
   92SAPS   H4X 9032   4.875   1.053   7.281  1.8106 -0.1868 -1.8291
   92SAPS   H4Y 9033   4.778   1.198   7.307  0.5698  0.3036 -0.2237
   92SAPS   C35 9034   4.959   1.202   7.428  0.1967  0.2609  0.2997
   92SAPS   H5X 9035   4.932   1.305   7.463  1.9104  1.4069 -1.6701
   92SAPS   H5Y 9036   5.070   1.207   7.420 -0.0462  1.1122 -4.0973
   92SAPS   C36 9037   4.917   1.105   7.542  0.1127 -0.1848 -0.1648
   92SAPS   H6X 9038   4.941   0.997   7.534  2.2430  0.2020  0.7934
   92SAPS   H6Y 9039   4.806   1.104   7.553  0.2399 -2.1350  1.1584
   92SAPS   C37 9040   4.977   1.167   7.676  0.1475  0.6379  0.4740
   92SAPS   H7X 9041   4.939   1.272   7.680 -0.9721  0.1688  3.6311
   92SAPS   H7Y 9042   5.088   1.156   7.678 -0.3503 -5.4522  2.2143
   92SAPS   C38 9043   4.918   1.109   7.805  0.0634  0.2144  0.1633
   92SAPS   H8X 9044   4.954   1.004   7.811 -0.1104  0.1633  0.3183
   92SAPS   H8Y 9045   4.807   1.111   7.805  0.0169 -1.3087 -1.2890
   92SAPS   C39 9046   4.976   1.184   7.929 -0.6807  0.0400 -0.3771
   92SAPS   H9X 9047   4.941   1.290   7.929 -1.5300 -0.2355  1.0782
   92SAPS   H9Y 9048   5.086   1.172   7.936 -0.7514  0.3015  1.3144
   92SAPS  C310 9049   4.935   1.121   8.066  0.7616  0.1121  0.0694
   92SAPS  H10X 9050   4.941   1.012   8.044 -0.9361  0.1420 -0.5822
   92SAPS  H10Y 9051   4.826   1.143   8.073  0.5936  0.2408 -2.5594
   92SAPS  C311 9052   5.016   1.164   8.194  0.8666 -0.2122  0.8160
   92SAPS  H11X 9053   5.005   1.275   8.197 -1.8472 -0.3491 -2.0080
   92SAPS  H11Y 9054   5.119   1.134   8.168 -0.1144 -2.2920 -0.8667
   92SAPS  C312 9055   4.970   1.088   8.319  0.1861  0.6018  0.0270
   92SAPS  H12X 9056   4.966   0.980   8.295  0.1559  0.7380 -0.5898
   92SAPS  H12Y 9057   4.866   1.121   8.337  0.7133  1.9570  0.6820
   92SAPS  C313 9058   5.062   1.099   8.441 -0.2821  0.1186  0.0794
   92SAPS  H13X 9059   5.059   1.199   8.489 -0.8618  1.3210 -2.3845
   92SAPS  H13Y 9060   5.166   1.099   8.402  0.3423  0.0659  1.7056
   92SAPS  C314 9061   5.038   0.986   8.544 -0.3701 -0.8402  0.0258
   92SAPS  H14X 9062   5.075   0.889   8.504 -1.0036 -1.4348  0.8623
   92SAPS  H14Y 9063   4.930   0.988   8.573 -0.0696 -1.0080  1.1633
   92SAPS  C315 9064   5.118   1.002   8.675  0.2604  0.1834 -0.3810
   92SAPS  H15X 9065   5.118   1.113   8.685 -1.0563  0.1292  0.3993
   92SAPS  H15Y 9066   5.220   0.968   8.649  0.2161 -0.3165  0.0772
   92SAPS  C316 9067   5.071   0.920   8.800 -0.1915  0.3285  0.1812
   92SAPS  H16X 9068   5.036   0.820   8.769 -0.2637  0.5100 -0.3323
   92SAPS  H16Y 9069   4.982   0.973   8.842  0.8695  3.0267 -0.8519
   92SAPS  C317 9070   5.174   0.917   8.914 -0.7823 -0.3027 -0.5329
   92SAPS  H17X 9071   5.275   0.910   8.867  0.1586  1.8624  1.1050
   92SAPS  H17Y 9072   5.161   0.821   8.969  2.1798  0.3143  1.3521
   92SAPS  C318 9073   5.167   1.023   9.017 -0.4429 -0.0247 -0.0494
   92SAPS  H18X 9074   5.064   1.024   9.058 -1.2383 -0.9257 -1.9447
   92SAPS  H18Y 9075   5.199   1.114   8.960  1.0064 -0.5283 -0.0616
   92SAPS  H18Z 9076   5.232   1.011   9.106 -2.7562  1.2126  1.8706
   93SAPS     N 9077   5.233   1.367   6.483 -0.3293 -0.1559 -0.3297
   93SAPS   HN1 9078   5.214   1.469   6.479 -0.3042 -0.0192  2.0561
   93SAPS   HN2 9079   5.151   1.304   6.481  0.1880 -0.8841  0.7518
   93SAPS   HN3 9080   5.291   1.360   6.569  1.4808 -0.2805 -1.5343
   93SAPS   C12 9081   5.332   1.326   6.377  0.1293  0.0064 -0.4201
   93SAPS  H12A 9082   5.298   1.381   6.291 -1.6099  0.0357  0.2630
   93SAPS   C13 9083   5.475   1.361   6.405  0.5985 -0.4514 -0.3387
   93SAPS  O13A 9084   5.500   1.439   6.509  0.8065 -0.5246 -0.1819
   93SAPS  O13B 9085   5.555   1.346   6.312  0.4264  0.2737 -0.1411
   93SAPS   C11 9086   5.324   1.166   6.338  0.0560 -0.2890  0.5347
   93SAPS  H11A 9087   5.390   1.150   6.250 -1.0925  0.8256 -0.5533
   93SAPS  H11B 9088   5.218   1.139   6.314  0.2722 -1.3411  0.7329
   93SAPS     P 9089   5.372   0.930   6.465 -0.2590 -0.2605 -0.1199
   93SAPS   O13 9090   5.238   0.865   6.443 -0.6193  0.2555  0.1061
   93SAPS   O14 9091   5.479   0.890   6.375  0.0379  0.4629 -0.4128
   93SAPS   O12 9092   5.371   1.084   6.445 -0.1605 -0.0599  0.0717
   93SAPS   O11 9093   5.417   0.926   6.612 -0.0219 -0.2029 -0.5494
   93SAPS    C1 9094   5.341   0.910   6.726 -0.1394  0.1523 -0.4304
   93SAPS    HA 9095   5.260   0.837   6.707  0.6859 -0.9784  0.3003
   93SAPS    HB 9096   5.401   0.867   6.809  1.8627 -0.0342 -1.9284
   93SAPS    C2 9097   5.295   1.052   6.777  0.3352 -0.4419 -0.0209
   93SAPS    HS 9098   5.243   1.088   6.685  2.6615 -0.7769 -1.5107
   93SAPS   O21 9099   5.404   1.134   6.816 -0.2939 -0.0976  0.0505
   93SAPS   C21 9100   5.390   1.262   6.798  0.0956 -0.6734  0.6902
   93SAPS   O22 9101   5.296   1.318   6.746 -0.2744  0.0085 -0.2397
   93SAPS   C22 9102   5.520   1.330   6.833 -0.4228  0.0145 -0.4567
   93SAPS   H2R 9103   5.549   1.291   6.933 -0.4086  0.1186 -0.4206
   93SAPS   H2S 9104   5.603   1.313   6.762 -1.2087  1.5411 -1.7549
   93SAPS    C3 9105   5.192   1.041   6.888 -0.1065  0.2582 -0.5438
   93SAPS    HX 9106   5.093   1.023   6.839 -0.1164 -0.7886 -0.1431
   93SAPS    HY 9107   5.180   1.144   6.930 -2.3980  0.7318 -2.2211
   93SAPS   O31 9108   5.232   0.952   6.989 -0.0509 -0.5066 -0.7907
   93SAPS   C31 9109   5.138   0.910   7.072 -0.1190 -0.0557 -0.6143
   93SAPS   O32 9110   5.016   0.930   7.049  0.1484 -0.3002 -0.1214
   93SAPS   C32 9111   5.186   0.817   7.177  0.4340  0.0371 -0.2870
   93SAPS   H2X 9112   5.297   0.820   7.176  0.5469 -1.1187  2.8069
   93SAPS   H2Y 9113   5.153   0.717   7.144 -1.4996  0.9232 -1.1352
   93SAPS   C23 9114   5.499   1.490   6.854  0.2814  0.2602  0.0711
   93SAPS   H3R 9115   5.492   1.534   6.752  0.9697 -1.5183 -0.7563
   93SAPS   H3S 9116   5.592   1.540   6.886 -0.6047  0.3235  2.6947
   93SAPS   C24 9117   5.397   1.534   6.964 -0.2658 -0.3596  0.6231
   93SAPS   H4R 9118   5.299   1.485   6.950 -1.2314  1.9820 -1.0185
   93SAPS   H4S 9119   5.382   1.644   6.956  1.3519 -0.3557 -3.1149
   93SAPS   C25 9120   5.457   1.508   7.103  0.2740  0.0192  0.3685
   93SAPS   H5R 9121   5.534   1.579   7.137 -0.5685  0.8608  0.5389
   93SAPS   C26 9122   5.423   1.417   7.200 -0.0084  0.7174  0.8113
   93SAPS   H6R 9123   5.490   1.416   7.287  1.6783  0.0311 -0.4589
   93SAPS   C27 9124   5.315   1.316   7.186 -0.5610 -0.4492  0.3172
   93SAPS   H7R 9125   5.285   1.304   7.080  0.8689 -1.5369  0.0266
   93SAPS   H7S 9126   5.225   1.359   7.235 -1.5895 -1.2100 -0.8852
   93SAPS   C28 9127   5.346   1.177   7.235  0.1254 -0.7932 -1.0891
   93SAPS   H8R 9128   5.342   1.102   7.154  0.5974 -1.8424 -0.1478
   93SAPS   C29 9129   5.398   1.140   7.353  0.2559  0.7089  0.1046
   93SAPS   H9R 9130   5.410   1.032   7.367 -0.8286  0.5423 -0.2029
   93SAPS  C210 9131   5.423   1.226   7.482  0.0907 -0.1588  0.3148
   93SAPS  H10R 9132   5.354   1.193   7.563  0.1348 -0.6066  0.1732
   93SAPS  H10S 9133   5.416   1.336   7.465  0.1529  0.1559  2.1954
   93SAPS  C211 9134   5.553   1.191   7.542 -0.3123 -0.2871 -0.0568
   93SAPS  H11R 9135   5.632   1.173   7.467 -0.0812  1.4265 -0.2400
   93SAPS  C212 9136   5.589   1.183   7.674  0.1266  0.2648 -0.4522
   93SAPS  H12R 9137   5.694   1.161   7.699  0.4425  1.8084 -0.3970
   93SAPS  C213 9138   5.494   1.205   7.792  0.3802  0.3565  0.5161
   93SAPS  H13R 9139   5.516   1.129   7.870  0.8999  1.5624  1.5906
   93SAPS  H13S 9140   5.387   1.193   7.766  0.0509  1.5283  1.2745
   93SAPS  C214 9141   5.516   1.345   7.857  0.2053 -0.3761  0.6885
   93SAPS  H14R 9142   5.493   1.431   7.792 -2.2385 -0.5815  1.2181
   93SAPS  C215 9143   5.566   1.369   7.980 -0.0117  0.4745 -0.5542
   93SAPS  H15R 9144   5.575   1.474   8.013 -0.5296 -0.0165  1.2209
   93SAPS  C216 9145   5.612   1.264   8.084 -0.9790 -0.5851  0.0350
   93SAPS  H16R 9146   5.712   1.286   8.126 -0.9351  1.5863 -1.1367
   93SAPS  H16S 9147   5.629   1.165   8.036  0.8774 -0.7489  0.9769
   93SAPS  C217 9148   5.523   1.236   8.209 -0.3046  0.6623 -0.2538
   93SAPS  H17R 9149   5.561   1.142   8.255  0.4869  0.1867 -1.8364
   93SAPS  H17S 9150   5.426   1.214   8.159  0.1088  0.6804 -1.0861
   93SAPS  C218 9151   5.507   1.348   8.309  0.6070  0.1582  0.2519
   93SAPS  H18R 9152   5.443   1.321   8.395 -1.0998  2.9245 -0.0910
   93SAPS  H18S 9153   5.455   1.438   8.269  2.4061  1.3484  0.5208
   93SAPS  C219 9154   5.642   1.405   8.364 -0.4655 -0.2080  0.0390
   93SAPS  H19R 9155   5.708   1.430   8.278 -0.5958 -0.2765 -0.0825
   93SAPS  H19S 9156   5.688   1.329   8.430  1.0054 -0.0797 -0.8134
   93SAPS  C220 9157   5.610   1.530   8.453  0.4735  0.9345  0.5617
   93SAPS  H20R 9158   5.695   1.554   8.520  0.6493  0.6968  0.4220
   93SAPS  H20S 9159   5.525   1.509   8.522 -0.4148 -1.6725 -1.2251
   93SAPS  H20T 9160   5.591   1.621   8.392  0.3269  0.1300 -0.6198
   93SAPS   C33 9161   5.135   0.855   7.319  0.1896  0.2237 -0.4484
   93SAPS   H3X 9162   5.040   0.801   7.338  0.8973 -0.8080  0.1674
   93SAPS   H3Y 9163   5.126   0.966   7.324 -1.4534  0.3246 -3.9902
   93SAPS   C34 9164   5.218   0.807   7.435 -0.1283 -0.8091 -0.7868
   93SAPS   H4X 9165   5.324   0.829   7.409 -0.3387  0.6935 -0.4215
   93SAPS   H4Y 9166   5.214   0.696   7.432 -0.2102 -0.9023  1.4998
   93SAPS   C35 9167   5.198   0.885   7.568 -0.0970 -0.7205  0.2127
   93SAPS   H5X 9168   5.094   0.864   7.602 -0.3302  0.5349  0.2913
   93SAPS   H5Y 9169   5.205   0.996   7.564  0.2659 -0.6841  1.5650
   93SAPS   C36 9170   5.293   0.841   7.682  0.9334  0.3563  0.8055
   93SAPS   H6X 9171   5.391   0.889   7.661  0.6982  0.8870  0.9284
   93SAPS   H6Y 9172   5.321   0.733   7.680  0.9139  0.3199  2.0812
   93SAPS   C37 9173   5.252   0.893   7.818  0.6177 -0.0847  0.3355
   93SAPS   H7X 9174   5.151   0.850   7.835  0.9292 -1.2617 -0.7670
   93SAPS   H7Y 9175   5.233   1.002   7.825 -3.2280 -0.7093  0.6223
   93SAPS   C38 9176   5.344   0.849   7.929  0.1395  0.3495 -0.5634
   93SAPS   H8X 9177   5.446   0.893   7.922  0.2603  0.3228  0.9881
   93SAPS   H8Y 9178   5.365   0.740   7.928 -0.2875  0.1847  2.9634
   93SAPS   C39 9179   5.302   0.896   8.074  0.3470 -0.4440  0.2763
   93SAPS   H9X 9180   5.194   0.881   8.097 -0.2173  0.5246 -1.6512
   93SAPS   H9Y 9181   5.322   1.005   8.078 -1.1014 -0.1351 -0.7476
   93SAPS  C310 9182   5.406   0.846   8.179 -0.0138  0.0890  0.2155
   93SAPS  H10X 9183   5.507   0.879   8.149 -0.1794 -0.8536 -1.4047
   93SAPS  H10Y 9184   5.413   0.736   8.188 -1.6156  0.1770  3.0513
   93SAPS  C311 9185   5.372   0.927   8.307  0.1703 -1.2054 -1.0375
   93SAPS  H11X 9186   5.278   0.900   8.359 -0.1166  0.3149 -0.7387
   93SAPS  H11Y 9187   5.361   1.031   8.269 -2.8392 -1.2161 -0.2982
   93SAPS  C312 9188   5.487   0.909   8.414  0.2079 -0.3113 -0.1779
   93SAPS  H12X 9189   5.589   0.899   8.374  1.4628  2.5818  2.0914
   93SAPS  H12Y 9190   5.464   0.821   8.478 -0.7121 -0.7122 -1.0488
   93SAPS  C313 9191   5.496   1.022   8.515  0.4596 -0.1368  0.2643
   93SAPS  H13X 9192   5.394   1.043   8.555  0.3535 -1.2831  0.6288
   93SAPS  H13Y 9193   5.543   1.112   8.471  1.3182 -0.1012  1.2239
   93SAPS  C314 9194   5.581   0.993   8.640  0.2804  0.1965 -0.4605
   93SAPS  H14X 9195   5.690   0.990   8.620  0.6846  0.6803  1.5435
   93SAPS  H14Y 9196   5.557   0.893   8.682  0.8396  0.4186  0.3931
   93SAPS  C315 9197   5.550   1.084   8.764  0.2409 -0.1471 -0.0563
   93SAPS  H15X 9198   5.574   1.030   8.858 -1.6417 -2.3313 -0.7904
   93SAPS  H15Y 9199   5.441   1.101   8.776  0.1939 -1.2101  1.1906
   93SAPS  C316 9200   5.623   1.220   8.751 -0.7182  0.1585  0.3847
   93SAPS  H16X 9201   5.570   1.275   8.669 -1.2902 -2.3756 -0.9997
   93SAPS  H16Y 9202   5.729   1.217   8.717 -0.0743  2.2435  2.0605
   93SAPS  C317 9203   5.634   1.335   8.862 -0.5704  0.1676 -0.2215
   93SAPS  H17X 9204   5.709   1.302   8.937 -0.0947 -1.0663 -1.2308
   93SAPS  H17Y 9205   5.532   1.344   8.905 -0.0430  1.6964  0.7510
   93SAPS  C318 9206   5.677   1.469   8.796  0.4014 -0.3696 -0.6472
   93SAPS  H18X 9207   5.598   1.515   8.732 -1.6330 -2.4824  0.2564
   93SAPS  H18Y 9208   5.772   1.465   8.739 -0.7666 -1.9242 -2.5697
   93SAPS  H18Z 9209   5.707   1.535   8.880  1.0665 -0.7330 -0.6049
   94SAPS     N 9210   5.376   3.772   6.186 -0.0626  0.2071  0.4948
   94SAPS   HN1 9211   5.411   3.796   6.281  1.5086  2.6545 -0.6393
   94SAPS   HN2 9212   5.356   3.863   6.139 -0.3852 -1.0350 -1.8611
   94SAPS   HN3 9213   5.287   3.719   6.182  0.3203 -0.4083 -0.0612
   94SAPS   C12 9214   5.487   3.719   6.112  0.4045 -0.5786 -0.4785
   94SAPS  H12A 9215   5.574   3.721   6.177 -0.0350  0.4270  0.0806
   94SAPS   C13 9216   5.475   3.580   6.050 -0.0723  0.3639  0.0313
   94SAPS  O13A 9217   5.361   3.522   6.041  0.2845 -0.3911 -0.1161
   94SAPS  O13B 9218   5.579   3.527   6.005  0.2821 -0.3970 -0.7133
   94SAPS   C11 9219   5.533   3.812   6.003 -0.0132  0.0384 -0.3396
   94SAPS  H11A 9220   5.447   3.825   5.933 -0.0686 -0.1048 -0.2985
   94SAPS  H11B 9221   5.614   3.783   5.934  0.3571  0.5082 -0.1031
   94SAPS     P 9222   5.602   4.065   5.975 -0.2016 -0.0889 -0.0355
   94SAPS   O13 9223   5.719   4.032   5.899  0.1280  0.2474 -0.4155
   94SAPS   O14 9224   5.483   4.107   5.895  0.0470  0.0368 -0.9977
   94SAPS   O12 9225   5.571   3.941   6.061  0.1443  0.1126 -0.0134
   94SAPS   O11 9226   5.636   4.175   6.081  0.0687 -0.5888 -0.4283
   94SAPS    C1 9227   5.576   4.179   6.209  0.8708  0.2369 -0.6283
   94SAPS    HA 9228   5.594   4.282   6.245 -2.0789  0.9912 -1.1969
   94SAPS    HB 9229   5.469   4.149   6.197  0.5924  1.7041 -1.9621
   94SAPS    C2 9230   5.652   4.089   6.311  0.2998 -0.2616 -0.1022
   94SAPS    HS 9231   5.669   3.984   6.279  1.1357 -0.2106  0.1678
   94SAPS   O21 9232   5.594   4.111   6.441  0.1028 -0.3677 -0.6628
   94SAPS   C21 9233   5.506   4.010   6.469  0.2096 -0.7239 -0.2638
   94SAPS   O22 9234   5.473   3.922   6.391 -0.3211 -0.3498 -0.2373
   94SAPS   C22 9235   5.437   4.016   6.603  0.1109  0.2597 -0.6302
   94SAPS   H2R 9236   5.439   4.119   6.646 -1.9061  0.2447 -0.4228
   94SAPS   H2S 9237   5.326   4.004   6.605  0.2010 -0.6770 -1.1410
   94SAPS    C3 9238   5.802   4.135   6.331  0.1701 -0.7409 -0.1200
   94SAPS    HX 9239   5.793   4.245   6.343 -0.2982 -0.6741 -1.0568
   94SAPS    HY 9240   5.858   4.135   6.235  1.8833  1.4041  0.8406
   94SAPS   O31 9241   5.870   4.057   6.434 -0.5121  0.2576  0.1600
   94SAPS   C31 9242   5.904   4.125   6.542  0.9292 -0.3050  0.0792
   94SAPS   O32 9243   5.885   4.242   6.569  0.0033 -0.0156  0.1735
   94SAPS   C32 9244   5.986   4.030   6.637 -0.1513 -0.5395  0.3100
   94SAPS   H2X 9245   6.072   3.988   6.579  1.4136  2.6109  0.2347
   94SAPS   H2Y 9246   5.915   3.945   6.643 -1.7978  0.8140  0.3622
   94SAPS   C23 9247   5.505   3.913   6.701  0.1938  0.3154  0.4053
   94SAPS   H3R 9248   5.506   3.815   6.649 -0.5705 -0.3486  1.6143
   94SAPS   H3S 9249   5.433   3.899   6.784  0.6668 -1.8598  0.4701
   94SAPS   C24 9250   5.636   3.952   6.756 -0.2486  0.0835 -0.6167
   94SAPS   H4R 9251   5.620   4.047   6.812  2.0207 -1.5843  3.0381
   94SAPS   H4S 9252   5.704   3.968   6.670 -1.6616 -0.1959 -1.8040
   94SAPS   C25 9253   5.699   3.851   6.846 -0.1865 -0.0372 -0.1170
   94SAPS   H5R 9254   5.727   3.762   6.788  0.7251  1.4231 -1.9915
   94SAPS   C26 9255   5.714   3.861   6.980  0.3062 -0.1266 -0.3235
   94SAPS   H6R 9256   5.764   3.777   7.030  2.8467  1.0281 -0.8192
   94SAPS   C27 9257   5.670   3.967   7.078 -0.3217  0.2602  0.3480
   94SAPS   H7R 9258   5.708   4.064   7.039  0.2226 -0.4889 -0.9982
   94SAPS   H7S 9259   5.722   3.943   7.174  0.6701  1.4814  0.1307
   94SAPS   C28 9260   5.521   3.967   7.104  0.3541  0.2761  0.3114
   94SAPS   H8R 9261   5.458   3.932   7.021  2.9248 -1.7345 -0.8741
   94SAPS   C29 9262   5.453   3.987   7.221 -0.2501  0.3979 -0.1758
   94SAPS   H9R 9263   5.345   3.968   7.225 -0.2181 -0.3283 -2.0226
   94SAPS  C210 9264   5.531   4.013   7.347  0.0890 -0.1326 -0.3370
   94SAPS  H10R 9265   5.485   4.088   7.414 -1.8225 -1.2157 -0.3892
   94SAPS  H10S 9266   5.628   4.061   7.322  0.1803  0.6741  1.5217
   94SAPS  C211 9267   5.575   3.887   7.409 -0.1677 -0.2709  0.3850
   94SAPS  H11R 9268   5.543   3.796   7.357  4.5757 -1.4389 -0.6999
   94SAPS  C212 9269   5.646   3.871   7.524  0.1072  0.1109 -0.1782
   94SAPS  H12R 9270   5.676   3.771   7.557 -0.2584  0.4925  1.3367
   94SAPS  C213 9271   5.689   3.977   7.620  0.6744  0.1514 -0.0683
   94SAPS  H13R 9272   5.662   4.077   7.581 -1.5116  0.1417  1.3439
   94SAPS  H13S 9273   5.800   3.978   7.633  0.4679 -2.4654  2.3750
   94SAPS  C214 9274   5.598   3.967   7.740  0.5723  0.5544 -0.5877
   94SAPS  H14R 9275   5.492   3.992   7.731  0.0410 -1.0311  1.1135
   94SAPS  C215 9276   5.639   3.960   7.868 -0.0732  0.0911 -0.3638
   94SAPS  H15R 9277   5.559   3.946   7.943  1.8867 -1.6910  1.4452
   94SAPS  C216 9278   5.777   3.954   7.924  0.5794 -0.4717  0.9899
   94SAPS  H16R 9279   5.784   4.015   8.017  2.3522 -0.6092  0.9581
   94SAPS  H16S 9280   5.850   3.976   7.843 -0.7104 -1.0866 -0.3602
   94SAPS  C217 9281   5.806   3.812   7.975  0.2001 -0.2264  0.4188
   94SAPS  H17R 9282   5.913   3.806   8.005  0.4465 -0.2451 -0.4517
   94SAPS  H17S 9283   5.794   3.724   7.909 -0.3010  0.5420 -0.5153
   94SAPS  C218 9284   5.718   3.774   8.098  0.4617  0.0773 -0.1416
   94SAPS  H18R 9285   5.612   3.763   8.069  0.0913 -1.3262  1.6543
   94SAPS  H18S 9286   5.735   3.856   8.170 -0.5175  0.6648 -0.5703
   94SAPS  C219 9287   5.761   3.644   8.177 -0.5240  0.5979 -0.1690
   94SAPS  H19R 9288   5.864   3.642   8.219  0.4969 -2.3668 -2.6750
   94SAPS  H19S 9289   5.755   3.564   8.100  0.5996 -0.6493  1.0107
   94SAPS  C220 9290   5.660   3.615   8.294  0.0659 -0.3050  0.9268
   94SAPS  H20R 9291   5.662   3.691   8.375 -1.5314  1.5684 -0.7520
   94SAPS  H20S 9292   5.693   3.517   8.335  1.5795  0.8938  2.6437
   94SAPS  H20T 9293   5.558   3.604   8.250  0.3849 -0.5624  0.2480
   94SAPS   C33 9294   6.007   4.073   6.780 -1.1622  0.4311  0.1551
   94SAPS   H3X 9295   5.915   4.115   6.827 -0.3751  3.4046 -0.8748
   94SAPS   H3Y 9296   6.076   4.156   6.806 -1.9518  1.6748 -1.6160
   94SAPS   C34 9297   6.042   3.952   6.868  0.1641  0.0575 -0.5226
   94SAPS   H4X 9298   6.140   3.910   6.837  1.2522  1.6336  0.7134
   94SAPS   H4Y 9299   5.964   3.878   6.841 -0.9931  0.3536  1.8143
   94SAPS   C35 9300   6.039   3.985   7.012  0.3684  0.0065  0.7033
   94SAPS   H5X 9301   5.938   4.022   7.042  0.8820  1.4257  0.7171
   94SAPS   H5Y 9302   6.115   4.064   7.026  0.4436 -0.3463  2.4983
   94SAPS   C36 9303   6.078   3.863   7.096 -0.4628  0.1842  0.1181
   94SAPS   H6X 9304   6.189   3.868   7.104 -0.4712  0.2265  0.1930
   94SAPS   H6Y 9305   6.044   3.766   7.056  0.1748  1.0881 -2.7320
   94SAPS   C37 9306   6.026   3.876   7.245 -0.5491 -0.9099 -0.0953
   94SAPS   H7X 9307   5.923   3.836   7.251 -0.3050 -1.4613  0.3959
   94SAPS   H7Y 9308   6.021   3.986   7.263  0.6145 -1.2101  2.1838
   94SAPS   C38 9309   6.101   3.795   7.350 -0.6517  0.4716 -0.4165
   94SAPS   H8X 9310   6.210   3.810   7.342 -0.7306 -0.9349 -5.0432
   94SAPS   H8Y 9311   6.085   3.690   7.319  3.2227 -0.7750  1.4653
   94SAPS   C39 9312   6.041   3.814   7.490 -0.0502 -0.1529 -0.1949
   94SAPS   H9X 9313   5.930   3.802   7.498  0.3298 -2.4661  1.9268
   94SAPS   H9Y 9314   6.066   3.917   7.521 -1.0012  0.2638 -0.7783
   94SAPS  C310 9315   6.095   3.707   7.589  0.3066  0.3835  0.3890
   94SAPS  H10X 9316   6.205   3.723   7.595  0.4252  0.7081 -2.0505
   94SAPS  H10Y 9317   6.090   3.606   7.544  0.4703 -0.1448  1.5327
   94SAPS  C311 9318   6.033   3.701   7.728 -0.0908 -0.0369  0.2534
   94SAPS  H11X 9319   5.924   3.682   7.730 -0.1648  0.3895  0.1576
   94SAPS  H11Y 9320   6.047   3.800   7.776  0.3934  1.2631 -2.4512
   94SAPS  C312 9321   6.104   3.595   7.809  0.3530 -0.1038  0.5021
   94SAPS  H12X 9322   6.082   3.494   7.768  0.3622  0.8951 -2.0221
   94SAPS  H12Y 9323   6.055   3.601   7.909 -0.7450 -2.4881  0.1313
   94SAPS  C313 9324   6.260   3.610   7.818  0.4198  0.7632 -0.1123
   94SAPS  H13X 9325   6.292   3.715   7.830  3.2170 -0.1205  0.5577
   94SAPS  H13Y 9326   6.298   3.583   7.717 -0.3807 -0.1710 -0.1709
   94SAPS  C314 9327   6.316   3.516   7.924 -0.7227 -0.2567  0.5465
   94SAPS  H14X 9328   6.427   3.520   7.921 -0.6247 -0.8066  2.6415
   94SAPS  H14Y 9329   6.294   3.407   7.916  0.9182 -0.5771  0.3593
   94SAPS  C315 9330   6.271   3.553   8.064  0.4969 -0.0222 -0.1259
   94SAPS  H15X 9331   6.308   3.484   8.142 -3.1547  0.3134  2.0254
   94SAPS  H15Y 9332   6.160   3.541   8.061  0.4882 -0.0571  0.3211
   94SAPS  C316 9333   6.311   3.701   8.104 -0.2815  0.1798 -0.8795
   94SAPS  H16X 9334   6.248   3.761   8.034  0.8994 -0.5025 -2.5521
   94SAPS  H16Y 9335   6.420   3.698   8.083  0.1813  1.0362  1.2257
   94SAPS  C317 9336   6.291   3.742   8.255  0.4380  0.1066 -0.3775
   94SAPS  H17X 9337   6.343   3.835   8.286 -0.0447  0.3424 -0.2731
   94SAPS  H17Y 9338   6.323   3.652   8.311  2.3080  0.8744 -0.1982
   94SAPS  C318 9339   6.141   3.776   8.275  0.1228 -1.0965  0.3144
   94SAPS  H18X 9340   6.093   3.675   8.273  3.0226 -2.5381  1.2656
   94SAPS  H18Y 9341   6.098   3.833   8.190  1.0193  1.5604  1.6054
   94SAPS  H18Z 9342   6.137   3.818   8.378 -0.1062 -0.7237  0.1561
   95SAPS     N 9343   2.111   2.000   6.271 -0.2229 -0.1809 -0.1600
   95SAPS   HN1 9344   2.139   2.073   6.203  1.8540  0.0328  0.8872
   95SAPS   HN2 9345   2.012   2.018   6.301  0.9620  2.1967  2.6579
   95SAPS   HN3 9346   2.177   2.008   6.351  0.4164  0.1934 -0.7211
   95SAPS   C12 9347   2.136   1.876   6.209  0.2744 -0.7387  0.6911
   95SAPS  H12A 9348   2.092   1.875   6.111  1.5290  0.2486  0.1078
   95SAPS   C13 9349   2.284   1.857   6.188 -0.3212 -0.5340 -0.0852
   95SAPS  O13A 9350   2.373   1.947   6.196  0.0195 -0.0359 -0.5028
   95SAPS  O13B 9351   2.314   1.744   6.131 -0.3272 -0.2017  0.8493
   95SAPS   C11 9352   2.075   1.762   6.300  0.4924 -0.0958 -0.4470
   95SAPS  H11A 9353   2.125   1.758   6.399 -1.4896 -2.7015  0.4943
   95SAPS  H11B 9354   2.084   1.663   6.251  1.6303 -1.7347  2.9377
   95SAPS     P 9355   1.831   1.674   6.276  0.3208  0.1701 -0.6376
   95SAPS   O13 9356   1.695   1.731   6.316 -0.5349 -0.1647  0.3653
   95SAPS   O14 9357   1.859   1.647   6.134 -0.0401  1.1615  0.1758
   95SAPS   O12 9358   1.939   1.782   6.322  0.5166 -0.8741  0.3570
   95SAPS   O11 9359   1.870   1.542   6.364  0.0193 -0.1361  0.1219
   95SAPS    C1 9360   1.858   1.540   6.507  1.0805  0.3397  0.3250
   95SAPS    HA 9361   1.931   1.468   6.549  0.4062  0.2186  1.3170
   95SAPS    HB 9362   1.878   1.639   6.552  0.3803  0.9193 -0.6079
   95SAPS    C2 9363   1.712   1.498   6.549  0.8000  0.1565  0.2993
   95SAPS    HS 9364   1.646   1.581   6.516  1.3245  0.2745 -0.4471
   95SAPS   O21 9365   1.704   1.475   6.691 -0.4209  0.1330 -0.1571
   95SAPS   C21 9366   1.734   1.567   6.775 -0.2470 -0.6203  0.5577
   95SAPS   O22 9367   1.763   1.679   6.746  0.0509  0.2685 -0.3451
   95SAPS   C22 9368   1.705   1.523   6.915  0.5681 -0.3345 -0.1106
   95SAPS   H2R 9369   1.596   1.516   6.930  0.7042 -1.1892  0.5350
   95SAPS   H2S 9370   1.750   1.422   6.923 -1.2474 -1.3584 -2.4630
   95SAPS    C3 9371   1.665   1.370   6.467 -0.5768  0.1063  0.9529
   95SAPS    HX 9372   1.735   1.287   6.490 -0.1545  0.0858 -0.3568
   95SAPS    HY 9373   1.676   1.401   6.361  1.0131 -2.3344  0.3643
   95SAPS   O31 9374   1.532   1.316   6.490 -0.1923 -0.0363  0.0770
   95SAPS   C31 9375   1.435   1.404   6.469 -0.3579 -0.2584 -0.0167
   95SAPS   O32 9376   1.444   1.505   6.397  0.2568  0.4849 -0.3968
   95SAPS   C32 9377   1.328   1.385   6.568  0.2334  0.1735 -0.0540
   95SAPS   H2X 9378   1.324   1.279   6.601 -1.3819  0.4152  0.5671
   95SAPS   H2Y 9379   1.230   1.415   6.526  0.2194  1.0406  0.5866
   95SAPS   C23 9380   1.780   1.606   7.016  0.4354  0.1970  0.4618
   95SAPS   H3R 9381   1.750   1.713   7.012 -0.5990 -0.0753  0.9077
   95SAPS   H3S 9382   1.887   1.581   7.000  0.0820 -1.3739  0.4378
   95SAPS   C24 9383   1.753   1.546   7.155 -0.2895 -0.0477  0.3249
   95SAPS   H4R 9384   1.776   1.440   7.132 -1.0291  0.2029 -1.6846
   95SAPS   H4S 9385   1.644   1.550   7.172 -0.2798 -3.3952  1.4744
   95SAPS   C25 9386   1.844   1.603   7.269  0.7036  1.2148  0.4789
   95SAPS   H5R 9387   1.938   1.656   7.249  0.4331  0.9178 -1.8076
   95SAPS   C26 9388   1.790   1.591   7.395  0.4910  0.3623  0.5694
   95SAPS   H6R 9389   1.854   1.620   7.480 -1.8260 -0.2902  2.5942
   95SAPS   C27 9390   1.655   1.521   7.439 -0.2141 -0.1106 -0.4767
   95SAPS   H7R 9391   1.671   1.413   7.455 -1.3471 -0.2726 -0.3985
   95SAPS   H7S 9392   1.574   1.533   7.364 -0.3433  0.3425 -0.2699
   95SAPS   C28 9393   1.614   1.602   7.557 -0.5721  0.4537  0.0520
   95SAPS   H8R 9394   1.572   1.701   7.531  3.4948  1.9581 -1.1514
   95SAPS   C29 9395   1.643   1.580   7.688  0.3998 -0.3715 -0.1530
   95SAPS   H9R 9396   1.605   1.657   7.757  1.5275 -1.5020  1.7682
   95SAPS  C210 9397   1.718   1.465   7.744  0.1782 -0.0333  0.6960
   95SAPS  H10R 9398   1.812   1.445   7.688  0.6939 -0.7137  1.7877
   95SAPS  H10S 9399   1.653   1.377   7.760 -1.3533  0.7814 -0.8783
   95SAPS  C211 9400   1.785   1.500   7.875 -0.6037  0.7298 -0.0882
   95SAPS  H11R 9401   1.865   1.575   7.862  1.3072 -0.6125  3.1829
   95SAPS  C212 9402   1.755   1.455   8.001  0.3786 -0.4780  0.8659
   95SAPS  H12R 9403   1.829   1.472   8.080  0.3032  0.5663  0.7058
   95SAPS  C213 9404   1.644   1.358   8.032  0.0084 -0.4126  0.1688
   95SAPS  H13R 9405   1.676   1.255   8.006 -1.6923 -0.5269 -1.5825
   95SAPS  H13S 9406   1.565   1.362   7.954 -0.0164  0.3627  0.2323
   95SAPS  C214 9407   1.589   1.384   8.166  0.1701 -0.4639 -0.5562
   95SAPS  H14R 9408   1.559   1.488   8.181  2.6490  0.1627  0.3411
   95SAPS  C215 9409   1.591   1.301   8.274 -0.4528  0.1637  0.0798
   95SAPS  H15R 9410   1.564   1.335   8.375  1.5606 -0.3779  0.8172
   95SAPS  C216 9411   1.643   1.162   8.286  0.7119 -0.0390  0.1163
   95SAPS  H16R 9412   1.645   1.097   8.196  1.6573 -1.1536  0.9242
   95SAPS  H16S 9413   1.588   1.105   8.364  0.1932  1.2075  0.6816
   95SAPS  C217 9414   1.791   1.153   8.336  0.0552  0.7567  0.4829
   95SAPS  H17R 9415   1.876   1.163   8.265  0.2829  0.2250  0.6813
   95SAPS  H17S 9416   1.805   1.045   8.356 -1.0174  0.7459  1.2321
   95SAPS  C218 9417   1.826   1.227   8.465  0.5423  0.1082  0.3112
   95SAPS  H18R 9418   1.737   1.238   8.530 -1.8538 -4.3736 -2.0109
   95SAPS  H18S 9419   1.848   1.331   8.435  2.2768  0.2552  2.0215
   95SAPS  C219 9420   1.961   1.191   8.520  0.0198 -0.2841 -1.0306
   95SAPS  H19R 9421   2.036   1.195   8.439  0.1948 -3.2573 -1.0796
   95SAPS  H19S 9422   1.950   1.093   8.571  1.3831  0.1001  0.0425
   95SAPS  C220 9423   2.018   1.286   8.630 -0.4110 -1.2818  0.3668
   95SAPS  H20R 9424   1.959   1.306   8.722  0.0058  0.8687  0.1905
   95SAPS  H20S 9425   2.064   1.380   8.594 -1.5466 -0.9165 -0.1723
   95SAPS  H20T 9426   2.111   1.238   8.666 -1.2187 -2.9809  0.2720
   95SAPS   C33 9427   1.350   1.482   6.693 -0.0266  0.3713 -0.6633
   95SAPS   H3X 9428   1.456   1.508   6.710  0.0296  0.7595 -1.5439
   95SAPS   H3Y 9429   1.307   1.444   6.788 -1.7064  1.6835 -0.8803
   95SAPS   C34 9430   1.279   1.617   6.680  0.7062 -0.0375 -0.5149
   95SAPS   H4X 9431   1.170   1.630   6.697  0.6761 -0.7937 -0.0970
   95SAPS   H4Y 9432   1.297   1.657   6.578 -0.0283 -2.3343 -1.5823
   95SAPS   C35 9433   1.344   1.712   6.785 -0.7260  0.9170  0.2157
   95SAPS   H5X 9434   1.306   1.813   6.757  1.1340  1.6417  0.2172
   95SAPS   H5Y 9435   1.455   1.713   6.772 -0.6235  0.6944  1.0343
   95SAPS   C36 9436   1.296   1.676   6.925  1.2497 -0.7183  0.4103
   95SAPS   H6X 9437   1.325   1.572   6.950  0.6830 -1.3928 -1.7209
   95SAPS   H6Y 9438   1.187   1.689   6.936  1.2586 -1.7348  1.8341
   95SAPS   C37 9439   1.353   1.771   7.034 -0.2217 -0.5509  0.3270
   95SAPS   H7X 9440   1.338   1.878   7.008 -2.1139 -0.5904  1.2023
   95SAPS   H7Y 9441   1.463   1.764   7.051 -0.2884 -0.7712  0.6782
   95SAPS   C38 9442   1.279   1.753   7.175  0.7557 -0.1394  0.1636
   95SAPS   H8X 9443   1.174   1.785   7.159  0.6288 -0.0934  1.1075
   95SAPS   H8Y 9444   1.331   1.830   7.236 -0.6242  0.6266  0.3731
   95SAPS   C39 9445   1.294   1.627   7.256 -0.0728  0.0242 -0.2368
   95SAPS   H9X 9446   1.398   1.628   7.294 -0.0914  0.9350 -0.2008
   95SAPS   H9Y 9447   1.295   1.548   7.177 -0.0125  0.2161 -0.4277
   95SAPS  C310 9448   1.185   1.595   7.363 -0.0585 -0.4143 -0.2927
   95SAPS  H10X 9449   1.092   1.568   7.309 -1.2484  1.2630  0.8790
   95SAPS  H10Y 9450   1.173   1.689   7.420  0.1094 -1.6348  1.7918
   95SAPS  C311 9451   1.226   1.490   7.461  0.2482 -0.2525 -0.3198
   95SAPS  H11X 9452   1.335   1.508   7.465 -0.2266  3.7147 -2.0532
   95SAPS  H11Y 9453   1.226   1.388   7.416  0.1139 -0.1942 -0.4544
   95SAPS  C312 9454   1.170   1.501   7.608 -0.0700  0.3247  1.6948
   95SAPS  H12X 9455   1.199   1.402   7.650 -1.1730 -1.5533 -1.7814
   95SAPS  H12Y 9456   1.059   1.499   7.603 -0.0026  0.1193  0.2011
   95SAPS  C313 9457   1.224   1.624   7.674 -0.0052  0.1918 -0.5917
   95SAPS  H13X 9458   1.171   1.705   7.619 -1.4693 -2.5527 -3.3668
   95SAPS  H13Y 9459   1.333   1.633   7.659 -0.1956  0.5400 -1.7573
   95SAPS  C314 9460   1.198   1.624   7.829 -0.5981 -0.5675 -0.3967
   95SAPS  H14X 9461   1.090   1.604   7.845 -0.9855  0.4020 -1.6413
   95SAPS  H14Y 9462   1.213   1.727   7.868 -2.3455 -0.7258  0.7439
   95SAPS  C315 9463   1.273   1.517   7.908  0.8122 -0.3142 -1.0325
   95SAPS  H15X 9464   1.375   1.495   7.868  1.2579 -2.6665  1.2116
   95SAPS  H15Y 9465   1.210   1.426   7.901 -2.8965  2.1752 -1.1439
   95SAPS  C316 9466   1.283   1.558   8.058  0.0424  0.6116 -0.1222
   95SAPS  H16X 9467   1.349   1.648   8.066  3.5714 -1.8881  0.0935
   95SAPS  H16Y 9468   1.326   1.478   8.121  1.0842  2.5454  1.7146
   95SAPS  C317 9469   1.143   1.593   8.122  0.0611  0.7559 -0.0142
   95SAPS  H17X 9470   1.091   1.661   8.051 -0.6313  1.2812  0.9826
   95SAPS  H17Y 9471   1.160   1.651   8.215  0.7959  1.5821 -0.6591
   95SAPS  C318 9472   1.071   1.467   8.154 -0.5583  0.0915 -0.0944
   95SAPS  H18X 9473   1.033   1.425   8.058 -2.3486  0.3547  0.4753
   95SAPS  H18Y 9474   0.981   1.510   8.203 -1.7218 -0.0055 -2.0638
   95SAPS  H18Z 9475   1.119   1.398   8.227  0.8902 -2.2350 -3.1378
   96SAPS     N 9476   2.570   3.718   6.261 -0.2766  0.3777 -0.0365
   96SAPS   HN1 9477   2.486   3.712   6.323 -0.3230  1.3188  0.0094
   96SAPS   HN2 9478   2.652   3.687   6.317 -0.4552 -0.8931 -0.4736
   96SAPS   HN3 9479   2.587   3.812   6.219  2.0244 -0.3310 -0.7609
   96SAPS   C12 9480   2.568   3.621   6.145 -0.8890  0.2375  0.1913
   96SAPS  H12A 9481   2.483   3.648   6.085  0.5483  0.0303 -1.9852
   96SAPS   C13 9482   2.699   3.633   6.057  0.3539  0.1861 -0.3919
   96SAPS  O13A 9483   2.782   3.723   6.077 -0.8611  0.1894  0.5684
   96SAPS  O13B 9484   2.690   3.576   5.942 -0.4950 -0.1224  0.1851
   96SAPS   C11 9485   2.565   3.476   6.199 -0.1941  0.2429 -0.0786
   96SAPS  H11A 9486   2.665   3.451   6.243 -0.0958  1.3274  0.3303
   96SAPS  H11B 9487   2.564   3.405   6.113 -0.2974 -1.7257  1.4958
   96SAPS     P 9488   2.329   3.379   6.242  0.2166  0.1882  0.3536
   96SAPS   O13 9489   2.239   3.454   6.161  0.2195  0.0635 -0.7047
   96SAPS   O14 9490   2.368   3.251   6.188  0.0119 -0.2446 -0.7125
   96SAPS   O12 9491   2.462   3.449   6.292 -0.5225 -0.0275  0.1682
   96SAPS   O11 9492   2.247   3.347   6.371 -0.8447 -0.0307  0.1404
   96SAPS    C1 9493   2.235   3.452   6.468 -0.0413 -0.7594 -0.6512
   96SAPS    HA 9494   2.310   3.533   6.461 -0.1522 -0.7868 -2.3394
   96SAPS    HB 9495   2.139   3.507   6.456  0.5865  0.4503 -0.2051
   96SAPS    C2 9496   2.245   3.399   6.618 -0.5762  0.4688 -0.3953
   96SAPS    HS 9497   2.338   3.340   6.625  0.0565  1.4749 -0.1940
   96SAPS   O21 9498   2.128   3.309   6.640 -0.4017 -0.0714 -0.2970
   96SAPS   C21 9499   2.152   3.199   6.718 -0.3720  0.4175  0.1288
   96SAPS   O22 9500   2.264   3.158   6.747  0.6498  0.4300 -0.1031
   96SAPS   C22 9501   2.021   3.119   6.759 -0.4683 -0.0238 -0.3475
   96SAPS   H2R 9502   1.939   3.190   6.736  0.0154 -0.0151 -2.1306
   96SAPS   H2S 9503   2.005   3.041   6.682 -1.0556 -1.0942  0.8386
   96SAPS    C3 9504   2.243   3.523   6.714  0.0708  1.0629 -1.6390
   96SAPS    HX 9505   2.136   3.554   6.718 -0.1354  0.3301 -1.2102
   96SAPS    HY 9506   2.303   3.606   6.673 -0.1530  1.5675 -0.9380
   96SAPS   O31 9507   2.297   3.495   6.854  0.3388  0.5295 -0.2712
   96SAPS   C31 9508   2.417   3.446   6.858 -0.2495  0.7626 -0.2507
   96SAPS   O32 9509   2.507   3.452   6.776 -0.3926  0.5216 -0.2606
   96SAPS   C32 9510   2.431   3.368   6.992  0.3521  0.2036 -0.3003
   96SAPS   H2X 9511   2.512   3.295   6.973  1.9985  2.0840 -0.7018
   96SAPS   H2Y 9512   2.341   3.308   7.017  0.2612  1.3309  2.1613
   96SAPS   C23 9513   2.011   3.050   6.900 -0.6875  1.0192  0.2777
   96SAPS   H3R 9514   2.096   2.979   6.899 -1.9816 -0.5361 -0.5628
   96SAPS   H3S 9515   1.917   2.991   6.900  0.9857 -1.7340  0.9441
   96SAPS   C24 9516   2.023   3.140   7.023 -1.0837  0.1086  0.2416
   96SAPS   H4R 9517   2.118   3.197   7.028 -1.5257  1.0682 -2.0167
   96SAPS   H4S 9518   2.008   3.086   7.119 -3.6650 -0.0177 -0.1811
   96SAPS   C25 9519   1.917   3.240   6.996  0.4840 -0.2491 -0.0256
   96SAPS   H5R 9520   1.832   3.180   6.960  1.3312 -1.4874  0.0387
   96SAPS   C26 9521   1.912   3.376   7.009 -0.0904  0.0331 -0.2894
   96SAPS   H6R 9522   1.823   3.434   6.984  0.0111  0.6094  0.6517
   96SAPS   C27 9523   2.024   3.448   7.069 -1.1536  0.5828 -0.4212
   96SAPS   H7R 9524   2.098   3.479   6.992 -0.4132  0.9282  0.4143
   96SAPS   H7S 9525   2.078   3.392   7.149 -1.1517  2.4108  0.8858
   96SAPS   C28 9526   1.954   3.574   7.127  0.4853 -0.6653 -0.0569
   96SAPS   H8R 9527   1.934   3.657   7.058 -1.4081 -1.5157 -0.5436
   96SAPS   C29 9528   1.923   3.597   7.256 -0.0364  0.7603 -0.9313
   96SAPS   H9R 9529   1.879   3.695   7.280 -0.8065 -0.3210  2.3545
   96SAPS  C210 9530   1.938   3.507   7.378  0.3725  0.4743  0.5797
   96SAPS  H10R 9531   1.949   3.405   7.337  1.6751  2.0456 -3.1396
   96SAPS  H10S 9532   1.835   3.490   7.414  0.6710 -1.1637  0.6820
   96SAPS  C211 9533   2.044   3.529   7.478 -0.6876  0.1961  0.3857
   96SAPS  H11R 9534   2.145   3.519   7.437 -1.0081  0.8644 -0.5926
   96SAPS  C212 9535   2.019   3.576   7.602 -0.1548  0.5788  0.5766
   96SAPS  H12R 9536   2.109   3.608   7.657  0.7546  1.2811 -1.2576
   96SAPS  C213 9537   1.894   3.596   7.669  0.4755  0.3354 -0.0455
   96SAPS  H13R 9538   1.825   3.662   7.611 -0.7216  0.0549  1.0269
   96SAPS  H13S 9539   1.908   3.660   7.758 -2.7395  0.1604  0.6823
   96SAPS  C214 9540   1.801   3.479   7.707  0.0309 -0.4174 -0.4622
   96SAPS  H14R 9541   1.736   3.451   7.622 -0.0799 -0.7616 -0.2658
   96SAPS  C215 9542   1.791   3.417   7.823 -0.0072  0.0351  0.3601
   96SAPS  H15R 9543   1.709   3.344   7.830 -0.2769  0.4320  1.3876
   96SAPS  C216 9544   1.860   3.431   7.954 -0.0754  0.6307 -0.4071
   96SAPS  H16R 9545   1.910   3.530   7.951 -2.8145  2.0870  0.2256
   96SAPS  H16S 9546   1.932   3.346   7.951 -0.4515  0.3536 -2.0973
   96SAPS  C217 9547   1.775   3.425   8.088  0.0289 -0.0298  0.2404
   96SAPS  H17R 9548   1.853   3.412   8.166  0.8228 -2.1643 -0.8726
   96SAPS  H17S 9549   1.710   3.336   8.089 -0.2546  0.1890  1.5099
   96SAPS  C218 9550   1.686   3.533   8.126  0.4078 -0.2988  0.2866
   96SAPS  H18R 9551   1.612   3.547   8.044  2.3741 -0.7229 -1.6082
   96SAPS  H18S 9552   1.740   3.630   8.117  0.5529 -0.4836 -0.8583
   96SAPS  C219 9553   1.617   3.517   8.259  0.2954  0.3391  0.8070
   96SAPS  H19R 9554   1.694   3.511   8.338 -0.5833 -1.3881  1.5636
   96SAPS  H19S 9555   1.563   3.420   8.258  0.1443  0.4099 -0.8502
   96SAPS  C220 9556   1.528   3.634   8.297  0.0986 -0.1445 -0.3095
   96SAPS  H20R 9557   1.478   3.679   8.209  1.0975 -0.6097 -1.1174
   96SAPS  H20S 9558   1.594   3.712   8.342 -0.6290 -0.1906  0.8782
   96SAPS  H20T 9559   1.454   3.604   8.375  0.9923  1.3253  1.1483
   96SAPS   C33 9560   2.475   3.450   7.122  0.5148  0.0626  0.9650
   96SAPS   H3X 9561   2.389   3.513   7.154  0.2207  1.2083 -1.9436
   96SAPS   H3Y 9562   2.550   3.530   7.106 -1.8026  2.5827  2.2486
   96SAPS   C34 9563   2.499   3.348   7.226  0.2118 -1.0678 -0.1601
   96SAPS   H4X 9564   2.599   3.303   7.211  0.7691 -0.9865  2.9952
   96SAPS   H4Y 9565   2.423   3.267   7.231  1.2143 -2.0307 -0.2885
   96SAPS   C35 9566   2.500   3.418   7.362 -0.4502  0.4615 -0.4887
   96SAPS   H5X 9567   2.405   3.471   7.383 -1.2123 -1.2827  0.5367
   96SAPS   H5Y 9568   2.585   3.487   7.342  0.1882 -0.6972 -1.8859
   96SAPS   C36 9569   2.552   3.335   7.476 -0.6131 -0.0469  0.5816
   96SAPS   H6X 9570   2.641   3.283   7.436 -2.1444 -1.3933 -1.1900
   96SAPS   H6Y 9571   2.484   3.253   7.508 -0.5395 -0.4127 -0.1867
   96SAPS   C37 9572   2.609   3.414   7.594 -0.0651 -0.3619  0.5173
   96SAPS   H7X 9573   2.526   3.441   7.663  1.7665  3.2355  1.4521
   96SAPS   H7Y 9574   2.650   3.511   7.557 -2.5894  1.2268  1.7502
   96SAPS   C38 9575   2.724   3.348   7.666 -0.1467  0.0800  0.8421
   96SAPS   H8X 9576   2.818   3.349   7.605 -1.2502 -0.6939 -0.9225
   96SAPS   H8Y 9577   2.694   3.243   7.684 -0.6049  0.2012  0.7950
   96SAPS   C39 9578   2.763   3.424   7.793 -0.2287  0.5413  0.3734
   96SAPS   H9X 9579   2.677   3.418   7.862 -1.1052  0.6138 -0.6877
   96SAPS   H9Y 9580   2.782   3.531   7.769  0.8774  0.0377 -1.1100
   96SAPS  C310 9581   2.876   3.362   7.878 -0.5089  0.2219 -0.6822
   96SAPS  H10X 9582   2.971   3.367   7.821  1.2008 -0.2230  2.0523
   96SAPS  H10Y 9583   2.843   3.260   7.907  0.2498  0.7022  1.9987
   96SAPS  C311 9584   2.899   3.442   8.015  0.7527 -0.1134 -0.6282
   96SAPS  H11X 9585   2.938   3.368   8.089  0.8907  1.5202  0.9513
   96SAPS  H11Y 9586   2.794   3.467   8.043  1.3996 -0.0294  1.8943
   96SAPS  C312 9587   2.988   3.570   8.028  0.3155  0.2082  0.2531
   96SAPS  H12X 9588   2.939   3.643   7.959  0.3406  0.2557  0.2857
   96SAPS  H12Y 9589   3.089   3.555   7.985 -0.7035 -2.2978 -1.3507
   96SAPS  C313 9590   2.985   3.634   8.166  0.1700 -0.2550 -0.7658
   96SAPS  H13X 9591   2.890   3.618   8.222  2.2866  2.6633  4.0564
   96SAPS  H13Y 9592   2.991   3.744   8.150 -0.1947  0.1455  1.5497
   96SAPS  C314 9593   3.089   3.580   8.258  0.0051 -0.6615 -0.3028
   96SAPS  H14X 9594   3.191   3.575   8.212 -0.3249 -0.8664 -1.0239
   96SAPS  H14Y 9595   3.058   3.475   8.275 -0.4172 -0.5622 -0.4534
   96SAPS  C315 9596   3.088   3.654   8.392 -0.5437 -0.3764  0.0716
   96SAPS  H15X 9597   2.988   3.639   8.438 -1.5983 -0.1664 -2.0753
   96SAPS  H15Y 9598   3.090   3.765   8.379 -0.0474 -0.4803 -0.7356
   96SAPS  C316 9599   3.199   3.599   8.493 -0.2070 -0.8098  0.2940
   96SAPS  H16X 9600   3.189   3.656   8.588 -0.4870  0.7508 -0.6491
   96SAPS  H16Y 9601   3.296   3.617   8.440 -0.2570 -3.8012 -0.9099
   96SAPS  C317 9602   3.199   3.452   8.524  0.9454 -0.4467 -0.3786
   96SAPS  H17X 9603   3.282   3.429   8.594  1.9658 -0.8085 -1.7125
   96SAPS  H17Y 9604   3.216   3.398   8.428  1.3894  0.0730 -0.5881
   96SAPS  C318 9605   3.073   3.400   8.587  0.5633  0.4521 -0.1676
   96SAPS  H18X 9606   3.092   3.298   8.626  0.9215  0.5623 -0.0503
   96SAPS  H18Y 9607   2.983   3.404   8.522 -0.7114  1.4176  1.6076
   96SAPS  H18Z 9608   3.048   3.451   8.682  0.8161 -0.2007  0.2521
   97SAPS     N 9609   3.771   1.438   6.140 -0.5717  0.0809 -0.1726
   97SAPS   HN1 9610   3.722   1.361   6.191  1.4038  0.6715  2.6946
   97SAPS   HN2 9611   3.702   1.514   6.123  1.3626  1.8595 -0.2507
   97SAPS   HN3 9612   3.806   1.400   6.050  0.9992 -1.9612  1.2453
   97SAPS   C12 9613   3.883   1.496   6.220  0.3831  0.5851 -0.3894
   97SAPS  H12A 9614   3.959   1.424   6.244 -0.3268  1.0246  3.5351
   97SAPS   C13 9615   3.961   1.611   6.150  0.2367 -0.7937  0.7559
   97SAPS  O13A 9616   3.901   1.678   6.065  0.0776  1.1730 -0.2764
   97SAPS  O13B 9617   4.062   1.656   6.208  0.2143 -0.5531 -0.1712
   97SAPS   C11 9618   3.830   1.535   6.360  0.1200  0.3858 -0.9584
   97SAPS  H11A 9619   3.758   1.619   6.354 -0.1704  0.1714 -0.3978
   97SAPS  H11B 9620   3.908   1.575   6.428 -1.5452  1.1074  0.5524
   97SAPS     P 9621   3.851   1.310   6.504 -0.1555 -0.0030 -0.1357
   97SAPS   O13 9622   3.809   1.179   6.456  0.4393  0.3535  0.1646
   97SAPS   O14 9623   3.995   1.346   6.487  0.1480 -0.0846 -0.0414
   97SAPS   O12 9624   3.768   1.424   6.435 -0.0489  0.0598  0.2204
   97SAPS   O11 9625   3.815   1.325   6.657 -0.1933 -0.0590 -0.1543
   97SAPS    C1 9626   3.839   1.431   6.741 -0.1152  0.6305 -0.4764
   97SAPS    HA 9627   3.872   1.402   6.843  1.8322  0.3702 -1.1443
   97SAPS    HB 9628   3.920   1.488   6.690 -1.2080  3.5185  0.8696
   97SAPS    C2 9629   3.729   1.535   6.740  0.6853  0.2861  0.2656
   97SAPS    HS 9630   3.719   1.594   6.646 -0.2868 -0.6802 -0.2492
   97SAPS   O21 9631   3.761   1.625   6.847  0.0915 -0.0460 -0.8221
   97SAPS   C21 9632   3.866   1.705   6.841 -0.0761 -0.0778 -0.0945
   97SAPS   O22 9633   3.947   1.717   6.748 -0.1695  0.0131 -0.6758
   97SAPS   C22 9634   3.886   1.778   6.973  0.7292 -0.4504  0.1207
   97SAPS   H2R 9635   3.887   1.888   6.952  1.2632 -0.2451  1.2305
   97SAPS   H2S 9636   3.799   1.771   7.041  2.2971  2.7385  2.5860
   97SAPS    C3 9637   3.584   1.483   6.772 -0.9606 -0.1451  0.3449
   97SAPS    HX 9638   3.572   1.398   6.702 -1.4935  0.2733 -0.0840
   97SAPS    HY 9639   3.508   1.560   6.745 -1.1061 -0.1899  0.6227
   97SAPS   O31 9640   3.566   1.447   6.910  0.4932  0.3037  0.0301
   97SAPS   C31 9641   3.452   1.393   6.939  1.1002  0.0764 -0.3557
   97SAPS   O32 9642   3.356   1.376   6.866 -0.1288 -0.2059  0.8739
   97SAPS   C32 9643   3.441   1.362   7.085 -0.3255 -0.0123 -0.9905
   97SAPS   H2X 9644   3.357   1.425   7.120 -0.8988 -0.8661 -0.8216
   97SAPS   H2Y 9645   3.535   1.400   7.132  1.5302 -2.7858 -2.3357
   97SAPS   C23 9646   4.016   1.738   7.031 -0.5079  0.5783 -0.7085
   97SAPS   H3R 9647   4.029   1.813   7.112 -0.6101 -0.6964  0.5011
   97SAPS   H3S 9648   4.102   1.762   6.964 -0.1456  1.4241  0.0525
   97SAPS   C24 9649   4.036   1.594   7.080 -0.0358 -0.3754  0.1321
   97SAPS   H4R 9650   4.141   1.579   7.114 -1.0413 -2.4987  2.4577
   97SAPS   H4S 9651   4.027   1.516   7.001 -2.1827  1.3937 -1.4422
   97SAPS   C25 9652   3.929   1.549   7.178 -0.4803 -0.4532  0.1406
   97SAPS   H5R 9653   3.827   1.557   7.137  0.5586 -1.5412 -2.7817
   97SAPS   C26 9654   3.949   1.507   7.300  0.1432  0.0418  0.3848
   97SAPS   H6R 9655   3.859   1.462   7.346 -0.5102 -0.2235 -1.1416
   97SAPS   C27 9656   4.082   1.507   7.376  0.3206 -0.0459  0.1965
   97SAPS   H7R 9657   4.150   1.442   7.316  2.0487  0.2216  1.8089
   97SAPS   H7S 9658   4.066   1.455   7.473  3.0234  0.4593  0.9515
   97SAPS   C28 9659   4.148   1.636   7.408 -0.6035  0.1139  0.0536
   97SAPS   H8R 9660   4.095   1.725   7.371 -1.8639 -0.3958  0.6168
   97SAPS   C29 9661   4.269   1.655   7.464 -0.0075  0.3205  0.0494
   97SAPS   H9R 9662   4.303   1.758   7.482 -1.2199  0.6468  0.4725
   97SAPS  C210 9663   4.360   1.546   7.523 -0.6977  0.0883 -0.3586
   97SAPS  H10R 9664   4.292   1.467   7.561 -0.1031 -1.0821 -1.6868
   97SAPS  H10S 9665   4.406   1.587   7.616 -2.7705 -0.3922  0.9055
   97SAPS  C211 9666   4.468   1.494   7.424  0.3995  0.6329  0.2189
   97SAPS  H11R 9667   4.427   1.418   7.355  0.8328 -0.7569  1.4779
   97SAPS  C212 9668   4.590   1.539   7.420  0.0205 -0.0221 -0.2210
   97SAPS  H12R 9669   4.661   1.504   7.344 -0.8019 -0.3040 -0.8617
   97SAPS  C213 9670   4.653   1.643   7.506 -0.3833 -0.0393 -0.8206
   97SAPS  H13R 9671   4.573   1.711   7.544  0.1998 -0.5878  1.4064
   97SAPS  H13S 9672   4.718   1.709   7.445 -1.8283  0.6712 -1.6478
   97SAPS  C214 9673   4.746   1.571   7.605  0.4547  0.2095  0.2241
   97SAPS  H14R 9674   4.814   1.492   7.570  1.9066  1.2962  0.4905
   97SAPS  C215 9675   4.741   1.582   7.739 -0.5299  0.2831 -0.0154
   97SAPS  H15R 9676   4.809   1.518   7.797 -1.6277 -1.5595 -0.7202
   97SAPS  C216 9677   4.641   1.670   7.818  0.3036  0.2452  0.0233
   97SAPS  H16R 9678   4.577   1.733   7.753  1.0618 -0.5605 -1.5197
   97SAPS  H16S 9679   4.690   1.748   7.880  1.0417 -0.1570 -0.0488
   97SAPS  C217 9680   4.548   1.599   7.916 -0.2988  0.4127 -0.0264
   97SAPS  H17R 9681   4.491   1.520   7.862 -0.4674 -0.1093  0.9045
   97SAPS  H17S 9682   4.470   1.672   7.946  0.4950  0.2386  2.5707
   97SAPS  C218 9683   4.613   1.553   8.051 -0.4563  0.1168  0.1876
   97SAPS  H18R 9684   4.637   1.644   8.110 -3.3179  1.3352 -0.4363
   97SAPS  H18S 9685   4.701   1.493   8.022 -1.2728 -2.2425  2.4083
   97SAPS  C219 9686   4.523   1.460   8.130  0.1606  0.1193 -0.2673
   97SAPS  H19R 9687   4.504   1.364   8.078 -2.0986  0.2279  0.2952
   97SAPS  H19S 9688   4.419   1.493   8.149 -0.2184 -0.7050 -0.9005
   97SAPS  C220 9689   4.588   1.405   8.262 -0.3347 -0.0587 -0.0397
   97SAPS  H20R 9690   4.637   1.487   8.321 -3.6026 -0.0401  2.7919
   97SAPS  H20S 9691   4.657   1.325   8.229 -1.4133 -0.8017 -0.4795
   97SAPS  H20T 9692   4.510   1.359   8.325  0.1169  0.2855  0.7883
   97SAPS   C33 9693   3.424   1.215   7.126  0.2180 -0.6143  0.5772
   97SAPS   H3X 9694   3.508   1.147   7.104  1.5297  1.3814 -0.6940
   97SAPS   H3Y 9695   3.336   1.166   7.079  1.4092 -1.2930 -0.9568
   97SAPS   C34 9696   3.379   1.203   7.268 -0.1689 -0.1528 -0.1878
   97SAPS   H4X 9697   3.355   1.101   7.305  1.2687  0.2811  2.0687
   97SAPS   H4Y 9698   3.280   1.253   7.265  0.4271  0.9606 -2.3154
   97SAPS   C35 9699   3.472   1.268   7.372 -0.1197  0.0993 -0.0950
   97SAPS   H5X 9700   3.490   1.377   7.357  1.6120 -0.1245  0.2273
   97SAPS   H5Y 9701   3.567   1.211   7.367 -0.7531 -1.4453  3.5086
   97SAPS   C36 9702   3.423   1.254   7.517  0.3523 -0.1420  0.0874
   97SAPS   H6X 9703   3.386   1.150   7.524 -0.5806  0.0629 -1.5331
   97SAPS   H6Y 9704   3.336   1.318   7.544 -0.2185 -1.5536  1.6922
   97SAPS   C37 9705   3.530   1.272   7.629  0.2194 -0.1312  0.1521
   97SAPS   H7X 9706   3.618   1.207   7.613  1.7549  2.3215 -1.9058
   97SAPS   H7Y 9707   3.482   1.238   7.723  0.9957 -0.2813  0.4920
   97SAPS   C38 9708   3.564   1.421   7.653  0.2570  0.2102  0.1447
   97SAPS   H8X 9709   3.470   1.478   7.664  0.3060  0.4350 -0.5685
   97SAPS   H8Y 9710   3.616   1.463   7.564  0.0529  2.0620  0.8852
   97SAPS   C39 9711   3.654   1.440   7.777 -0.3703  1.0332  0.2265
   97SAPS   H9X 9712   3.756   1.400   7.761 -0.1008  0.8819  2.2184
   97SAPS   H9Y 9713   3.609   1.369   7.849  0.1504  0.3323 -0.1299
   97SAPS  C310 9714   3.664   1.582   7.833 -0.4339 -0.7986  0.6568
   97SAPS  H10X 9715   3.681   1.583   7.943 -0.1135  0.2747  0.6004
   97SAPS  H10Y 9716   3.566   1.634   7.822  0.3621  0.4408 -0.7678
   97SAPS  C311 9717   3.778   1.662   7.782 -0.5944 -0.4084  0.2021
   97SAPS  H11X 9718   3.867   1.602   7.753  0.3618  1.1879 -0.2163
   97SAPS  H11Y 9719   3.813   1.730   7.864  2.3774  1.9771 -2.8986
   97SAPS  C312 9720   3.740   1.771   7.681  0.0839 -0.4647  0.1979
   97SAPS  H12X 9721   3.776   1.872   7.709 -0.9735  0.7321 -2.5699
   97SAPS  H12Y 9722   3.629   1.778   7.679  0.1061 -0.1250  0.2158
   97SAPS  C313 9723   3.797   1.731   7.547 -0.5753  0.5136 -0.7411
   97SAPS  H13X 9724   3.778   1.622   7.533  0.0829  0.2412  0.3448
   97SAPS  H13Y 9725   3.908   1.738   7.550 -0.5931  0.2966  1.0955
   97SAPS  C314 9726   3.762   1.817   7.431  0.4506  0.7264 -0.0227
   97SAPS  H14X 9727   3.848   1.822   7.362  0.8591  0.2614  0.4453
   97SAPS  H14Y 9728   3.735   1.921   7.461 -0.9104  0.2104  0.5962
   97SAPS  C315 9729   3.644   1.766   7.359  0.1309 -0.1513 -0.1802
   97SAPS  H15X 9730   3.560   1.760   7.432 -1.9863  4.5284 -2.0294
   97SAPS  H15Y 9731   3.662   1.663   7.321  1.4134 -1.1542  3.0322
   97SAPS  C316 9732   3.601   1.863   7.238  0.3643  0.1265 -0.3509
   97SAPS  H16X 9733   3.694   1.893   7.185  0.8183  0.8475  0.8403
   97SAPS  H16Y 9734   3.544   1.944   7.287 -1.4862 -0.0086 -2.1708
   97SAPS  C317 9735   3.505   1.804   7.131  1.6125  0.1806  0.5627
   97SAPS  H17X 9736   3.431   1.747   7.190  0.8003  1.1169  0.4568
   97SAPS  H17Y 9737   3.561   1.734   7.065  1.5039 -0.2292  0.9128
   97SAPS  C318 9738   3.414   1.897   7.046 -0.2714  0.0748 -0.3759
   97SAPS  H18X 9739   3.363   1.961   7.121 -0.9253  0.1440 -0.8815
   97SAPS  H18Y 9740   3.341   1.838   6.987 -1.3381 -0.9783  1.9569
   97SAPS  H18Z 9741   3.488   1.955   6.987 -1.4545  4.1363  1.9674
   98SAPS     N 9742   1.411   0.568   5.623  0.4683  0.4310  0.5897
   98SAPS   HN1 9743   1.419   0.536   5.525  0.6439 -1.0105  1.0638
   98SAPS   HN2 9744   1.501   0.608   5.659  0.5130  0.3845  0.5297
   98SAPS   HN3 9745   1.384   0.489   5.685  0.3237  0.1734  0.1997
   98SAPS   C12 9746   1.325   0.687   5.629 -0.9071 -0.8701 -0.1444
   98SAPS  H12A 9747   1.386   0.763   5.583 -2.4463  1.3907  1.4299
   98SAPS   C13 9748   1.187   0.681   5.562  0.2268  0.7621 -0.0199
   98SAPS  O13A 9749   1.153   0.572   5.510 -0.0028 -0.4820 -0.2330
   98SAPS  O13B 9750   1.136   0.787   5.522  0.6587 -0.1503  0.5326
   98SAPS   C11 9751   1.300   0.731   5.775  0.8258 -0.3819 -0.4340
   98SAPS  H11A 9752   1.269   0.643   5.835  0.6435  0.1453  0.2558
   98SAPS  H11B 9753   1.225   0.813   5.774 -0.2157 -1.3240 -2.1037
   98SAPS     P 9754   1.462   0.897   5.929 -0.2134  0.0873  0.2671
   98SAPS   O13 9755   1.609   0.924   5.913 -0.0909 -0.9614 -0.7712
   98SAPS   O14 9756   1.363   1.011   5.906 -0.6180 -0.2732  0.5612
   98SAPS   O12 9757   1.420   0.768   5.850 -1.0303 -0.2421 -0.0806
   98SAPS   O11 9758   1.443   0.846   6.074 -0.1514 -0.5076 -0.0061
   98SAPS    C1 9759   1.330   0.778   6.130  0.5995 -0.2311  0.2176
   98SAPS    HA 9760   1.250   0.751   6.058  0.5075 -0.2471  0.3259
   98SAPS    HB 9761   1.359   0.679   6.171 -0.0286  0.0886  1.4625
   98SAPS    C2 9762   1.267   0.865   6.248 -0.2532  0.0705 -0.5482
   98SAPS    HS 9763   1.242   0.965   6.205 -0.0991  0.6001  0.5950
   98SAPS   O21 9764   1.372   0.869   6.356 -0.2502  0.0170 -0.3812
   98SAPS   C21 9765   1.400   0.988   6.398  0.2387 -0.6355  0.2819
   98SAPS   O22 9766   1.345   1.094   6.366 -0.4220 -0.1375  0.1324
   98SAPS   C22 9767   1.489   0.978   6.512 -0.1624  0.4323  0.7679
   98SAPS   H2R 9768   1.574   0.907   6.501  0.3113  1.3155 -1.5364
   98SAPS   H2S 9769   1.537   1.076   6.530  0.6656  0.3469 -0.8756
   98SAPS    C3 9770   1.144   0.794   6.312 -0.0794 -0.1232  0.0813
   98SAPS    HX 9771   1.189   0.703   6.358  2.6211  1.9058  1.6811
   98SAPS    HY 9772   1.072   0.767   6.233 -0.0794  1.1240 -0.3592
   98SAPS   O31 9773   1.097   0.873   6.426 -0.1673  0.5820  0.1830
   98SAPS   C31 9774   1.009   0.962   6.390  0.1903 -1.1875 -0.1376
   98SAPS   O32 9775   0.961   0.968   6.276  0.6080 -0.2568  0.1130
   98SAPS   C32 9776   0.967   1.049   6.504  0.4284  0.0917 -0.6335
   98SAPS   H2X 9777   0.993   0.985   6.591 -1.4107 -2.8261 -2.1638
   98SAPS   H2Y 9778   0.860   1.077   6.499  1.0150  2.1527 -2.3767
   98SAPS   C23 9779   1.404   0.951   6.640  0.1042 -0.2185  0.8666
   98SAPS   H3R 9780   1.400   0.841   6.653  1.9746 -0.3570  0.3813
   98SAPS   H3S 9781   1.303   0.999   6.644 -0.5147 -1.5453  1.4900
   98SAPS   C24 9782   1.483   0.980   6.769  0.1435 -0.1761  0.1582
   98SAPS   H4R 9783   1.581   0.929   6.763  0.6826  0.7985  0.6635
   98SAPS   H4S 9784   1.422   0.937   6.852 -1.1122  1.2916  0.0244
   98SAPS   C25 9785   1.519   1.126   6.787 -0.5623  1.3239  0.0308
   98SAPS   H5R 9786   1.566   1.181   6.703 -2.9153  1.1439 -1.4720
   98SAPS   C26 9787   1.500   1.201   6.897 -0.2379  0.0657 -0.4286
   98SAPS   H6R 9788   1.521   1.308   6.903  0.3059 -0.1090  0.9537
   98SAPS   C27 9789   1.442   1.153   7.029  0.5837  0.2117  0.5025
   98SAPS   H7R 9790   1.417   1.045   7.029  0.2282  0.2655 -2.1930
   98SAPS   H7S 9791   1.346   1.207   7.043  0.6465  0.5488 -0.3757
   98SAPS   C28 9792   1.528   1.202   7.141  0.0286 -0.1125  0.7488
   98SAPS   H8R 9793   1.534   1.310   7.164  1.7780 -0.1479  0.5857
   98SAPS   C29 9794   1.587   1.118   7.231 -0.1390  0.3250 -0.0844
   98SAPS   H9R 9795   1.655   1.167   7.302 -1.4445  3.8886 -1.1681
   98SAPS  C210 9796   1.586   0.966   7.233 -0.1060  0.2855  0.0542
   98SAPS  H10R 9797   1.676   0.936   7.291  0.4389  3.2371  0.8472
   98SAPS  H10S 9798   1.607   0.934   7.129 -0.1957  1.0930 -0.2214
   98SAPS  C211 9799   1.450   0.923   7.293  0.2043  0.8409 -0.1256
   98SAPS  H11R 9800   1.367   0.918   7.221 -0.6078 -0.4644  0.8906
   98SAPS  C212 9801   1.420   0.925   7.425  0.0863 -0.2375 -0.3765
   98SAPS  H12R 9802   1.321   0.894   7.463  0.0183  1.4728  0.9271
   98SAPS  C213 9803   1.516   0.964   7.536 -0.2796  0.1882  0.6364
   98SAPS  H13R 9804   1.621   0.959   7.502 -0.8833 -4.5018 -0.9680
   98SAPS  H13S 9805   1.499   0.892   7.619 -0.5183 -0.5504 -0.0470
   98SAPS  C214 9806   1.473   1.101   7.585  0.3807 -0.0273  0.4666
   98SAPS  H14R 9807   1.479   1.176   7.504 -1.3459 -0.3051  0.0546
   98SAPS  C215 9808   1.442   1.135   7.705  0.3750 -0.6871  0.2242
   98SAPS  H15R 9809   1.417   1.241   7.714  3.6659  0.0257  1.5724
   98SAPS  C216 9810   1.446   1.042   7.828  0.4425 -0.5439  0.1164
   98SAPS  H16R 9811   1.496   1.092   7.913 -0.2555  0.3290  0.0183
   98SAPS  H16S 9812   1.514   0.955   7.813 -0.5560 -1.9141  3.0343
   98SAPS  C217 9813   1.297   1.000   7.869  0.0816 -0.0376 -0.3695
   98SAPS  H17R 9814   1.245   0.954   7.783  1.2897 -1.3025 -0.4307
   98SAPS  H17S 9815   1.243   1.094   7.893  1.7108  0.7341  0.3734
   98SAPS  C218 9816   1.283   0.913   7.994 -0.1399  0.0770 -0.4926
   98SAPS  H18R 9817   1.352   0.830   7.966 -0.0616  0.2411 -0.8000
   98SAPS  H18S 9818   1.184   0.863   7.992 -0.6115  1.0474 -1.9649
   98SAPS  C219 9819   1.314   0.982   8.127  0.2518  0.4979 -0.2137
   98SAPS  H19R 9820   1.259   1.078   8.133 -1.5658 -0.5815  0.8713
   98SAPS  H19S 9821   1.422   1.003   8.119  0.2564 -0.5630 -4.0382
   98SAPS  C220 9822   1.269   0.901   8.245  0.1808  0.0780 -0.6620
   98SAPS  H20R 9823   1.300   0.795   8.237 -1.1839 -0.4519  0.8031
   98SAPS  H20S 9824   1.158   0.904   8.250  0.2241 -0.5620  0.7981
   98SAPS  H20T 9825   1.302   0.940   8.344 -1.8376  0.3773 -0.0786
   98SAPS   C33 9826   1.043   1.178   6.518  0.9640  0.6162 -0.4419
   98SAPS   H3X 9827   1.036   1.233   6.422  0.5843  0.8495 -0.2809
   98SAPS   H3Y 9828   1.151   1.158   6.536  0.1730 -3.2905  0.5029
   98SAPS   C34 9829   0.989   1.261   6.632  0.0486  0.3871  0.2994
   98SAPS   H4X 9830   0.879   1.275   6.621 -0.2643 -1.8500  0.3402
   98SAPS   H4Y 9831   1.027   1.365   6.618  0.2697  0.4775  1.5811
   98SAPS   C35 9832   1.036   1.218   6.768 -0.9454  0.1484 -0.0119
   98SAPS   H5X 9833   1.147   1.216   6.774 -0.9835  1.1852  1.2691
   98SAPS   H5Y 9834   1.001   1.116   6.795  0.9952 -0.6073 -0.2246
   98SAPS   C36 9835   0.976   1.299   6.882 -0.2837  0.5532  0.0515
   98SAPS   H6X 9836   0.868   1.292   6.857  0.2595 -0.4592 -2.0913
   98SAPS   H6Y 9837   1.004   1.404   6.860 -2.1800  0.5106 -2.8771
   98SAPS   C37 9838   1.004   1.242   7.025  0.6794  0.0187 -0.4071
   98SAPS   H7X 9839   1.113   1.221   7.032  1.0584  2.0426 -0.0492
   98SAPS   H7Y 9840   0.947   1.146   7.033  2.3296 -0.7402  2.9405
   98SAPS   C38 9841   0.951   1.326   7.142  0.6959 -1.0632 -0.5424
   98SAPS   H8X 9842   0.840   1.322   7.147  0.7742 -3.5040  0.0500
   98SAPS   H8Y 9843   1.002   1.424   7.134  0.0698 -0.5749  1.2578
   98SAPS   C39 9844   0.983   1.269   7.283 -0.0657  0.2915 -0.0068
   98SAPS   H9X 9845   0.958   1.352   7.352  0.6474 -0.5826  1.3409
   98SAPS   H9Y 9846   1.084   1.232   7.310 -0.6660 -0.9123  0.6287
   98SAPS  C310 9847   0.905   1.136   7.317  0.5732  0.7025 -0.1098
   98SAPS  H10X 9848   0.926   1.058   7.241 -3.4331 -0.7079  0.1478
   98SAPS  H10Y 9849   0.797   1.159   7.308  0.4406 -0.5313 -1.9489
   98SAPS  C311 9850   0.943   1.084   7.463 -0.3131  0.3982  0.2446
   98SAPS  H11X 9851   1.053   1.074   7.473 -0.4802 -0.9326  0.8602
   98SAPS  H11Y 9852   0.900   0.985   7.488  2.0495 -0.6410  0.3025
   98SAPS  C312 9853   0.902   1.192   7.568 -0.3759  0.0707 -0.4774
   98SAPS  H12X 9854   0.813   1.243   7.526 -0.8869 -0.9653 -0.6660
   98SAPS  H12Y 9855   0.987   1.262   7.585 -0.6921  0.0172  1.3733
   98SAPS  C313 9856   0.875   1.134   7.703 -1.1075  0.3696 -0.2731
   98SAPS  H13X 9857   0.971   1.106   7.753 -1.7943  2.2367  2.1824
   98SAPS  H13Y 9858   0.808   1.047   7.687 -0.9928  0.2560 -0.1393
   98SAPS  C314 9859   0.798   1.233   7.804 -0.2074 -0.4320 -0.8037
   98SAPS  H14X 9860   0.701   1.260   7.757 -0.0167 -2.8019 -2.6684
   98SAPS  H14Y 9861   0.857   1.324   7.824  1.3373 -1.6106  0.1694
   98SAPS  C315 9862   0.787   1.165   7.943 -0.3131  0.2760 -0.3100
   98SAPS  H15X 9863   0.884   1.139   7.990 -1.0252  1.2423  1.7249
   98SAPS  H15Y 9864   0.739   1.065   7.933  1.4804 -0.5556 -0.8142
   98SAPS  C316 9865   0.720   1.256   8.044 -0.1260 -0.3934 -0.2686
   98SAPS  H16X 9866   0.620   1.285   8.007  0.9687  2.5076 -1.1531
   98SAPS  H16Y 9867   0.784   1.346   8.057 -0.6309 -0.0259 -0.3116
   98SAPS  C317 9868   0.695   1.208   8.184 -0.2312  0.4595 -0.3893
   98SAPS  H17X 9869   0.795   1.170   8.214 -1.0588 -1.7408 -0.3083
   98SAPS  H17Y 9870   0.638   1.113   8.171  0.5074 -0.0033 -0.2566
   98SAPS  C318 9871   0.642   1.312   8.273  1.2743  0.2731  0.5779
   98SAPS  H18X 9872   0.616   1.259   8.367  0.3391  1.3823  0.9633
   98SAPS  H18Y 9873   0.552   1.363   8.233  1.2848 -0.3346 -0.2396
   98SAPS  H18Z 9874   0.716   1.389   8.302  0.2086  1.8096 -0.6546
   99SAPS     N 9875   0.892   5.440   5.920  0.0753  0.5378  0.2899
   99SAPS   HN1 9876   0.978   5.450   5.863  0.5663  2.0899  1.2729
   99SAPS   HN2 9877   0.913   5.463   6.019 -1.9763  0.7567  0.7067
   99SAPS   HN3 9878   0.877   5.337   5.917 -1.0537  0.6600  1.1485
   99SAPS   C12 9879   0.765   5.510   5.873 -0.0590  0.1641 -0.2789
   99SAPS  H12A 9880   0.793   5.614   5.879 -1.2517  0.4320  0.8932
   99SAPS   C13 9881   0.740   5.481   5.723  0.0091  0.7613  0.6498
   99SAPS  O13A 9882   0.819   5.404   5.659 -0.5573  0.0378 -0.7166
   99SAPS  O13B 9883   0.652   5.539   5.659  0.3765 -0.0520 -0.5549
   99SAPS   C11 9884   0.640   5.458   5.961 -0.5008  0.5372 -0.7329
   99SAPS  H11A 9885   0.641   5.347   5.957 -1.0393  0.4737  0.5060
   99SAPS  H11B 9886   0.551   5.490   5.902 -2.1766 -1.1878  0.8243
   99SAPS     P 9887   0.566   5.638   6.140 -0.2400 -0.5233 -0.1511
   99SAPS   O13 9888   0.628   5.746   6.059 -0.2234  0.1388 -0.4131
   99SAPS   O14 9889   0.425   5.610   6.131 -0.0613 -0.5290  0.4045
   99SAPS   O12 9890   0.640   5.504   6.098  0.3196 -0.5297  0.4961
   99SAPS   O11 9891   0.597   5.661   6.291 -0.1173 -0.2210  0.1953
   99SAPS    C1 9892   0.648   5.561   6.373 -0.3526  0.7229  0.6658
   99SAPS    HA 9893   0.610   5.460   6.345  1.4361 -0.2935  1.7863
   99SAPS    HB 9894   0.759   5.561   6.375 -0.3533 -0.3292  1.0200
   99SAPS    C2 9895   0.612   5.572   6.522 -0.4213  0.4832 -0.2984
   99SAPS    HS 9896   0.669   5.502   6.587 -0.5204 -0.7303 -1.4905
   99SAPS   O21 9897   0.481   5.563   6.555 -0.2793 -0.2934  0.3679
   99SAPS   C21 9898   0.423   5.446   6.554 -0.1722  0.2887  0.1574
   99SAPS   O22 9899   0.472   5.341   6.513  0.0395  0.0559 -0.2138
   99SAPS   C22 9900   0.278   5.467   6.615  0.3607  0.9506  0.0734
   99SAPS   H2R 9901   0.286   5.510   6.717 -3.4004 -0.4588  1.0421
   99SAPS   H2S 9902   0.235   5.539   6.542 -2.9703  0.2340  1.2421
   99SAPS    C3 9903   0.648   5.717   6.562  0.1520  0.0252 -0.2862
   99SAPS    HX 9904   0.586   5.794   6.510  3.0900  2.4438 -0.3342
   99SAPS    HY 9905   0.753   5.739   6.535 -0.3121  2.5335 -0.2075
   99SAPS   O31 9906   0.618   5.742   6.704  0.1309  0.7178  0.3880
   99SAPS   C31 9907   0.652   5.863   6.742  0.1068  0.0393 -0.3806
   99SAPS   O32 9908   0.695   5.951   6.671 -0.3931 -0.0346  0.3744
   99SAPS   C32 9909   0.654   5.878   6.889  0.2463 -0.8019  0.0224
   99SAPS   H2X 9910   0.730   5.809   6.930  0.7834  0.0059  0.4153
   99SAPS   H2Y 9911   0.559   5.834   6.927  0.6176 -0.6941  1.0940
   99SAPS   C23 9912   0.191   5.337   6.616 -0.7112 -0.2387  0.2063
   99SAPS   H3R 9913   0.212   5.266   6.533  1.1778 -0.6626  1.0048
   99SAPS   H3S 9914   0.088   5.379   6.614 -0.5468  0.2523  1.7224
   99SAPS   C24 9915   0.219   5.244   6.738  0.6241  0.5443 -0.1743
   99SAPS   H4R 9916   0.326   5.215   6.730  1.0114  2.0461 -0.7876
   99SAPS   H4S 9917   0.165   5.149   6.720  1.7009 -0.0830 -0.1074
   99SAPS   C25 9918   0.175   5.292   6.873 -0.3666  0.4870  0.1987
   99SAPS   H5R 9919   0.068   5.316   6.884  0.0519  1.8758  1.2364
   99SAPS   C26 9920   0.263   5.320   6.969  0.1530 -0.1483 -0.6302
   99SAPS   H6R 9921   0.217   5.362   7.060  0.0308 -1.7283  0.0460
   99SAPS   C27 9922   0.413   5.313   6.970 -0.1230 -0.0609  0.0951
   99SAPS   H7R 9923   0.442   5.215   6.925 -1.3736  0.1744 -1.2903
   99SAPS   H7S 9924   0.449   5.304   7.074  1.4779 -0.2980 -0.4585
   99SAPS   C28 9925   0.494   5.426   6.905 -0.0103  0.2567 -0.3118
   99SAPS   H8R 9926   0.494   5.420   6.796 -1.8414  1.4644 -0.3952
   99SAPS   C29 9927   0.547   5.536   6.964 -0.4851 -0.1032 -1.0898
   99SAPS   H9R 9928   0.606   5.600   6.897 -0.3304 -1.2476 -2.0600
   99SAPS  C210 9929   0.550   5.567   7.110 -0.5126  0.7339  0.0628
   99SAPS  H10R 9930   0.653   5.593   7.143  0.0069 -0.4632 -0.5951
   99SAPS  H10S 9931   0.536   5.473   7.167  0.4863 -0.3775 -1.4771
   99SAPS  C211 9932   0.436   5.663   7.128 -0.3733 -0.2560 -0.0046
   99SAPS  H11R 9933   0.393   5.715   7.041  1.0414  1.7342  0.4332
   99SAPS  C212 9934   0.378   5.692   7.252 -0.0958  0.7370  0.5196
   99SAPS  H12R 9935   0.283   5.748   7.255 -2.8005 -3.5800  0.2223
   99SAPS  C213 9936   0.414   5.606   7.371 -0.4159  0.4677 -0.4222
   99SAPS  H13R 9937   0.513   5.632   7.415  1.1510 -1.3336 -2.7196
   99SAPS  H13S 9938   0.426   5.499   7.346 -2.8819  0.1136 -0.1777
   99SAPS  C214 9939   0.301   5.612   7.476  0.0393 -0.1173 -0.1405
   99SAPS  H14R 9940   0.198   5.616   7.439 -0.1947 -1.2594  0.3744
   99SAPS  C215 9941   0.318   5.616   7.605 -0.3842  0.0511  0.4978
   99SAPS  H15R 9942   0.226   5.635   7.662  0.0763 -1.6147  1.8211
   99SAPS  C216 9943   0.447   5.611   7.689 -0.1745  0.8323 -0.1050
   99SAPS  H16R 9944   0.544   5.608   7.636  0.1323 -0.5456  0.5266
   99SAPS  H16S 9945   0.443   5.516   7.746 -2.2861 -0.8748 -3.0199
   99SAPS  C217 9946   0.453   5.723   7.786  0.7116 -0.5443 -0.1997
   99SAPS  H17R 9947   0.358   5.736   7.841  0.7924  1.3482 -0.4828
   99SAPS  H17S 9948   0.473   5.814   7.727  1.7111  0.5831  1.8085
   99SAPS  C218 9949   0.549   5.706   7.901  0.2105  0.2495  0.2314
   99SAPS  H18R 9950   0.578   5.799   7.953 -0.6098 -0.0641  1.2751
   99SAPS  H18S 9951   0.648   5.674   7.860  0.0509  0.1959 -0.1146
   99SAPS  C219 9952   0.489   5.621   8.014  0.4014 -0.2236  0.6322
   99SAPS  H19R 9953   0.535   5.520   8.013 -1.1798 -0.9484 -1.3941
   99SAPS  H19S 9954   0.386   5.588   7.993 -0.3750  2.2450  0.3938
   99SAPS  C220 9955   0.490   5.673   8.154  0.4301 -0.0747 -0.5357
   99SAPS  H20R 9956   0.475   5.585   8.220 -1.5444  0.0998 -0.7316
   99SAPS  H20S 9957   0.409   5.745   8.177 -0.3564 -1.2271  0.4194
   99SAPS  H20T 9958   0.586   5.717   8.188  0.3552  0.6135 -1.2119
   99SAPS   C33 9959   0.682   6.024   6.944 -0.3073 -0.1794 -1.6271
   99SAPS   H3X 9960   0.650   6.096   6.866  1.2870 -0.0496 -2.1827
   99SAPS   H3Y 9961   0.791   6.041   6.953  0.0564 -2.0274 -2.3119
   99SAPS   C34 9962   0.632   6.043   7.085 -0.1731 -0.6264  0.1358
   99SAPS   H4X 9963   0.547   5.976   7.110 -0.5923  0.3885  1.5114
   99SAPS   H4Y 9964   0.598   6.149   7.089  0.7535 -0.3366  0.5965
   99SAPS   C35 9965   0.750   6.026   7.193  0.1455  0.5936  0.7086
   99SAPS   H5X 9966   0.720   6.066   7.293  0.9240 -0.7596  1.4977
   99SAPS   H5Y 9967   0.845   6.073   7.159  0.4963 -1.2770 -0.9901
   99SAPS   C36 9968   0.775   5.876   7.232 -0.5657  0.3541  0.5355
   99SAPS   H6X 9969   0.835   5.824   7.154 -1.4578 -0.9077  0.6776
   99SAPS   H6Y 9970   0.676   5.826   7.226 -1.0388  1.2992  0.3481
   99SAPS   C37 9971   0.836   5.855   7.369 -0.2221  0.6766  0.1891
   99SAPS   H7X 9972   0.814   5.748   7.387  1.6780  0.0887 -0.8406
   99SAPS   H7Y 9973   0.789   5.925   7.442  2.2093  0.5301  1.9475
   99SAPS   C38 9974   0.985   5.888   7.378 -0.2484  0.1213 -0.3340
   99SAPS   H8X 9975   0.994   5.994   7.349  2.6952  0.0500  0.2124
   99SAPS   H8Y 9976   1.037   5.825   7.303  1.1179  0.4064  0.3700
   99SAPS   C39 9977   1.062   5.870   7.509 -0.2242  0.5774  0.5157
   99SAPS   H9X 9978   1.170   5.888   7.490 -1.1405  3.8376 -2.0910
   99SAPS   H9Y 9979   1.046   5.770   7.555 -0.6534  1.2131  1.7553
   99SAPS  C310 9980   1.028   5.991   7.608 -0.6837  0.5757  0.6670
   99SAPS  H10X 9981   0.919   6.009   7.613 -0.6357  1.0832  0.0616
   99SAPS  H10Y 9982   1.077   6.078   7.558 -0.9099 -0.4882 -1.4607
   99SAPS  C311 9983   1.083   5.981   7.754  0.4494  0.1078 -0.0333
   99SAPS  H11X 9984   1.069   6.084   7.793 -0.7828 -0.2001  0.3543
   99SAPS  H11Y 9985   1.191   5.958   7.740  0.7350  1.7128 -0.5227
   99SAPS  C312 9986   1.016   5.869   7.845  0.6243 -0.3810  0.3499
   99SAPS  H12X 9987   1.054   5.872   7.949 -1.7889 -1.5826  1.3156
   99SAPS  H12Y 9988   1.035   5.769   7.800 -0.0715 -1.5710  2.6177
   99SAPS  C313 9989   0.863   5.895   7.854 -0.4470  0.6414 -0.0088
   99SAPS  H13X 9990   0.794   5.821   7.899 -0.8798 -0.4473 -2.3720
   99SAPS  H13Y 9991   0.825   5.894   7.750 -1.7164  0.1966  0.4500
   99SAPS  C314 9992   0.820   6.027   7.929 -0.2537 -0.2285  0.7708
   99SAPS  H14X 9993   0.714   6.019   7.961  0.2473 -1.9627  2.0725
   99SAPS  H14Y 9994   0.834   6.114   7.862 -2.4845  0.2564  0.9242
   99SAPS  C315 9995   0.891   6.056   8.061 -0.5761  0.0767  0.0953
   99SAPS  H15X 9996   1.000   6.079   8.051 -0.5050 -0.1727  0.2836
   99SAPS  H15Y 9997   0.892   5.965   8.125 -2.3871 -1.6014 -2.1777
   99SAPS  C316 9998   0.825   6.153   8.155 -0.7159 -0.0091  0.3915
   99SAPS  H16X 9999   0.722   6.116   8.171 -0.8328  0.9856  2.0472
   99SAPS  H16Y10000   0.805   6.249   8.102 -0.5571  0.7645  1.6773
   99SAPS  C31710001   0.901   6.184   8.287 -0.2289 -0.0251 -0.5084
   99SAPS  H17X10002   0.992   6.238   8.254 -1.6849  2.2765 -0.8764
   99SAPS  H17Y10003   0.938   6.094   8.341  2.6151  2.0200  1.0807
   99SAPS  C31810004   0.839   6.269   8.404 -0.0433  0.7527  0.0360
   99SAPS  H18X10005   0.756   6.219   8.459 -0.0954  0.1412 -0.5810
   99SAPS  H18Y10006   0.816   6.367   8.356 -0.8997  0.7429  0.3998
   99SAPS  H18Z10007   0.924   6.278   8.474  0.6985  1.0294 -0.8929
  100SAPS     N10008   3.079   1.216   6.391 -0.1929  0.1011 -0.5974
  100SAPS   HN110009   3.001   1.285   6.390  1.9578  2.6050 -2.9700
  100SAPS   HN210010   3.034   1.123   6.402 -0.3260  0.2165 -0.1505
  100SAPS   HN310011   3.142   1.240   6.470 -0.0256 -1.7287 -0.1472
  100SAPS   C1210012   3.157   1.234   6.268  0.6604  0.6393  0.1454
  100SAPS  H12A10013   3.093   1.191   6.193  1.3870 -1.4426  0.6710
  100SAPS   C1310014   3.202   1.381   6.241 -0.6578 -0.4445 -0.1763
  100SAPS  O13A10015   3.137   1.471   6.303 -0.1548 -0.0686  0.5334
  100SAPS  O13B10016   3.270   1.400   6.139 -0.6245 -0.2293  0.3019
  100SAPS   C1110017   3.287   1.147   6.269 -0.3976 -0.4272 -0.1877
  100SAPS  H11A10018   3.355   1.187   6.347 -0.4747  1.8722 -1.2641
  100SAPS  H11B10019   3.341   1.162   6.174 -0.5739 -0.5467 -0.3087
  100SAPS     P10020   3.372   0.901   6.304  0.2513  0.4361  0.4217
  100SAPS   O1310021   3.294   0.775   6.300  0.0382  0.6089  0.0440
  100SAPS   O1410022   3.487   0.917   6.209  1.1086 -0.0217 -0.2707
  100SAPS   O1210023   3.261   1.008   6.279 -0.0194 -0.1358 -0.3328
  100SAPS   O1110024   3.426   0.917   6.451 -0.2751  0.4262 -0.3935
  100SAPS    C110025   3.332   0.922   6.560  0.5607  0.0053  0.1923
  100SAPS    HA10026   3.260   1.007   6.555  1.3351  0.6387 -0.3215
  100SAPS    HB10027   3.261   0.837   6.557  1.5826 -0.8421 -0.2986
  100SAPS    C210028   3.406   0.936   6.696  0.0531 -0.5228  0.1404
  100SAPS    HS10029   3.483   0.857   6.707 -0.3229 -0.7527  1.1484
  100SAPS   O2110030   3.310   0.933   6.800  0.2984 -0.2449  0.3778
  100SAPS   C2110031   3.262   0.817   6.830 -0.3434  0.3815 -0.1521
  100SAPS   O2210032   3.256   0.720   6.761  0.6809 -0.6377 -0.1053
  100SAPS   C2210033   3.205   0.823   6.967  0.0846 -0.7443 -0.1555
  100SAPS   H2R10034   3.144   0.915   6.962 -0.2897 -0.9502  0.6295
  100SAPS   H2S10035   3.132   0.747   7.001 -1.2691  0.3896 -0.4842
  100SAPS    C310036   3.491   1.070   6.694 -0.0792 -0.1849  0.6036
  100SAPS    HX10037   3.420   1.150   6.664 -0.2118 -0.6168 -0.2717
  100SAPS    HY10038   3.555   1.065   6.603  1.0569 -1.0835  1.4386
  100SAPS   O3110039   3.559   1.103   6.814 -0.2388 -0.1609  0.0562
  100SAPS   C3110040   3.678   1.045   6.838  0.6382 -0.4130  0.2650
  100SAPS   O3210041   3.729   0.944   6.783  0.0564 -1.2816 -0.2050
  100SAPS   C3210042   3.743   1.124   6.946  0.3753  1.1573  0.3321
  100SAPS   H2X10043   3.681   1.215   6.962  0.6139  1.1414  1.3527
  100SAPS   H2Y10044   3.844   1.147   6.908  1.0552 -0.9588  0.8005
  100SAPS   C2310045   3.317   0.837   7.074  0.2376 -0.2767 -0.3465
  100SAPS   H3R10046   3.283   0.875   7.172  2.0637  0.7831 -0.1102
  100SAPS   H3S10047   3.400   0.908   7.052  1.0031 -1.6642 -2.0726
  100SAPS   C2410048   3.406   0.707   7.098  0.3851 -0.4996  0.1833
  100SAPS   H4R10049   3.503   0.746   7.136  0.1011  0.8626 -0.4399
  100SAPS   H4S10050   3.429   0.658   7.001  2.1696 -1.7415  1.2003
  100SAPS   C2510051   3.343   0.602   7.190 -0.2038 -0.1574  0.4070
  100SAPS   H5R10052   3.270   0.538   7.137 -0.1242  1.2361 -1.4093
  100SAPS   C2610053   3.371   0.580   7.322  0.4714 -0.5381 -0.1105
  100SAPS   H6R10054   3.332   0.491   7.373  1.4510 -1.2871 -0.6425
  100SAPS   C2710055   3.457   0.672   7.407 -0.6590 -0.7692 -0.0214
  100SAPS   H7R10056   3.416   0.775   7.398  1.6774  0.2031  0.2709
  100SAPS   H7S10057   3.555   0.682   7.356 -1.0074 -1.6680 -0.8929
  100SAPS   C2810058   3.494   0.622   7.547  0.1452  0.3554  0.1437
  100SAPS   H8R10059   3.508   0.513   7.560  0.6437  0.3417 -0.5143
  100SAPS   C2910060   3.497   0.688   7.666  0.4810  0.1481  0.5709
  100SAPS   H9R10061   3.519   0.634   7.759  0.8843  0.8300  0.8799
  100SAPS  C21010062   3.464   0.831   7.680 -0.2850  0.2282 -0.7809
  100SAPS  H10R10063   3.390   0.846   7.762 -1.5203 -1.2221 -1.6083
  100SAPS  H10S10064   3.412   0.861   7.586 -0.2179 -0.5649 -1.0721
  100SAPS  C21110065   3.585   0.914   7.707 -0.1741 -0.2817  0.3318
  100SAPS  H11R10066   3.631   0.946   7.612 -0.0578  0.0957  0.5157
  100SAPS  C21210067   3.642   0.949   7.823  0.9200 -0.3005  0.5642
  100SAPS  H12R10068   3.734   1.010   7.823 -0.0344  1.1801 -0.4676
  100SAPS  C21310069   3.596   0.910   7.960 -0.4320  0.5969 -0.4769
  100SAPS  H13R10070   3.682   0.912   8.031 -0.9600  1.3407  0.1469
  100SAPS  H13S10071   3.566   0.803   7.953  0.8590  0.2904 -1.5825
  100SAPS  C21410072   3.471   0.984   8.010  0.1911  0.3758 -0.4091
  100SAPS  H14R10073   3.395   1.004   7.933  0.7471 -0.1015 -1.0888
  100SAPS  C21510074   3.443   1.037   8.130 -0.7182  0.3455 -0.2768
  100SAPS  H15R10075   3.344   1.084   8.142 -1.3733 -1.0646 -0.0101
  100SAPS  C21610076   3.528   1.018   8.252  0.4219 -0.0207 -0.0354
  100SAPS  H16R10077   3.621   0.960   8.232 -0.7347 -1.4641 -1.3794
  100SAPS  H16S10078   3.472   0.950   8.320 -0.6514 -0.0451 -0.9362
  100SAPS  C21710079   3.539   1.155   8.317 -0.0107  0.4151  0.4860
  100SAPS  H17R10080   3.602   1.147   8.408 -0.7121  3.0338  1.2682
  100SAPS  H17S10081   3.439   1.193   8.347 -0.5230  2.4597 -3.5112
  100SAPS  C21810082   3.627   1.251   8.235 -0.1009 -0.1078 -0.0127
  100SAPS  H18R10083   3.557   1.292   8.159 -1.9142  2.3580  2.8466
  100SAPS  H18S10084   3.703   1.200   8.173  0.0635  0.9358 -0.6866
  100SAPS  C21910085   3.685   1.372   8.308  0.2336  0.2487 -0.7971
  100SAPS  H19R10086   3.779   1.328   8.347 -0.3627 -2.4823 -2.2491
  100SAPS  H19S10087   3.619   1.408   8.390  0.8806  0.1645 -0.2328
  100SAPS  C22010088   3.721   1.485   8.213  0.0468  0.0485 -0.1794
  100SAPS  H20R10089   3.780   1.439   8.131  2.1964 -2.5311  2.7116
  100SAPS  H20S10090   3.779   1.557   8.274 -1.7055  0.5250  0.9721
  100SAPS  H20T10091   3.635   1.544   8.174  0.5103 -0.6628 -2.3724
  100SAPS   C3310092   3.774   1.036   7.078  0.5415  0.5560  0.6206
  100SAPS   H3X10093   3.859   0.972   7.046 -0.3537 -0.4331  0.1986
  100SAPS   H3Y10094   3.696   0.971   7.122 -0.1431  0.4051 -0.7944
  100SAPS   C3410095   3.820   1.133   7.193 -0.0265  0.3757 -1.3749
  100SAPS   H4X10096   3.736   1.197   7.225  1.2486  1.1320  0.5201
  100SAPS   H4Y10097   3.906   1.190   7.152  0.7675  0.7977  0.8325
  100SAPS   C3510098   3.860   1.062   7.322 -0.6175  1.4123  0.0462
  100SAPS   H5X10099   3.951   1.003   7.299  0.0589  1.1594  3.2582
  100SAPS   H5Y10100   3.788   0.984   7.352  0.9596 -1.1039 -2.4875
  100SAPS   C3610101   3.912   1.160   7.424  0.4368 -1.3586 -0.1216
  100SAPS   H6X10102   3.838   1.237   7.454 -0.1611 -1.7871 -0.5012
  100SAPS   H6Y10103   3.989   1.225   7.378 -1.7099  2.4314  1.4905
  100SAPS   C3710104   3.988   1.097   7.544  0.5816 -0.0041 -0.2305
  100SAPS   H7X10105   4.083   1.048   7.513  1.4824  2.8394 -2.1997
  100SAPS   H7Y10106   3.925   1.023   7.597  1.0333 -1.9355 -2.3191
  100SAPS   C3810107   4.034   1.209   7.640 -0.2456  0.3032  0.0544
  100SAPS   H8X10108   3.968   1.298   7.634 -0.4817  0.1039 -0.3593
  100SAPS   H8Y10109   4.139   1.237   7.619  0.3335  0.4661  2.8978
  100SAPS   C3910110   4.004   1.151   7.778 -0.0541  0.2415 -0.0651
  100SAPS   H9X10111   4.049   1.051   7.796  0.3017  0.1723 -1.3394
  100SAPS   H9Y10112   3.896   1.134   7.797  0.2497  0.2294  1.8294
  100SAPS  C31010113   4.060   1.246   7.892  0.1659  0.1879 -0.1650
  100SAPS  H10X10114   4.017   1.346   7.872 -1.0451  0.2746  2.5928
  100SAPS  H10Y10115   4.171   1.232   7.889 -0.0767 -2.2501  0.7342
  100SAPS  C31110116   4.013   1.209   8.038  0.0867  0.1651  0.3737
  100SAPS  H11X10117   4.007   1.099   8.044 -2.1114  0.2728  0.7733
  100SAPS  H11Y10118   3.909   1.250   8.037  0.9846  2.5483 -2.6226
  100SAPS  C31210119   4.097   1.267   8.155 -0.7621  0.0213  0.3959
  100SAPS  H12X10120   4.076   1.376   8.162  2.1705  0.6414  0.3447
  100SAPS  H12Y10121   4.203   1.249   8.128  0.0761  3.1743  1.3219
  100SAPS  C31310122   4.074   1.202   8.293  0.0695 -0.2156 -0.3034
  100SAPS  H13X10123   4.135   1.109   8.292  1.4770  0.6860 -0.6880
  100SAPS  H13Y10124   3.967   1.177   8.304  0.7476 -2.6624  0.9169
  100SAPS  C31410125   4.108   1.296   8.414 -0.1542  0.3406  0.6314
  100SAPS  H14X10126   4.027   1.368   8.440 -1.8009 -0.7932 -1.1723
  100SAPS  H14Y10127   4.191   1.361   8.379 -0.5592  1.8762  2.4552
  100SAPS  C31510128   4.152   1.231   8.547  0.3013 -0.3764 -0.4697
  100SAPS  H15X10129   4.173   1.310   8.622 -1.2136 -1.0002  0.6573
  100SAPS  H15Y10130   4.235   1.162   8.521  0.6859 -1.0485  2.3399
  100SAPS  C31610131   4.050   1.141   8.617  0.0738 -0.3628  0.0102
  100SAPS  H16X10132   4.097   1.079   8.697 -1.2714 -0.4008  0.7975
  100SAPS  H16Y10133   4.019   1.077   8.532  0.7307  0.1346 -0.6028
  100SAPS  C31710134   3.921   1.213   8.675 -0.0793  0.1582 -0.0621
  100SAPS  H17X10135   3.843   1.134   8.678  1.7712 -1.6746  2.7836
  100SAPS  H17Y10136   3.886   1.291   8.604  0.4289 -0.9027 -1.4841
  100SAPS  C31810137   3.955   1.259   8.822 -0.7180  0.0995  0.1227
  100SAPS  H18X10138   4.034   1.336   8.817  0.5601 -1.2106 -0.0971
  100SAPS  H18Y10139   3.992   1.177   8.887 -0.0572  1.1391  1.0705
  100SAPS  H18Z10140   3.863   1.309   8.859  0.1655  2.5239 -0.8839
  101OSM      N10141   1.990   2.097  11.147  0.0602  0.3935  0.3999
  101OSM    C1510142   2.097   1.994  11.141 -0.0770 -0.7391  0.4933
  101OSM   H15A10143   2.109   1.933  11.230  1.8292 -1.1370 -0.0115
  101OSM   H15B10144   2.192   2.034  11.111 -0.6288 -0.6745 -1.2562
  101OSM   H15C10145   2.059   1.920  11.071  0.9454 -0.9747  0.1880
  101OSM    C1410146   1.866   2.038  11.205 -0.1165  0.9456 -0.8899
  101OSM   H14A10147   1.820   1.977  11.129  0.3952 -2.2323  1.2813
  101OSM   H14B10148   1.793   2.112  11.235  1.6556  1.6318  1.9012
  101OSM   H14C10149   1.887   1.978  11.292 -0.0667  1.0177 -0.8525
  101OSM    C1310150   2.023   2.218  11.237  0.2397  0.9932  0.1896
  101OSM   H13A10151   2.110   2.271  11.200  1.9703 -3.4172 -2.5027
  101OSM   H13B10152   2.039   2.182  11.337 -0.3655  1.5221  0.4763
  101OSM   H13C10153   1.936   2.281  11.245 -0.6071 -0.0273 -0.8485
  101OSM    C1210154   1.960   2.157  11.009  0.2144  0.1452 -0.1146
  101OSM   H12A10155   2.048   2.215  10.986  0.7395 -0.7701 -0.4020
  101OSM   H12B10156   1.875   2.223  11.019  1.6368  2.1445 -0.8845
  101OSM    C1110157   1.932   2.057  10.899 -0.2278 -0.5761  0.5666
  101OSM   H11A10158   2.032   2.018  10.874 -0.2856  0.6579 -1.7419
  101OSM   H11B10159   1.904   2.114  10.807 -2.7772  0.5846  2.0067
  101OSM      P10160   1.835   1.812  10.900  0.0392  0.1636  0.0355
  101OSM    O1310161   1.923   1.740  10.994 -0.4526  0.4516 -0.8414
  101OSM    O1410162   1.696   1.762  10.877 -0.2801 -0.4936 -0.2917
  101OSM    O1110163   1.915   1.806  10.761  0.0326 -0.4227 -0.3618
  101OSM    O1210164   1.822   1.968  10.930  0.4325  0.5988 -0.0184
  101OSM    C1S10165   1.851   1.757  10.642  0.2649  0.4399 -0.7002
  101OSM    H1S10166   1.749   1.800  10.633  0.4232  0.7016 -1.3370
  101OSM    H1T10167   1.836   1.647  10.640 -0.0196  0.4847 -1.1654
  101OSM     NF10168   1.900   1.774  10.388 -0.7629 -0.3864  0.5715
  101OSM    HNF10169   1.932   1.685  10.357 -2.7577 -0.6436 -0.7955
  101OSM    C2S10170   1.941   1.810  10.528 -0.6337  0.1852 -0.1848
  101OSM    H2S10171   1.938   1.920  10.539 -2.3655  0.1441 -0.1907
  101OSM    C3S10172   2.088   1.764  10.559  0.1741 -0.0361  0.6605
  101OSM    H3S10173   2.093   1.656  10.581 -2.1648 -0.1090  0.8797
  101OSM     O310174   2.153   1.824  10.677  0.0075 -0.2553 -0.1321
  101OSM    HO310175   2.081   1.875  10.715 -2.3775 -2.6652 -1.2625
  101OSM    C4S10176   2.177   1.797  10.446 -0.1765 -0.3129 -0.2740
  101OSM    H4S10177   2.184   1.902  10.413  0.0048 -0.2282  0.0379
  101OSM    C5S10178   2.244   1.713  10.368 -0.4783 -0.3575 -0.6591
  101OSM    H5S10179   2.236   1.604  10.383  0.0196 -0.1509  1.2587
  101OSM    C6S10180   2.328   1.776  10.255 -0.1461  0.9433 -0.5922
  101OSM    H6S10181   2.420   1.716  10.238 -0.5162  0.0782  0.4087
  101OSM    H6T10182   2.356   1.881  10.278 -0.0726  0.6033  0.9209
  101OSM    C7S10183   2.243   1.791  10.127  0.0724  0.1681  0.2435
  101OSM    H7S10184   2.147   1.845  10.144  0.0440 -0.2027  1.2844
  101OSM    H7T10185   2.210   1.690  10.096 -1.5858  0.5926  0.5553
  101OSM    C8S10186   2.310   1.861  10.003  0.0155  0.3740 -0.3767
  101OSM    H8S10187   2.414   1.822  10.009 -0.3870 -0.3825  2.0911
  101OSM    H8T10188   2.316   1.971  10.012 -1.0053  0.3254  0.9771
  101OSM    C9S10189   2.258   1.818   9.866 -0.2155 -0.2849 -0.0244
  101OSM    H9S10190   2.160   1.870   9.860  0.2589  0.5332 -0.7419
  101OSM    H9T10191   2.242   1.708   9.864  0.9573 -0.5495  3.0149
  101OSM   C10S10192   2.341   1.883   9.749 -0.4991  0.2735  0.3211
  101OSM   H10S10193   2.445   1.846   9.760 -1.1789 -1.4127  1.3056
  101OSM   H10T10194   2.350   1.992   9.763  4.3312  0.4068 -2.5778
  101OSM   C11S10195   2.300   1.827   9.609 -0.0308  1.0069 -0.5657
  101OSM   H11S10196   2.197   1.855   9.579 -1.0243 -0.0727  1.6729
  101OSM   H11T10197   2.295   1.719   9.634 -2.4113  1.9052  3.2206
  101OSM   C12S10198   2.388   1.870   9.498 -0.5088 -0.4206 -0.8154
  101OSM   H12S10199   2.493   1.835   9.505 -0.0230  0.6794 -2.2855
  101OSM   H12T10200   2.391   1.981   9.498  1.3814 -0.4660 -1.5825
  101OSM   C13S10201   2.337   1.844   9.356 -0.5965  0.1446 -0.1503
  101OSM   H13S10202   2.233   1.877   9.341 -0.2932  1.3034  0.2429
  101OSM   H13T10203   2.340   1.734   9.342 -1.6606 -0.0576  1.0516
  101OSM   C14S10204   2.426   1.892   9.240  0.2798 -0.1345  0.8113
  101OSM   H14S10205   2.529   1.852   9.246  0.8683  1.2605  0.2161
  101OSM   H14T10206   2.434   2.001   9.257  0.7978 -0.1038  0.3901
  101OSM   C15S10207   2.361   1.874   9.102 -0.2177  0.7323  0.0251
  101OSM   H15S10208   2.311   1.775   9.104  1.4219 -0.0960  1.8596
  101OSM   H15T10209   2.444   1.874   9.028  1.8076 -1.6860  2.1879
  101OSM   C16S10210   2.261   1.976   9.063  0.0183  0.6972 -0.4245
  101OSM   H16S10211   2.312   2.075   9.062 -1.0467  1.2484 -0.2994
  101OSM   H16T10212   2.178   1.983   9.137 -0.2395 -0.0736 -0.6356
  101OSM   C17S10213   2.195   1.945   8.923 -0.0033 -0.2136 -0.0617
  101OSM   H17S10214   2.131   1.854   8.928 -0.0394 -0.3136 -2.0923
  101OSM   H17T10215   2.276   1.929   8.849  0.8486 -0.1841  0.8530
  101OSM   C18S10216   2.110   2.074   8.883  0.4035 -0.8956  0.0882
  101OSM   H18S10217   2.027   2.068   8.956  0.1410 -0.1505 -0.1460
  101OSM   H18T10218   2.069   2.068   8.780 -1.1973 -0.6328  0.6946
  101OSM   H18U10219   2.169   2.168   8.884 -0.9243 -0.0610  1.6034
  101OSM    C1F10220   1.783   1.828  10.336  0.4915 -0.3652 -0.1614
  101OSM     OF10221   1.721   1.921  10.393 -0.2995 -0.7975  0.4501
  101OSM    C2F10222   1.730   1.755  10.223  0.3033 -0.5372 -0.2398
  101OSM    H2F10223   1.783   1.657  10.220 -0.2623 -0.8946  0.8880
  101OSM    H2G10224   1.753   1.813  10.132  0.7236 -0.0910  0.1514
  101OSM    C3F10225   1.579   1.729  10.226  0.3204  0.1034 -0.0038
  101OSM    H3F10226   1.526   1.825  10.242  0.8331 -0.0245  2.6506
  101OSM    H3G10227   1.568   1.662  10.314 -0.2994 -0.2540 -0.3512
  101OSM    C4F10228   1.524   1.645  10.111  0.7734 -0.3300  0.4464
  101OSM    H4F10229   1.441   1.582  10.149 -0.8945  1.1015 -0.7442
  101OSM    H4G10230   1.606   1.580  10.074  0.3673 -0.0191 -1.0341
  101OSM    C5F10231   1.458   1.735  10.005  0.4204  0.2994  1.1521
  101OSM    H5F10232   1.532   1.798   9.952 -0.1573 -0.7328 -0.9260
  101OSM    H5G10233   1.376   1.795  10.050 -0.0865 -0.3544  1.1148
  101OSM    C6F10234   1.395   1.654   9.888  1.0019 -0.3190 -0.3418
  101OSM    H6F10235   1.308   1.602   9.933  1.4585 -1.0480 -0.2930
  101OSM    H6G10236   1.470   1.580   9.854 -1.3350 -1.4292 -3.2250
  101OSM    C7F10237   1.352   1.746   9.773  0.4011  0.5785  0.2643
  101OSM    H7F10238   1.435   1.813   9.740  0.7910  0.7920  1.6418
  101OSM    H7G10239   1.259   1.799   9.802 -0.4025 -0.5315 -0.2688
  101OSM    C8F10240   1.301   1.657   9.660  0.2455  0.7417  0.2071
  101OSM    H8F10241   1.251   1.568   9.706  0.9968  1.1505  1.8401
  101OSM    H8G10242   1.383   1.610   9.602 -0.4617  1.3367 -1.3001
  101OSM    C9F10243   1.204   1.722   9.563  0.9926 -0.3075  0.0853
  101OSM    H9F10244   1.131   1.789   9.611 -1.0745 -2.0732 -0.4891
  101OSM   C10F10245   1.200   1.719   9.428 -1.0371 -0.3146 -0.1003
  101OSM   H10F10246   1.143   1.798   9.376  2.4565  3.1449  1.0653
  101OSM   C11F10247   1.295   1.645   9.336 -0.4215  0.1053 -0.6961
  101OSM   H11F10248   1.308   1.541   9.373  3.8623  1.4432  1.9685
  101OSM   H11G10249   1.392   1.698   9.352  0.2682 -1.0601 -0.9766
  101OSM   C12F10250   1.256   1.668   9.191 -0.1177  0.4991 -0.3415
  101OSM   H12F10251   1.334   1.620   9.128 -1.0107  1.1085 -1.9579
  101OSM   H12G10252   1.248   1.777   9.168 -1.3074  0.3255 -0.8146
  101OSM   C13F10253   1.109   1.632   9.151 -0.4318  0.4465 -0.5607
  101OSM   H13F10254   1.035   1.706   9.190 -0.4552  0.3790 -0.4774
  101OSM   H13G10255   1.087   1.538   9.205  1.5039 -0.2537 -0.9727
  101OSM   C14F10256   1.085   1.619   9.003  0.2192  0.0737 -0.3212
  101OSM   H14F10257   0.980   1.598   8.975  0.0642  0.5557 -0.1002
  101OSM   H14G10258   1.151   1.535   8.971  1.7650  0.1141  2.5940
  101OSM   C15F10259   1.142   1.728   8.917  0.1199 -0.1853 -0.3497
  101OSM   H15F10260   1.250   1.750   8.931  0.7181 -2.1049 -1.5950
  101OSM   H15G10261   1.090   1.824   8.936  0.0381 -0.4638  0.8282
  101OSM   C16F10262   1.133   1.696   8.767  0.0607 -0.4909  0.3259
  101OSM   H16F10263   1.164   1.792   8.722 -0.3132  0.8630  2.8894
  101OSM   H16G10264   1.024   1.684   8.746 -0.6039  2.8861  1.5420
  101OSM   C17F10265   1.213   1.580   8.709 -0.1363  0.0880 -0.1177
  101OSM   H17F10266   1.163   1.488   8.746  0.3001  0.5149  1.5714
  101OSM   H17G10267   1.311   1.578   8.761 -0.1701 -1.0020 -0.0912
  101OSM   C18F10268   1.225   1.589   8.556  0.8753 -0.1732  0.3177
  101OSM   H18F10269   1.250   1.692   8.522  1.0627 -0.6959 -1.1956
  101OSM   H18G10270   1.123   1.572   8.517  0.9722  1.0808 -0.4956
  101OSM   H18H10271   1.291   1.507   8.517 -1.0599 -0.5841 -2.2582
  102OSM      N10272   1.633   1.422  11.096 -0.1688 -0.0270 -0.7055
  102OSM    C1510273   1.631   1.449  11.245 -0.1575 -0.3482  0.2354
  102OSM   H15A10274   1.696   1.383  11.300  1.3225  1.2938  0.5042
  102OSM   H15B10275   1.533   1.438  11.291 -1.1685 -2.3853 -2.2611
  102OSM   H15C10276   1.647   1.552  11.273  0.4493  0.0906 -1.6760
  102OSM    C1410277   1.535   1.505  11.032 -0.6020 -0.6535 -0.3158
  102OSM   H14A10278   1.432   1.482  11.056 -0.5163  0.8878  1.6864
  102OSM   H14B10279   1.539   1.501  10.924  0.0244  0.1289 -0.3284
  102OSM   H14C10280   1.558   1.609  11.049  0.3475 -1.0379  0.8535
  102OSM    C1310281   1.765   1.458  11.035  0.8731 -0.2495 -0.1765
  102OSM   H13A10282   1.778   1.565  11.035 -0.4991 -0.0528  0.7722
  102OSM   H13B10283   1.767   1.422  10.934 -1.9354  0.1140 -0.4079
  102OSM   H13C10284   1.841   1.414  11.099 -0.6228 -1.3009  0.9397
  102OSM    C1210285   1.607   1.272  11.069  0.3740 -0.4171  0.0874
  102OSM   H12A10286   1.532   1.249  11.143  1.3991  0.5237  1.4295
  102OSM   H12B10287   1.694   1.213  11.092  0.0341 -1.3144 -0.8552
  102OSM    C1110288   1.568   1.225  10.934  0.3460 -0.3156  0.5806
  102OSM   H11A10289   1.469   1.269  10.912 -0.2525 -1.5031  0.8299
  102OSM   H11B10290   1.544   1.116  10.932  0.6124 -0.3871  1.0994
  102OSM      P10291   1.780   1.159  10.797  0.2392 -0.1532  0.0401
  102OSM    O1310292   1.861   1.232  10.694  0.0599  1.2184 -0.3751
  102OSM    O1410293   1.843   1.125  10.924 -0.2370 -0.4606  0.4482
  102OSM    O1110294   1.694   1.035  10.728 -0.2343 -0.2107 -0.2648
  102OSM    O1210295   1.669   1.265  10.832  0.2762  0.1558 -0.4426
  102OSM    C1S10296   1.588   1.059  10.635  0.0802 -0.0981  0.1670
  102OSM    H1S10297   1.545   1.162  10.630  0.3251  0.1408  2.2746
  102OSM    H1T10298   1.515   0.977  10.652  2.4399 -2.2310  0.1697
  102OSM     NF10299   1.543   1.101  10.391 -0.0796 -0.6436  0.0045
  102OSM    HNF10300   1.470   1.051  10.344  0.0676 -0.2689 -0.6281
  102OSM    C2S10301   1.631   1.033  10.485 -0.1771  1.0131  0.1015
  102OSM    H2S10302   1.721   1.095  10.469 -0.0670  0.9468  0.4507
  102OSM    C3S10303   1.651   0.875  10.462 -0.4561  0.2882  0.1398
  102OSM    H3S10304   1.559   0.821  10.492 -1.5216  2.4867  0.9697
  102OSM     O310305   1.755   0.830  10.552  0.3167  0.1340  0.8762
  102OSM    HO310306   1.744   0.898  10.619 -0.9038  1.8007 -0.9470
  102OSM    C4S10307   1.699   0.846  10.321  0.1108  0.1257  0.2622
  102OSM    H4S10308   1.797   0.884  10.291  0.4938 -0.3138  0.9323
  102OSM    C5S10309   1.627   0.771  10.238 -1.0866 -1.0300  0.2917
  102OSM    H5S10310   1.531   0.733  10.275 -0.4659 -1.2701  1.6944
  102OSM    C6S10311   1.659   0.737  10.096  0.0468 -0.6300  0.2560
  102OSM    H6S10312   1.749   0.787  10.053 -1.5070  2.9478  0.9953
  102OSM    H6T10313   1.570   0.760  10.033  1.5713  0.0451 -1.7221
  102OSM    C7S10314   1.668   0.584  10.062  0.0823  0.0218  0.6838
  102OSM    H7S10315   1.569   0.548  10.097 -0.4146  0.3856 -0.3469
  102OSM    H7T10316   1.747   0.542  10.128  0.4338  0.5163  0.5766
  102OSM    C8S10317   1.689   0.545   9.912 -0.4412 -0.1085 -0.9420
  102OSM    H8S10318   1.682   0.435   9.902  1.5477 -0.4859  1.3374
  102OSM    H8T10319   1.790   0.579   9.880  0.4932 -3.7763 -2.0905
  102OSM    C9S10320   1.581   0.608   9.816  0.4417  0.3141 -0.1037
  102OSM    H9S10321   1.601   0.716   9.800 -1.3117  0.5997 -0.5495
  102OSM    H9T10322   1.476   0.590   9.848  0.5796 -0.7730 -0.2619
  102OSM   C10S10323   1.593   0.561   9.670  0.2415 -0.4176  0.2876
  102OSM   H10S10324   1.505   0.598   9.613  0.8847  1.5785  0.5268
  102OSM   H10T10325   1.587   0.451   9.663 -1.5142 -0.2372 -1.5353
  102OSM   C11S10326   1.725   0.599   9.602 -0.5202  0.5927  0.8691
  102OSM   H11S10327   1.813   0.561   9.659 -1.1475 -3.2126 -0.5247
  102OSM   H11T10328   1.735   0.709   9.604 -1.2231  0.7773 -2.8488
  102OSM   C12S10329   1.750   0.550   9.452  0.3001 -0.2665 -0.5818
  102OSM   H12S10330   1.743   0.443   9.422 -1.2308 -0.1669 -0.6528
  102OSM   H12T10331   1.860   0.558   9.441  0.1230  2.1242 -1.0104
  102OSM   C13S10332   1.670   0.628   9.352  0.1657 -0.3687  1.2425
  102OSM   H13S10333   1.676   0.738   9.365 -0.2840 -0.0961 -0.6911
  102OSM   H13T10334   1.562   0.602   9.360  0.0414  0.1177  1.1624
  102OSM   C14S10335   1.723   0.616   9.203  0.4592  0.0580 -0.7651
  102OSM   H14S10336   1.714   0.509   9.176 -0.1467  0.4386 -2.0907
  102OSM   H14T10337   1.832   0.635   9.194  0.4600 -0.4418 -1.8133
  102OSM   C15S10338   1.653   0.714   9.103  0.0614  0.1805 -1.0591
  102OSM   H15S10339   1.707   0.712   9.005  1.7578  0.7966 -0.1632
  102OSM   H15T10340   1.647   0.822   9.131 -0.7145 -0.1658  0.1253
  102OSM   C16S10341   1.507   0.680   9.078  0.2357 -0.3390 -0.5176
  102OSM   H16S10342   1.459   0.780   9.065  2.1112  0.5760 -0.6240
  102OSM   H16T10343   1.463   0.622   9.162  2.7213 -0.7562  0.5552
  102OSM   C17S10344   1.475   0.615   8.937  0.1513  0.0268  0.3311
  102OSM   H17S10345   1.527   0.660   8.850 -1.8695 -1.7934 -1.8654
  102OSM   H17T10346   1.367   0.633   8.918  0.4992  1.5495 -0.2783
  102OSM   C18S10347   1.502   0.463   8.932 -0.9625 -0.3264  0.0848
  102OSM   H18S10348   1.504   0.431   8.826  0.7622  1.1814 -0.3626
  102OSM   H18T10349   1.430   0.400   8.990 -2.1191  1.0976  0.2246
  102OSM   H18U10350   1.609   0.447   8.960 -0.3357  2.9744 -0.2865
  102OSM    C1F10351   1.545   1.237  10.360  0.5549  0.2209 -0.0812
  102OSM     OF10352   1.638   1.310  10.388 -0.3837  0.3894  0.0499
  102OSM    C2F10353   1.424   1.277  10.272 -0.5774 -0.7166 -0.3359
  102OSM    H2F10354   1.413   1.387  10.283 -1.5112 -0.7265 -1.1302
  102OSM    H2G10355   1.336   1.219  10.306  0.4007 -1.1758  1.4626
  102OSM    C3F10356   1.457   1.253  10.122 -0.6239  0.9231 -0.4379
  102OSM    H3F10357   1.512   1.157  10.112  0.3419  1.4703 -0.4176
  102OSM    H3G10358   1.522   1.336  10.090 -0.7186  0.5059 -1.7446
  102OSM    C4F10359   1.329   1.262  10.037  0.6132  0.2883 -0.1263
  102OSM    H4F10360   1.289   1.363  10.060 -1.7680 -0.8510  0.9589
  102OSM    H4G10361   1.247   1.192  10.063  0.7842 -0.0109 -0.3889
  102OSM    C5F10362   1.360   1.255   9.885  0.0570  0.3817  0.9578
  102OSM    H5F10363   1.424   1.164   9.875 -0.6571 -0.0650  0.3758
  102OSM    H5G10364   1.434   1.335   9.865  0.7051 -0.7383 -1.2567
  102OSM    C6F10365   1.238   1.268   9.788 -0.1479  0.4243  0.6952
  102OSM    H6F10366   1.187   1.366   9.804 -0.0319  0.5003  0.5950
  102OSM    H6G10367   1.168   1.184   9.809 -0.2035  0.0779 -0.8093
  102OSM    C7F10368   1.271   1.271   9.637 -0.3906  0.2035  0.1759
  102OSM    H7F10369   1.314   1.175   9.601 -0.0558  1.0700 -1.7596
  102OSM    H7G10370   1.348   1.351   9.641  1.0018 -1.0789 -0.6264
  102OSM    C8F10371   1.164   1.318   9.536 -0.1062  0.3921 -0.5614
  102OSM    H8F10372   1.217   1.312   9.439  1.9346  0.3754  0.5251
  102OSM    H8G10373   1.129   1.421   9.559  0.3252  0.2564  0.7355
  102OSM    C9F10374   1.038   1.232   9.530 -0.4657  0.1328 -0.8192
  102OSM    H9F10375   0.979   1.234   9.623 -0.4892  0.8158 -0.8484
  102OSM   C10F10376   1.007   1.153   9.427  0.2693 -0.5618  0.1482
  102OSM   H10F10377   0.915   1.093   9.435  0.2885 -0.7865 -1.1040
  102OSM   C11F10378   1.076   1.136   9.296  0.1379  0.0409 -0.1397
  102OSM   H11F10379   1.124   1.037   9.278  1.5990  0.7861 -0.4409
  102OSM   H11G10380   1.164   1.204   9.292 -1.3891  1.9327 -3.8229
  102OSM   C12F10381   0.991   1.179   9.178 -0.3418 -0.3729 -0.1976
  102OSM   H12F10382   0.958   1.285   9.177 -0.2677 -0.3577 -1.3682
  102OSM   H12G10383   0.893   1.131   9.155 -0.0678 -0.4378 -1.2753
  102OSM   C13F10384   1.083   1.162   9.050 -0.2897 -0.3810  0.0468
  102OSM   H13F10385   1.146   1.072   9.066 -3.0238 -2.3501  0.1433
  102OSM   H13G10386   1.147   1.252   9.062  0.8831 -1.2379  0.2896
  102OSM   C14F10387   1.002   1.153   8.916  0.5438 -0.2149  0.3238
  102OSM   H14F10388   0.957   1.252   8.891  0.9119 -0.0313  0.3767
  102OSM   H14G10389   0.927   1.071   8.916 -1.2433  1.3684 -1.6243
  102OSM   C15F10390   1.096   1.125   8.799 -0.5205  0.9342 -0.1734
  102OSM   H15F10391   1.144   1.025   8.797 -0.4833  0.9274  0.6706
  102OSM   H15G10392   1.181   1.196   8.793 -1.2892  1.8689 -0.3022
  102OSM   C16F10393   1.031   1.142   8.661  0.3612 -0.0306  0.7833
  102OSM   H16F10394   0.935   1.087   8.660  0.6224 -0.5134  1.6435
  102OSM   H16G10395   1.107   1.114   8.585 -0.0200 -1.1436  0.8098
  102OSM   C17F10396   0.983   1.279   8.610  0.1280  0.3777 -0.2709
  102OSM   H17F10397   1.051   1.365   8.629 -0.9193  1.0756  0.3832
  102OSM   H17G10398   0.893   1.309   8.668  2.1358  0.8465  2.7219
  102OSM   C18F10399   0.959   1.272   8.464 -0.1891  0.1727  0.9761
  102OSM   H18F10400   0.906   1.362   8.425 -1.0103 -0.3133  0.9628
  102OSM   H18G10401   0.896   1.186   8.433  1.2407 -1.1561  1.7106
  102OSM   H18H10402   1.044   1.264   8.392  0.4360  1.7075  1.5202
  103OSM      N10403   3.520   3.805  11.398 -0.3230  0.1515 -0.0625
  103OSM    C1510404   3.656   3.741  11.383 -0.0203  0.2812 -0.1273
  103OSM   H15A10405   3.713   3.757  11.473 -0.0593 -1.3490  0.1978
  103OSM   H15B10406   3.706   3.773  11.292  0.3411 -1.1470 -0.4549
  103OSM   H15C10407   3.661   3.633  11.385  1.5236  0.3238 -0.8126
  103OSM    C1410408   3.441   3.732  11.507 -0.0132 -0.6790 -0.0473
  103OSM   H14A10409   3.415   3.635  11.468  1.2356 -0.4738 -1.4443
  103OSM   H14B10410   3.355   3.793  11.531  1.7799  2.4717 -1.3357
  103OSM   H14C10411   3.495   3.719  11.600  0.8071 -0.8248 -0.5487
  103OSM    C1310412   3.526   3.946  11.429 -0.0997 -0.1459 -0.3799
  103OSM   H13A10413   3.429   3.992  11.423 -0.3419 -0.5981  0.0190
  103OSM   H13B10414   3.590   3.997  11.358 -0.9212 -0.4275 -1.3333
  103OSM   H13C10415   3.561   3.964  11.530  1.2129  3.2283 -1.3411
  103OSM    C1210416   3.452   3.790  11.266  0.4586 -0.2958 -0.6134
  103OSM   H12A10417   3.507   3.834  11.184 -0.5299  1.5046 -0.3455
  103OSM   H12B10418   3.355   3.838  11.267  0.3443 -0.4982  1.5827
  103OSM    C1110419   3.423   3.641  11.226  0.0226  0.9674  0.2055
  103OSM   H11A10420   3.516   3.584  11.242 -0.8903 -0.3343  0.9717
  103OSM   H11B10421   3.413   3.629  11.116  0.8064 -1.1240  0.3577
  103OSM      P10422   3.168   3.638  11.253  0.2725  0.1603 -0.3119
  103OSM    O1310423   3.055   3.561  11.315 -0.7591  0.0166 -0.2856
  103OSM    O1410424   3.160   3.784  11.269  0.5253  0.8782 -0.5689
  103OSM    O1110425   3.170   3.605  11.100 -0.5453 -0.3370 -1.0000
  103OSM    O1210426   3.310   3.586  11.290 -0.0565  0.4665 -0.2927
  103OSM    C1S10427   3.045   3.574  11.033  0.0421  0.1597  0.0479
  103OSM    H1S10428   2.962   3.640  11.069  0.1995 -0.1173  0.9336
  103OSM    H1T10429   3.011   3.472  11.059 -0.4015 -0.2104 -1.8993
  103OSM     NF10430   2.921   3.559  10.821 -0.1931  0.4971 -0.3407
  103OSM    HNF10431   2.902   3.475  10.771  2.9272  0.0537 -0.8890
  103OSM    C2S10432   3.053   3.577  10.882 -0.2527 -0.3752 -0.1732
  103OSM    H2S10433   3.093   3.677  10.854 -1.2870  0.1348  0.1481
  103OSM    C3S10434   3.158   3.470  10.828  0.1749 -0.5182  0.6612
  103OSM    H3S10435   3.109   3.371  10.836 -1.5499  0.2030 -0.6941
  103OSM     O310436   3.275   3.462  10.911 -0.0164 -0.4160  0.1925
  103OSM    HO310437   3.245   3.512  10.988  0.9070  1.1968 -0.4567
  103OSM    C4S10438   3.193   3.501  10.690  0.9022  0.1220 -0.5769
  103OSM    H4S10439   3.271   3.579  10.681  0.1702  0.8562 -0.5653
  103OSM    C5S10440   3.156   3.440  10.579 -0.9563  0.1933 -0.7252
  103OSM    H5S10441   3.087   3.355  10.585  0.8429 -1.3524 -1.4788
  103OSM    C6S10442   3.192   3.486  10.439 -0.0603 -0.0926  0.2057
  103OSM    H6S10443   3.261   3.409  10.399 -0.7197 -1.9264  2.5126
  103OSM    H6T10444   3.233   3.589  10.449 -0.0304 -0.2120  1.4150
  103OSM    C7S10445   3.057   3.482  10.363  0.5735 -1.0058 -0.3758
  103OSM    H7S10446   2.981   3.549  10.408 -2.2142 -3.1238 -1.8549
  103OSM    H7T10447   3.011   3.382  10.354  1.6867 -1.5070 -0.6855
  103OSM    C8S10448   3.089   3.542  10.222 -1.0625 -0.0586  0.4707
  103OSM    H8S10449   3.134   3.642  10.238  1.6471 -1.2094  0.2519
  103OSM    H8T10450   2.994   3.559  10.167 -1.1778 -0.7612  0.4563
  103OSM    C9S10451   3.192   3.454  10.144  0.3332  0.0478 -0.0720
  103OSM    H9S10452   3.155   3.350  10.134  0.4925  0.1315 -1.7128
  103OSM    H9T10453   3.292   3.457  10.191  1.2282  1.1334 -1.9904
  103OSM   C10S10454   3.205   3.495   9.995 -0.0737  1.2747 -0.1362
  103OSM   H10S10455   3.239   3.600   9.983  3.1416  0.3641  0.6458
  103OSM   H10T10456   3.099   3.493   9.960 -0.1962  0.7492  0.2628
  103OSM   C11S10457   3.282   3.401   9.911  0.4970 -0.0522 -0.1238
  103OSM   H11S10458   3.254   3.296   9.935  0.3675  0.2280  0.9774
  103OSM   H11T10459   3.390   3.400   9.937  0.9963  1.0103 -2.0390
  103OSM   C12S10460   3.253   3.423   9.760  0.6757  0.0712  0.1078
  103OSM   H12S10461   3.292   3.527   9.749 -1.4418  0.8213 -0.4891
  103OSM   H12T10462   3.147   3.425   9.729  1.0570 -2.0142 -1.4360
  103OSM   C13S10463   3.353   3.352   9.669  0.3285  0.2901  0.3799
  103OSM   H13S10464   3.326   3.244   9.657 -1.6936  1.0720 -2.5742
  103OSM   H13T10465   3.450   3.364   9.721  1.0088 -1.7834 -0.3521
  103OSM   C14S10466   3.359   3.410   9.521  0.0794 -0.3432  0.0179
  103OSM   H14S10467   3.465   3.414   9.488 -0.5976  1.7994 -2.0640
  103OSM   H14T10468   3.332   3.518   9.527 -0.9371 -0.5741 -0.2626
  103OSM   C15S10469   3.268   3.333   9.421 -0.0847  0.3181  0.2118
  103OSM   H15S10470   3.162   3.354   9.447 -0.4088 -1.8585  0.8145
  103OSM   H15T10471   3.290   3.224   9.431 -2.0280 -0.1298  0.0077
  103OSM   C16S10472   3.288   3.370   9.277 -0.0575 -0.5493  0.1783
  103OSM   H16S10473   3.331   3.472   9.274  0.4948 -0.7614  0.9017
  103OSM   H16T10474   3.195   3.376   9.216  0.4425  2.1507 -0.3624
  103OSM   C17S10475   3.385   3.278   9.203 -0.2934 -0.6353 -0.2119
  103OSM   H17S10476   3.343   3.174   9.206  0.0762 -0.7558  1.7127
  103OSM   H17T10477   3.478   3.260   9.260 -0.0209  0.2312 -0.3847
  103OSM   C18S10478   3.409   3.330   9.061  0.1371  0.2669  0.4193
  103OSM   H18S10479   3.492   3.269   9.021  0.0021 -0.1784  0.8183
  103OSM   H18T10480   3.441   3.435   9.081  0.4958  0.0540  0.9842
  103OSM   H18U10481   3.314   3.323   9.004  1.2218 -1.8958 -1.1619
  103OSM    C1F10482   2.823   3.654  10.817 -1.0059  0.3103  0.3562
  103OSM     OF10483   2.835   3.755  10.883  0.4598 -0.3081  0.5138
  103OSM    C2F10484   2.716   3.632  10.718 -0.0157 -0.4263 -0.1505
  103OSM    H2F10485   2.676   3.528  10.716  1.7043 -1.1219  1.1450
  103OSM    H2G10486   2.765   3.651  10.621  2.1882 -2.3826  0.5511
  103OSM    C3F10487   2.600   3.746  10.730 -0.5707  0.0634 -0.0924
  103OSM    H3F10488   2.639   3.845  10.696  1.3737 -0.1224  1.5156
  103OSM    H3G10489   2.584   3.756  10.839  0.5074  1.0778 -0.0140
  103OSM    C4F10490   2.471   3.711  10.653 -0.5186 -0.7300  0.2196
  103OSM    H4F10491   2.396   3.788  10.680 -0.2102  0.5362 -2.4318
  103OSM    H4G10492   2.425   3.613  10.678  0.2241 -1.3721 -0.8920
  103OSM    C5F10493   2.487   3.729  10.499 -0.1467  0.3550 -1.0219
  103OSM    H5F10494   2.581   3.788  10.487 -0.1546  0.2326 -1.6975
  103OSM    H5G10495   2.403   3.786  10.454 -1.5322 -0.0079  1.0411
  103OSM    C6F10496   2.506   3.600  10.415 -0.1626  0.3249  0.0157
  103OSM    H6F10497   2.424   3.533  10.448 -0.0995  1.5770  2.8238
  103OSM    H6G10498   2.596   3.544  10.450 -0.6920 -0.7560 -0.3326
  103OSM    C7F10499   2.501   3.616  10.262 -0.6309 -0.4598 -0.1172
  103OSM    H7F10500   2.588   3.676  10.231 -0.2030 -0.9181  0.1834
  103OSM    H7G10501   2.404   3.654  10.224  0.2655 -1.1897 -3.2311
  103OSM    C8F10502   2.521   3.476  10.186  0.1725 -0.0674 -0.5502
  103OSM    H8F10503   2.490   3.491  10.081  2.8229  3.3668 -0.9485
  103OSM    H8G10504   2.463   3.401  10.244  2.2488 -0.6052  0.9043
  103OSM    C9F10505   2.670   3.431  10.169 -0.1361  0.5777  0.5067
  103OSM    H9F10506   2.725   3.390  10.255  0.1012  2.1032  1.0969
  103OSM   C10F10507   2.731   3.473  10.056 -0.7232 -0.1337  0.1076
  103OSM   H10F10508   2.835   3.443  10.034 -1.5593 -1.7940 -1.7813
  103OSM   C11F10509   2.676   3.554   9.939  0.1715 -0.1815  0.5326
  103OSM   H11F10510   2.754   3.631   9.920  0.5665 -0.7249 -0.1205
  103OSM   H11G10511   2.576   3.601   9.942  0.5804  0.8093 -0.9950
  103OSM   C12F10512   2.668   3.457   9.817 -0.1668  0.6552  0.1744
  103OSM   H12F10513   2.611   3.520   9.744  1.3531  3.1666  1.0787
  103OSM   H12G10514   2.613   3.364   9.844 -0.2631  0.7482  0.3027
  103OSM   C13F10515   2.797   3.424   9.746  0.2698 -0.4498  0.9010
  103OSM   H13F10516   2.864   3.513   9.752  2.1844 -1.7999 -0.0502
  103OSM   H13G10517   2.836   3.332   9.794 -0.8853 -1.2890  0.2416
  103OSM   C14F10518   2.757   3.392   9.596  0.1008 -0.6191 -0.1368
  103OSM   H14F10519   2.699   3.474   9.548 -2.1315 -1.5273  0.9098
  103OSM   H14G10520   2.691   3.302   9.598 -0.3894 -0.3164 -1.6050
  103OSM   C15F10521   2.887   3.356   9.527  0.0895 -0.8603 -0.1300
  103OSM   H15F10522   2.915   3.249   9.532  0.1218 -0.9732 -2.1086
  103OSM   H15G10523   2.968   3.419   9.569  0.3539  0.1836 -2.1304
  103OSM   C16F10524   2.889   3.409   9.380 -0.4238 -0.0189 -0.4419
  103OSM   H16F10525   2.979   3.472   9.363 -0.0449 -0.2857  0.4978
  103OSM   H16G10526   2.804   3.476   9.355 -0.2306  0.2316 -0.4290
  103OSM   C17F10527   2.893   3.294   9.274 -0.2270  0.0987  0.1773
  103OSM   H17F10528   2.808   3.225   9.294 -2.3227  1.7259 -2.6801
  103OSM   H17G10529   2.985   3.233   9.283  0.7186  1.2522 -1.4751
  103OSM   C18F10530   2.877   3.357   9.134  0.9783 -0.0223  0.6960
  103OSM   H18F10531   2.978   3.370   9.090 -0.4905  0.9517 -2.5113
  103OSM   H18G10532   2.824   3.455   9.139  0.9922  0.0615 -0.8228
  103OSM   H18H10533   2.822   3.285   9.070  2.5153 -0.2526 -0.3880
  104OSM      N10534   0.573   3.947  10.871 -0.3895 -0.6234 -0.4193
  104OSM    C1510535   0.448   3.941  10.956  0.3326 -0.6847  0.3335
  104OSM   H15A10536   0.439   3.857  11.022  1.4708 -0.3564  0.9210
  104OSM   H15B10537   0.368   3.928  10.885  0.8584  0.6667 -0.5325
  104OSM   H15C10538   0.417   4.032  11.005 -1.0239 -0.6461 -0.5759
  104OSM    C1410539   0.570   4.057  10.775 -0.5457 -0.0884  0.6350
  104OSM   H14A10540   0.670   4.082  10.743 -0.8826 -0.6080 -0.8743
  104OSM   H14B10541   0.525   4.145  10.820 -2.1521 -0.3114 -0.5087
  104OSM   H14C10542   0.505   4.037  10.692 -2.0606 -0.1916  1.8121
  104OSM    C1310543   0.685   3.979  10.959  0.5120  0.0703  0.2283
  104OSM   H13A10544   0.778   3.991  10.905  0.4932 -2.8521 -0.5242
  104OSM   H13B10545   0.699   3.900  11.031  2.7547  1.6454  1.5947
  104OSM   H13C10546   0.679   4.071  11.014  3.0931  0.5079 -0.1518
  104OSM    C1210547   0.601   3.814  10.808 -0.5926 -1.0507 -0.1464
  104OSM   H12A10548   0.587   3.740  10.886 -1.9989 -0.0052  0.6134
  104OSM   H12B10549   0.705   3.812  10.779 -1.2157  0.7482 -2.6951
  104OSM    C1110550   0.509   3.773  10.690  0.5352 -0.4338  0.5688
  104OSM   H11A10551   0.527   3.666  10.666 -2.1227 -0.8949  0.5271
  104OSM   H11B10552   0.550   3.829  10.603 -0.4063 -0.9168 -0.1927
  104OSM      P10553   0.269   3.694  10.736 -0.2831 -0.0444 -0.1111
  104OSM    O1310554   0.337   3.576  10.783 -0.0734  0.3405 -0.1378
  104OSM    O1410555   0.174   3.759  10.828 -0.3760  0.2421 -0.3213
  104OSM    O1110556   0.186   3.666  10.606  0.2254 -0.2089  0.1378
  104OSM    O1210557   0.372   3.805  10.694 -0.1067 -0.3091  0.1008
  104OSM    C1S10558   0.139   3.762  10.519  0.9299 -0.2981  1.2279
  104OSM    H1S10559   0.185   3.864  10.519 -0.1915  0.2990 -2.1878
  104OSM    H1T10560   0.036   3.796  10.544  0.8109 -0.2398  0.6635
  104OSM     NF10561   0.124   3.810  10.268  0.4829 -0.3718  0.5550
  104OSM    HNF10562   0.033   3.833  10.235  0.6922 -1.0218 -0.4983
  104OSM    C2S10563   0.140   3.709  10.370 -0.4317 -1.0265 -0.4918
  104OSM    H2S10564   0.237   3.660  10.348 -0.0423  0.7934 -2.9712
  104OSM    C3S10565   0.031   3.594  10.360 -0.5822  0.9053 -0.3880
  104OSM    H3S10566  -0.066   3.647  10.373 -0.8083  0.3873  0.0453
  104OSM     O310567   0.040   3.499  10.471  0.0896  0.1856 -0.1482
  104OSM    HO310568   0.100   3.552  10.524 -0.3341 -0.4818  1.0245
  104OSM    C4S10569   0.034   3.522  10.223 -0.2713  0.1646  0.3650
  104OSM    H4S10570  -0.011   3.573  10.137  1.0891 -1.3048 -1.2329
  104OSM    C5S10571   0.096   3.403  10.197  0.2598  0.6381 -0.7707
  104OSM    H5S10572   0.151   3.344  10.272 -1.6760  1.1491  1.1033
  104OSM    C6S10573   0.104   3.342  10.060 -0.4626 -0.6188 -1.0607
  104OSM    H6S10574   0.046   3.248  10.058 -0.4297 -0.6326 -1.4427
  104OSM    H6T10575   0.207   3.305  10.042 -0.9982 -3.0354  0.6339
  104OSM    C7S10576   0.080   3.423   9.938  0.4838 -0.1455 -0.4988
  104OSM    H7S10577   0.159   3.499   9.923  0.8827  0.0088  2.1694
  104OSM    H7T10578  -0.015   3.479   9.950  1.6838  2.2421 -1.9134
  104OSM    C8S10579   0.072   3.327   9.811 -0.0514 -0.0732 -0.5223
  104OSM    H8S10580  -0.001   3.250   9.842  0.9627 -0.8694 -0.0933
  104OSM    H8T10581   0.168   3.275   9.793 -1.2083 -2.4528  0.0472
  104OSM    C9S10582   0.034   3.399   9.684 -0.1318 -0.0120  0.0209
  104OSM    H9S10583   0.114   3.471   9.657 -2.1791  2.0023 -0.8941
  104OSM    H9T10584  -0.058   3.454   9.714 -0.3892 -0.1562 -0.4919
  104OSM   C10S10585   0.012   3.296   9.571  0.1454  1.1057 -0.7818
  104OSM   H10S10586  -0.046   3.205   9.594  0.2265  1.4145  0.7216
  104OSM   H10T10587   0.111   3.257   9.539 -1.0032 -2.4096 -0.2529
  104OSM   C11S10588  -0.049   3.348   9.441 -0.9539  0.1218  0.3748
  104OSM   H11S10589  -0.137   3.408   9.472  0.6780  1.6612  2.1174
  104OSM   H11T10590  -0.087   3.258   9.388 -1.6256 -2.2288  4.5703
  104OSM   C12S10591   0.042   3.439   9.358  0.1196 -0.9906 -0.4595
  104OSM   H12S10592   0.146   3.403   9.341  0.6018  0.9308 -1.7774
  104OSM   H12T10593   0.060   3.531   9.417  1.4480 -2.7439  1.9571
  104OSM   C13S10594  -0.022   3.476   9.219  0.0028  0.4893 -0.6826
  104OSM   H13S10595   0.037   3.564   9.186 -0.2363  0.2717 -1.7086
  104OSM   H13T10596  -0.129   3.506   9.223 -0.3859 -0.9054 -0.3990
  104OSM   C14S10597  -0.008   3.351   9.127  0.2024 -0.1595  0.1905
  104OSM   H14S10598  -0.087   3.275   9.146 -1.0337  0.8045 -0.9769
  104OSM   H14T10599   0.091   3.309   9.154 -0.4201 -1.8619 -0.1042
  104OSM   C15S10600  -0.006   3.374   8.979 -0.5619 -0.1641 -0.1188
  104OSM   H15S10601   0.072   3.449   8.954  0.1074 -0.7568  0.1864
  104OSM   H15T10602  -0.103   3.418   8.950 -1.0998 -1.6727 -0.6493
  104OSM   C16S10603   0.014   3.248   8.897 -0.0722  0.0486  0.0811
  104OSM   H16S10604  -0.009   3.257   8.788  0.3273 -0.9201 -0.0886
  104OSM   H16T10605  -0.039   3.157   8.931 -0.8817  1.1243  1.7604
  104OSM   C17S10606   0.166   3.206   8.899  0.1288 -0.2393  0.4184
  104OSM   H17S10607   0.182   3.186   9.007 -1.1680 -1.4081  0.4010
  104OSM   H17T10608   0.226   3.295   8.869  0.3394 -1.2418 -2.1981
  104OSM   C18S10609   0.192   3.070   8.826 -0.7229  0.1854  0.2279
  104OSM   H18S10610   0.110   3.004   8.860 -0.3336  0.3746  1.5655
  104OSM   H18T10611   0.294   3.029   8.845 -0.5532 -0.7976 -2.6399
  104OSM   H18U10612   0.182   3.085   8.717 -0.0892  5.1712  0.7361
  104OSM    C1F10613   0.211   3.908  10.250  0.7713  0.0989 -0.0968
  104OSM     OF10614   0.316   3.905  10.312  0.3647 -0.0009 -0.2592
  104OSM    C2F10615   0.168   4.021  10.161 -0.1788 -1.0857  0.2833
  104OSM    H2F10616   0.267   4.068  10.147 -0.2106 -1.1929 -0.3248
  104OSM    H2G10617   0.094   4.087  10.212 -0.8815 -1.4094 -0.3022
  104OSM    C3F10618   0.115   3.974  10.015  0.5807  0.5027 -0.0399
  104OSM    H3F10619   0.087   4.067   9.963  0.4338 -1.0513 -2.8108
  104OSM    H3G10620   0.033   3.900  10.022  2.2090 -1.4459 -0.7406
  104OSM    C4F10621   0.223   3.893   9.942  0.6478  0.5761 -0.0138
  104OSM    H4F10622   0.263   3.815  10.010 -0.4901  1.4295  1.6741
  104OSM    H4G10623   0.305   3.968   9.933  0.4541  0.9186  1.0181
  104OSM    C5F10624   0.184   3.844   9.799  0.0366  0.1830  0.0885
  104OSM    H5F10625   0.076   3.816   9.799  0.4714 -1.5916 -0.2023
  104OSM    H5G10626   0.239   3.748   9.785 -0.1235 -0.0026  0.6975
  104OSM    C6F10627   0.220   3.953   9.697 -0.2608  0.2452 -0.7011
  104OSM    H6F10628   0.326   3.981   9.717 -0.0579 -1.6693  1.0345
  104OSM    H6G10629   0.148   4.035   9.714  1.2670  1.0130  2.3533
  104OSM    C7F10630   0.202   3.907   9.551 -0.2276 -0.1614  0.6303
  104OSM    H7F10631   0.254   3.987   9.494 -1.1540  2.6582  3.5699
  104OSM    H7G10632   0.098   3.911   9.511  0.2379 -1.6083 -0.7790
  104OSM    C8F10633   0.266   3.771   9.511  0.3512  0.6977 -0.1679
  104OSM    H8F10634   0.218   3.732   9.418 -0.2825 -0.7750  0.7591
  104OSM    H8G10635   0.245   3.694   9.588 -0.4137  1.0338 -0.0336
  104OSM    C9F10636   0.422   3.774   9.507  0.6521  0.3688  0.5719
  104OSM    H9F10637   0.454   3.841   9.588  1.1316 -1.9695  2.3610
  104OSM   C10F10638   0.499   3.725   9.405 -0.3064  0.5539  0.0524
  104OSM   H10F10639   0.608   3.727   9.415 -0.2899 -0.7223  0.1877
  104OSM   C11F10640   0.456   3.652   9.279 -0.5173  0.0343 -0.5185
  104OSM   H11F10641   0.363   3.596   9.302 -0.3269 -0.5188 -1.1112
  104OSM   H11G10642   0.531   3.575   9.253  0.9834  0.8859  1.1390
  104OSM   C12F10643   0.445   3.743   9.149  0.3244 -0.8177  0.2937
  104OSM   H12F10644   0.537   3.804   9.134 -0.3943  0.9744  2.8424
  104OSM   H12G10645   0.355   3.802   9.175  0.1385 -0.4981 -1.0682
  104OSM   C13F10646   0.411   3.653   9.022  0.0869  0.3692 -0.3426
  104OSM   H13F10647   0.312   3.604   9.033  0.0692  0.2382 -1.1077
  104OSM   H13G10648   0.493   3.578   9.034  1.4636  2.0926  1.4952
  104OSM   C14F10649   0.420   3.725   8.889  0.3044  0.6732 -0.3810
  104OSM   H14F10650   0.527   3.744   8.867  0.2859  1.1123 -0.1114
  104OSM   H14G10651   0.363   3.821   8.893 -1.1323 -0.2156  1.3307
  104OSM   C15F10652   0.356   3.645   8.779 -0.1719 -0.3675  0.3798
  104OSM   H15F10653   0.353   3.714   8.693  2.2513  0.4084  0.8872
  104OSM   H15G10654   0.248   3.631   8.803 -0.1245 -0.8280  0.3353
  104OSM   C16F10655   0.420   3.521   8.725  0.1611 -0.2724 -1.1726
  104OSM   H16F10656   0.417   3.435   8.796  1.0847 -0.9254 -1.9189
  104OSM   H16G10657   0.527   3.537   8.705  0.7539 -0.9191  1.2385
  104OSM   C17F10658   0.335   3.471   8.605 -0.3393  0.6424 -0.2579
  104OSM   H17F10659   0.334   3.547   8.524  1.7939  0.9188 -0.0705
  104OSM   H17G10660   0.231   3.452   8.638 -0.5807  1.6048 -0.4536
  104OSM   C18F10661   0.366   3.329   8.551  0.0879  0.1958  0.1252
  104OSM   H18F10662   0.475   3.326   8.531  0.0466  1.7187 -0.3664
  104OSM   H18G10663   0.299   3.315   8.463 -1.8067 -0.3567  1.6292
  104OSM   H18H10664   0.335   3.250   8.623 -0.3192  0.7323  0.5375
  105OSM      N10665   6.389   2.449  10.921  0.0889  0.4468  0.3490
  105OSM    C1510666   6.306   2.481  10.793  0.4376  0.2082 -0.3643
  105OSM   H15A10667   6.291   2.397  10.727 -1.3644  1.2530 -1.3167
  105OSM   H15B10668   6.365   2.551  10.737  1.0977  0.6242  0.8356
  105OSM   H15C10669   6.211   2.526  10.821 -0.0355 -1.3551  0.6113
  105OSM    C1410670   6.376   2.564  11.018 -0.7725  0.2057 -0.4163
  105OSM   H14A10671   6.442   2.643  10.983 -0.8010  0.0623 -0.8015
  105OSM   H14B10672   6.405   2.545  11.120 -1.8075 -0.7156 -0.2830
  105OSM   H14C10673   6.274   2.601  11.024 -1.4291 -1.6764  0.3664
  105OSM    C1310674   6.325   2.329  10.989 -0.1477 -0.3592  0.0657
  105OSM   H13A10675   6.387   2.293  11.069  1.7193 -1.5812 -1.8544
  105OSM   H13B10676   6.320   2.244  10.923 -0.2572  0.3425 -0.8431
  105OSM   H13C10677   6.223   2.343  11.023 -0.0464  0.6090  0.0035
  105OSM    C1210678   6.533   2.417  10.891  1.0385  0.3506  0.4207
  105OSM   H12A10679   6.548   2.327  10.834  1.0805 -0.0449  1.0477
  105OSM   H12B10680   6.592   2.408  10.981  0.7373 -3.0052  0.3371
  105OSM    C1110681   6.600   2.521  10.797  0.5083  0.6370 -0.7164
  105OSM   H11A10682   6.544   2.528  10.701 -1.6598 -0.4667  0.4164
  105OSM   H11B10683   6.700   2.477  10.777  0.3397 -0.1189  0.0917
  105OSM      P10684   6.554   2.793  10.809 -0.3219  0.3662  0.1530
  105OSM    O1310685   6.425   2.831  10.868  0.0858  0.3777  0.6275
  105OSM    O1410686   6.661   2.897  10.818  0.3691 -0.0810  0.8172
  105OSM    O1110687   6.531   2.757  10.654  0.0432  0.2308 -0.2953
  105OSM    O1210688   6.611   2.652  10.860  0.4251 -0.1558  0.1764
  105OSM    C1S10689   6.649   2.772  10.574 -0.4636  0.4873 -0.1704
  105OSM    H1S10690   6.738   2.715  10.610  0.2573  2.1071  0.6624
  105OSM    H1T10691   6.680   2.878  10.566  1.7075  0.0229  1.6479
  105OSM     NF10692   6.748   2.695  10.363  0.0934  0.2620  0.6627
  105OSM    HNF10693   6.767   2.748  10.281 -2.1121 -1.4739 -1.0136
  105OSM    C2S10694   6.627   2.706  10.438  0.4799 -0.8162  0.5930
  105OSM    H2S10695   6.590   2.606  10.472 -0.0980 -0.7032  0.3046
  105OSM    C3S10696   6.507   2.775  10.363 -0.2743  0.0770 -0.6663
  105OSM    H3S10697   6.521   2.885  10.366 -0.1170  0.0729 -1.2477
  105OSM     O310698   6.388   2.786  10.442  0.3433 -0.5981 -0.2759
  105OSM    HO310699   6.419   2.753  10.526  0.0237  1.3848  0.6475
  105OSM    C4S10700   6.482   2.712  10.232  0.7912 -0.5899 -0.4319
  105OSM    H4S10701   6.538   2.763  10.152  1.0999  0.3706  0.3845
  105OSM    C5S10702   6.406   2.607  10.192  0.2870  0.1623  0.1850
  105OSM    H5S10703   6.343   2.559  10.269  1.1940  0.5293  1.1711
  105OSM    C6S10704   6.406   2.547  10.051 -0.4566  0.3151 -0.3503
  105OSM    H6S10705   6.313   2.485  10.052 -0.1225 -0.1842  0.2391
  105OSM    H6T10706   6.497   2.486  10.034 -1.1561 -0.5064 -1.2502
  105OSM    C7S10707   6.414   2.649   9.930 -0.2002  0.3062 -1.0789
  105OSM    H7S10708   6.514   2.697   9.924  0.3052 -0.5041  0.5901
  105OSM    H7T10709   6.332   2.722   9.943 -1.1879 -0.8459 -0.7106
  105OSM    C8S10710   6.393   2.577   9.796  0.6460 -0.1665 -0.3666
  105OSM    H8S10711   6.287   2.546   9.810  0.6102  0.3480  0.4968
  105OSM    H8T10712   6.462   2.490   9.786  1.8911  0.3224  3.4635
  105OSM    C9S10713   6.398   2.674   9.673  0.1004  0.4698 -0.2000
  105OSM    H9S10714   6.498   2.724   9.673 -0.0674  0.8080 -0.3835
  105OSM    H9T10715   6.317   2.750   9.677 -1.9056 -1.6334  0.0229
  105OSM   C10S10716   6.381   2.588   9.543 -0.1429  0.2669  0.1853
  105OSM   H10S10717   6.299   2.513   9.556 -0.4170  0.0691 -2.4313
  105OSM   H10T10718   6.479   2.536   9.539 -0.3772 -0.4191  2.2044
  105OSM   C11S10719   6.358   2.677   9.427  0.7790 -0.4230 -0.9261
  105OSM   H11S10720   6.457   2.726   9.416  1.0787 -1.1709 -1.6558
  105OSM   H11T10721   6.278   2.749   9.456  1.0480 -0.7376  0.6682
  105OSM   C12S10722   6.326   2.620   9.285 -0.7931  1.3243 -0.6368
  105OSM   H12S10723   6.224   2.576   9.292  0.6426 -2.1784 -1.0277
  105OSM   H12T10724   6.401   2.541   9.267 -1.8448  0.1227  0.1693
  105OSM   C13S10725   6.337   2.731   9.180  0.0212  0.4841  0.2818
  105OSM   H13S10726   6.343   2.693   9.075  4.1003 -2.4506  1.4566
  105OSM   H13T10727   6.430   2.790   9.196  0.2800  0.0360  0.4351
  105OSM   C14S10728   6.224   2.831   9.182  0.1560  0.8730  0.2991
  105OSM   H14S10729   6.177   2.840   9.283  2.0934 -1.1592  1.4401
  105OSM   H14T10730   6.139   2.799   9.119  0.8816 -1.6906  0.5672
  105OSM   C15S10731   6.258   2.970   9.126 -0.4168 -0.3376  0.0869
  105OSM   H15S10732   6.329   3.009   9.202  1.3547  0.2955 -1.8251
  105OSM   H15T10733   6.175   3.043   9.139  0.6259  0.8241  0.3529
  105OSM   C16S10734   6.303   2.974   8.981  0.2074 -0.0508  0.1326
  105OSM   H16S10735   6.212   2.939   8.928 -0.9179 -0.8432  2.5226
  105OSM   H16T10736   6.382   2.901   8.950 -0.7109 -0.4991 -1.1973
  105OSM   C17S10737   6.351   3.108   8.939 -0.1935  0.4399  0.3435
  105OSM   H17S10738   6.430   3.145   9.008 -0.4255  0.9564  0.3351
  105OSM   H17T10739   6.259   3.171   8.950 -0.4358 -0.0550  1.2232
  105OSM   C18S10740   6.387   3.120   8.792  1.4322 -0.2741 -0.4336
  105OSM   H18S10741   6.463   3.041   8.775 -1.3734 -3.2067  0.1625
  105OSM   H18T10742   6.445   3.211   8.768  0.3279  0.9725  1.4538
  105OSM   H18U10743   6.294   3.103   8.733  0.6520  0.3263  0.5993
  105OSM    C1F10744   6.843   2.614  10.389  0.3625 -0.1924  0.2090
  105OSM     OF10745   6.833   2.533  10.477 -0.7076 -0.1578  0.6560
  105OSM    C2F10746   6.968   2.625  10.307  0.8318  0.3947  0.3460
  105OSM    H2F10747   7.044   2.683  10.363  2.0806 -0.9428  0.0742
  105OSM    H2G10748   6.947   2.678  10.212  1.5563  1.2260  0.6418
  105OSM    C3F10749   7.026   2.487  10.267  0.3681 -1.7512 -0.3546
  105OSM    H3F10750   7.064   2.435  10.358  0.5974 -1.1025 -0.0812
  105OSM    H3G10751   7.111   2.486  10.196  1.4966  0.5459  0.9170
  105OSM    C4F10752   6.923   2.392  10.199  0.2101 -0.0175  0.1642
  105OSM    H4F10753   6.853   2.368  10.283  0.2118 -1.5702 -0.2768
  105OSM    H4G10754   6.969   2.295  10.171  0.1224  0.0040 -0.0553
  105OSM    C5F10755   6.834   2.455  10.087  0.7724 -0.3173  0.5796
  105OSM    H5F10756   6.765   2.521  10.144  0.6589  0.5773 -0.5863
  105OSM    H5G10757   6.771   2.368  10.058 -0.7622  0.7599  0.6009
  105OSM    C6F10758   6.893   2.525   9.963 -0.0437  0.0157  0.3182
  105OSM    H6F10759   6.949   2.610  10.007  3.2212 -2.3810  0.9550
  105OSM    H6G10760   6.811   2.567   9.902 -0.2142 -1.2536 -0.3362
  105OSM    C7F10761   6.997   2.446   9.886  0.1486  0.1628 -0.2311
  105OSM    H7F10762   7.082   2.428   9.955 -2.1002 -0.4523  2.4697
  105OSM    H7G10763   7.049   2.486   9.797 -0.9100  2.5487  0.1917
  105OSM    C8F10764   6.953   2.303   9.833 -0.7240 -0.5861 -0.0649
  105OSM    H8F10765   6.907   2.316   9.732  1.4885 -0.3827 -1.0739
  105OSM    H8G10766   6.876   2.259   9.900 -0.9989 -0.4688 -0.3010
  105OSM    C9F10767   7.077   2.211   9.803 -0.2111 -0.5618  0.3082
  105OSM    H9F10768   7.100   2.154   9.894  0.8935 -0.7041 -0.0538
  105OSM   C10F10769   7.156   2.211   9.697 -0.2084  0.7786  0.6422
  105OSM   H10F10770   7.246   2.150   9.710  0.2942  1.1488 -0.9706
  105OSM   C11F10771   7.147   2.292   9.568 -0.4433  0.4498 -1.0556
  105OSM   H11F10772   7.117   2.397   9.590 -1.2961  0.1456 -0.7526
  105OSM   H11G10773   7.083   2.229   9.503 -1.0839 -2.1928  2.0217
  105OSM   C12F10774   7.282   2.294   9.487  0.4231  0.8487  0.2578
  105OSM   H12F10775   7.317   2.194   9.452 -1.0741  0.3492  0.1343
  105OSM   H12G10776   7.363   2.329   9.555  1.3608  1.1683 -0.9964
  105OSM   C13F10777   7.265   2.393   9.374  0.3836 -0.1635 -0.0463
  105OSM   H13F10778   7.354   2.415   9.310  0.8697  0.6374  0.8974
  105OSM   H13G10779   7.230   2.492   9.410  4.2020  1.4725 -0.5463
  105OSM   C14F10780   7.158   2.341   9.274 -0.3929  0.5651 -0.1268
  105OSM   H14F10781   7.055   2.334   9.315 -0.8525  3.5193 -0.6900
  105OSM   H14G10782   7.176   2.235   9.245 -2.5306  0.2346 -0.3316
  105OSM   C15F10783   7.132   2.425   9.146 -0.3000 -0.2835 -0.5079
  105OSM   H15F10784   7.237   2.453   9.123 -0.0474 -0.1453  0.7637
  105OSM   H15G10785   7.074   2.517   9.171 -0.7359 -1.1692  1.8625
  105OSM   C16F10786   7.089   2.351   9.023 -0.1256 -0.1605  0.9007
  105OSM   H16F10787   6.988   2.310   9.041 -0.8041  0.3076 -1.6195
  105OSM   H16G10788   7.151   2.259   9.012 -0.3866 -0.4166  1.5146
  105OSM   C17F10789   7.083   2.445   8.902  0.0326 -0.5989 -0.1372
  105OSM   H17F10790   7.184   2.492   8.902  0.1086 -0.7246  2.2754
  105OSM   H17G10791   7.009   2.525   8.920  0.0542  0.0504 -2.7223
  105OSM   C18F10792   7.045   2.391   8.773  0.3428 -0.0258  0.0999
  105OSM   H18F10793   6.983   2.300   8.787  2.5603 -1.6399 -0.2127
  105OSM   H18G10794   7.127   2.344   8.714 -1.3290  0.2099 -2.5058
  105OSM   H18H10795   6.990   2.464   8.710 -0.6034 -0.8186  0.0015
  106OSM      N10796   0.986   1.484  10.732 -0.2100  0.1096 -0.4063
  106OSM    C1510797   0.930   1.579  10.845  0.3329  0.7868  0.4138
  106OSM   H15A10798   0.982   1.674  10.848 -2.5800  2.5024 -1.4101
  106OSM   H15B10799   0.938   1.527  10.940  1.1437  1.8931  0.9623
  106OSM   H15C10800   0.825   1.595  10.829  0.3180  0.1757 -0.1381
  106OSM    C1410801   0.885   1.379  10.687 -0.2418  0.1215  0.7819
  106OSM   H14A10802   0.829   1.342  10.771 -1.5845 -1.8180 -0.9273
  106OSM   H14B10803   0.940   1.298  10.642  1.7171  2.2303 -0.7839
  106OSM   H14C10804   0.810   1.415  10.617  1.9922  2.7000 -0.3993
  106OSM    C1310805   1.022   1.571  10.610  0.3992  0.4422 -0.4897
  106OSM   H13A10806   0.934   1.628  10.581  0.6829  0.5869 -1.0764
  106OSM   H13B10807   1.056   1.501  10.535 -1.9017 -0.2639 -0.9282
  106OSM   H13C10808   1.096   1.641  10.646  0.5122 -0.3799  0.9157
  106OSM    C1210809   1.107   1.413  10.793 -0.4302 -0.4124 -0.4655
  106OSM   H12A10810   1.080   1.356  10.881  1.2081  2.3133  1.8955
  106OSM   H12B10811   1.171   1.494  10.827  0.8942 -1.0309 -1.4818
  106OSM    C1110812   1.183   1.311  10.707 -0.0462  0.2679  0.5042
  106OSM   H11A10813   1.280   1.301  10.760 -0.7126 -0.1958  1.6672
  106OSM   H11B10814   1.187   1.344  10.602 -1.0393  0.4518  0.5191
  106OSM      P10815   1.161   1.053  10.776  0.1252  0.1450 -0.2697
  106OSM    O1310816   1.257   1.090  10.883 -0.0541  0.2975 -0.3328
  106OSM    O1410817   1.037   0.979  10.825  0.1607 -0.4927 -0.6473
  106OSM    O1110818   1.235   0.960  10.671 -0.0294 -0.4616  0.5722
  106OSM    O1210819   1.116   1.185  10.698 -0.0817  0.1070 -0.5897
  106OSM    C1S10820   1.190   0.934  10.541  0.2408 -0.1825 -0.4025
  106OSM    H1S10821   1.199   1.020  10.471  0.2478  0.4817  0.4152
  106OSM    H1T10822   1.084   0.899  10.541 -0.1470  0.8660  2.9378
  106OSM     NF10823   1.221   0.793  10.341 -0.0424  0.8220  0.1445
  106OSM    HNF10824   1.145   0.729  10.331 -0.7900  1.3741  2.1913
  106OSM    C2S10825   1.263   0.807  10.475  0.6316  0.1460  0.6139
  106OSM    H2S10826   1.369   0.843  10.476  0.3112  1.0917  1.7855
  106OSM    C3S10827   1.247   0.683  10.564 -0.7823  0.3948  0.4644
  106OSM    H3S10828   1.139   0.656  10.572 -1.1722  1.8931  0.4935
  106OSM     O310829   1.288   0.704  10.701  0.4442  0.4783  0.3230
  106OSM    HO310830   1.296   0.799  10.710  1.4436  0.3126  1.1589
  106OSM    C4S10831   1.309   0.562  10.493 -0.9256 -1.3942  0.3490
  106OSM    H4S10832   1.419   0.568  10.489 -0.6690 -3.6059  2.7103
  106OSM    C5S10833   1.244   0.447  10.468 -0.3947 -0.4131 -0.8718
  106OSM    H5S10834   1.140   0.430  10.500 -0.1051 -0.7500 -0.0874
  106OSM    C6S10835   1.297   0.336  10.395  0.7357 -0.3533  1.0289
  106OSM    H6S10836   1.219   0.256  10.399  0.0445  0.2336 -0.4106
  106OSM    H6T10837   1.384   0.291  10.448 -0.4673 -4.1489 -0.0103
  106OSM    C7S10838   1.338   0.368  10.249  0.0616  0.1405  0.1953
  106OSM    H7S10839   1.447   0.388  10.252 -0.0244  0.6516 -0.0276
  106OSM    H7T10840   1.287   0.461  10.214 -0.5260  0.3417  1.5411
  106OSM    C8S10841   1.332   0.245  10.165  0.1633 -0.2188 -0.4429
  106OSM    H8S10842   1.229   0.203  10.166  0.2052 -0.3392 -0.8680
  106OSM    H8T10843   1.397   0.178  10.226 -0.3577  0.8765  1.3359
  106OSM    C9S10844   1.391   0.260  10.019 -0.4209  0.2680 -0.5181
  106OSM    H9S10845   1.421   0.155   9.997  1.6640  0.6434  0.3499
  106OSM    H9T10846   1.485   0.319  10.013  1.1726 -2.2850 -1.4810
  106OSM   C10S10847   1.285   0.311   9.927 -0.5464 -0.0085  0.1964
  106OSM   H10S10848   1.278   0.422   9.930 -2.5034  0.0680 -3.4450
  106OSM   H10T10849   1.186   0.269   9.955 -1.2095  1.0249 -0.5570
  106OSM   C11S10850   1.316   0.279   9.780 -0.4997 -0.0271 -0.2439
  106OSM   H11S10851   1.320   0.169   9.762  1.9644  0.3019 -2.0997
  106OSM   H11T10852   1.418   0.317   9.753 -0.5802  0.5365  0.2346
  106OSM   C12S10853   1.211   0.351   9.684  0.6439  0.2094  0.7059
  106OSM   H12S10854   1.202   0.456   9.722  0.0398  1.2682 -2.2316
  106OSM   H12T10855   1.115   0.296   9.672  1.1489 -1.0641  2.3444
  106OSM   C13S10856   1.270   0.349   9.537  0.2039 -0.6304 -0.1477
  106OSM   H13S10857   1.348   0.427   9.523  0.7457 -1.3433 -1.1330
  106OSM   H13T10858   1.177   0.373   9.481 -0.6279 -0.6582  1.2088
  106OSM   C14S10859   1.308   0.209   9.484 -1.1843 -0.1253 -0.4609
  106OSM   H14S10860   1.238   0.136   9.530 -0.7646 -0.2646 -0.0470
  106OSM   H14T10861   1.410   0.185   9.520 -2.4073 -1.1788  2.4237
  106OSM   C15S10862   1.298   0.206   9.331  0.3427  0.9083  0.2854
  106OSM   H15S10863   1.362   0.122   9.299 -1.2462 -0.5368  0.8184
  106OSM   H15T10864   1.340   0.297   9.283 -0.5062 -0.1616 -2.5628
  106OSM   C16S10865   1.156   0.188   9.265  0.5252 -0.5094  0.1825
  106OSM   H16S10866   1.084   0.265   9.299 -2.5888 -2.9963 -0.6112
  106OSM   H16T10867   1.118   0.090   9.301  2.2790 -1.3368 -0.1364
  106OSM   C17S10868   1.160   0.202   9.111  0.2686  0.6808 -0.5517
  106OSM   H17S10869   1.234   0.128   9.074 -2.3769 -1.4929 -1.6219
  106OSM   H17T10870   1.187   0.304   9.075 -1.8812  0.6608 -2.2892
  106OSM   C18S10871   1.021   0.158   9.052  0.0558  0.0140 -0.4995
  106OSM   H18S10872   0.947   0.236   9.078 -1.1287 -1.7303  1.4766
  106OSM   H18T10873   0.987   0.058   9.086 -0.7115 -0.0463 -1.4087
  106OSM   H18U10874   1.016   0.163   8.941 -1.4984 -0.6615 -0.4679
  106OSM    C1F10875   1.265   0.865  10.235  0.6010 -0.1124 -0.7966
  106OSM     OF10876   1.344   0.959  10.248  0.7413 -0.1787  0.3707
  106OSM    C2F10877   1.205   0.817  10.105  0.2241 -0.2095  0.1790
  106OSM    H2F10878   1.100   0.853  10.101 -0.7756 -3.1088 -0.5147
  106OSM    H2G10879   1.191   0.707  10.099  0.6148 -0.2208 -0.5987
  106OSM    C3F10880   1.280   0.867   9.980  0.3251 -0.7103  0.0797
  106OSM    H3F10881   1.378   0.815   9.973  0.5259 -0.3408  0.1595
  106OSM    H3G10882   1.304   0.974   9.961  0.6487 -0.5557  1.3153
  106OSM    C4F10883   1.212   0.815   9.850  0.4862  0.6414  0.3531
  106OSM    H4F10884   1.115   0.867   9.839  0.6475  0.3983 -2.3324
  106OSM    H4G10885   1.194   0.706   9.857  0.0183  0.6841 -0.1833
  106OSM    C5F10886   1.294   0.851   9.722  0.1504 -0.0064  0.3742
  106OSM    H5F10887   1.382   0.785   9.705  0.2717  0.0628  0.7275
  106OSM    H5G10888   1.359   0.937   9.751 -0.1657 -0.3327  2.0580
  106OSM    C6F10889   1.208   0.872   9.599 -0.0141  0.2627  0.7563
  106OSM    H6F10890   1.266   0.924   9.520  0.1992 -0.1092  0.6733
  106OSM    H6G10891   1.124   0.941   9.625 -0.2463 -1.0248  3.6583
  106OSM    C7F10892   1.147   0.743   9.534 -0.4670 -0.7135  0.2410
  106OSM    H7F10893   1.082   0.688   9.605  0.8934  0.0079  2.0990
  106OSM    H7G10894   1.238   0.681   9.521  1.3696  2.5341 -2.9646
  106OSM    C8F10895   1.065   0.765   9.405  0.1345 -0.0394  0.0685
  106OSM    H8F10896   1.132   0.828   9.343  0.4712 -1.1888 -0.7574
  106OSM    H8G10897   0.984   0.840   9.422 -1.2121 -1.3693 -0.3051
  106OSM    C9F10898   1.010   0.645   9.335 -0.5346  0.6694  0.1317
  106OSM    H9F10899   0.973   0.563   9.397 -2.4549  1.2069 -0.2753
  106OSM   C10F10900   1.011   0.627   9.196  0.3436 -0.5052 -0.8292
  106OSM   H10F10901   0.959   0.540   9.153 -2.3257  1.0512 -0.8751
  106OSM   C11F10902   1.069   0.718   9.091  0.1259 -0.1606 -0.2399
  106OSM   H11F10903   1.171   0.683   9.066 -0.3464 -0.8980 -1.1363
  106OSM   H11G10904   1.085   0.826   9.112  0.6410 -0.8301  3.1244
  106OSM   C12F10905   0.981   0.725   8.962  0.0977 -0.4493 -0.1204
  106OSM   H12F10906   0.984   0.830   8.927 -0.5579 -0.3655  0.0694
  106OSM   H12G10907   0.876   0.703   8.990  1.1132 -4.4928  0.9070
  106OSM   C13F10908   1.026   0.616   8.855  0.1084 -0.0046 -0.7905
  106OSM   H13F10909   1.040   0.515   8.900  1.8823  1.1248  1.3481
  106OSM   H13G10910   1.131   0.641   8.827  0.1603  1.6250  0.7637
  106OSM   C14F10911   0.936   0.608   8.733  0.3682 -0.2387  0.9466
  106OSM   H14F10912   0.913   0.706   8.686  0.4482  0.7277  2.8451
  106OSM   H14G10913   0.837   0.565   8.758 -0.4665  0.6146 -0.8090
  106OSM   C15F10914   0.997   0.495   8.639  0.6985 -0.0969 -0.1882
  106OSM   H15F10915   0.934   0.415   8.594  1.4016 -1.0036  0.4080
  106OSM   H15G10916   1.081   0.441   8.687 -0.5744 -0.4569  1.7238
  106OSM   C16F10917   1.070   0.577   8.523  0.1030 -0.1029 -0.1211
  106OSM   H16F10918   1.142   0.651   8.564  0.0748 -0.4057  0.4819
  106OSM   H16G10919   0.994   0.642   8.475  2.5215  2.0433 -1.1335
  106OSM   C17F10920   1.131   0.484   8.425 -0.3191 -0.0994 -0.6812
  106OSM   H17F10921   1.053   0.439   8.360  0.6435 -0.9559 -1.2483
  106OSM   H17G10922   1.178   0.398   8.477  0.7689 -0.2555 -1.8811
  106OSM   C18F10923   1.232   0.544   8.329  0.5932 -0.1931  0.1984
  106OSM   H18F10924   1.182   0.592   8.242 -3.4624 -2.4643  1.1646
  106OSM   H18G10925   1.303   0.466   8.295  0.8439 -1.0297  2.5136
  106OSM   H18H10926   1.292   0.622   8.380  1.8365 -2.0699  1.6681
  107OSM      N10927   2.366   4.469  11.051 -0.1705 -0.1583 -0.3885
  107OSM    C1510928   2.462   4.368  11.006 -0.3135  0.2281  0.2024
  107OSM   H15A10929   2.505   4.394  10.910  1.3293 -0.2838  0.7864
  107OSM   H15B10930   2.407   4.278  10.985 -0.7195  0.4944  0.1094
  107OSM   H15C10931   2.531   4.326  11.077 -1.8800 -3.0031 -0.1268
  107OSM    C1410932   2.271   4.491  10.938  0.6093  0.1802 -0.2907
  107OSM   H14A10933   2.322   4.511  10.845  1.0786 -0.5422 -0.1920
  107OSM   H14B10934   2.203   4.572  10.961 -0.3852 -0.1958 -1.8448
  107OSM   H14C10935   2.211   4.404  10.915  0.9869  0.4480 -2.3848
  107OSM    C1310936   2.291   4.418  11.172 -0.1126 -0.2191  0.0971
  107OSM   H13A10937   2.221   4.337  11.156 -0.2902 -0.1508  0.5163
  107OSM   H13B10938   2.236   4.504  11.208  2.5846  2.0202 -0.9532
  107OSM   H13C10939   2.356   4.383  11.250  0.2074 -2.1222 -0.9872
  107OSM    C1210940   2.448   4.590  11.089 -0.4611 -0.4704 -0.0303
  107OSM   H12A10941   2.495   4.629  11.000  0.6490 -0.9303  0.3493
  107OSM   H12B10942   2.531   4.558  11.150  0.2469 -0.7846 -1.1456
  107OSM    C1110943   2.378   4.710  11.153  0.6677  0.0108  0.0549
  107OSM   H11A10944   2.455   4.787  11.175 -0.0430  0.9603 -0.7592
  107OSM   H11B10945   2.341   4.673  11.251 -0.4727  0.7920 -0.0781
  107OSM      P10946   2.293   4.908  11.011  0.0140  0.0372 -0.0957
  107OSM    O1310947   2.185   4.946  10.919 -0.1454 -0.6784  0.2647
  107OSM    O1410948   2.323   4.997  11.124  0.0435 -0.1437 -0.2579
  107OSM    O1110949   2.433   4.897  10.928  0.2228 -0.0829 -0.0860
  107OSM    O1210950   2.276   4.765  11.057 -0.1715  0.1762 -0.0679
  107OSM    C1S10951   2.426   4.817  10.813 -0.1768 -0.0238 -0.3603
  107OSM    H1S10952   2.359   4.728  10.819  0.2125 -0.4293 -1.7464
  107OSM    H1T10953   2.528   4.774  10.808  0.0598  0.2280  1.8950
  107OSM     NF10954   2.413   4.798  10.570  0.3117 -0.1205 -0.5698
  107OSM    HNF10955   2.474   4.832  10.499 -0.0294 -0.1095 -0.8583
  107OSM    C2S10956   2.396   4.892  10.687 -0.3223 -0.6648  0.2594
  107OSM    H2S10957   2.291   4.927  10.686 -1.1927 -3.2030  0.9724
  107OSM    C3S10958   2.480   5.020  10.673 -0.0201  0.3486  0.5672
  107OSM    H3S10959   2.589   5.002  10.663 -0.3070 -1.5025  0.5779
  107OSM     O310960   2.463   5.116  10.774  0.0842 -0.1918 -0.2655
  107OSM    HO310961   2.387   5.091  10.827 -0.5167 -0.4078 -1.2176
  107OSM    C4S10962   2.452   5.084  10.544  0.1932 -0.3342 -0.4388
  107OSM    H4S10963   2.541   5.089  10.480  0.5765  1.7532  0.2320
  107OSM    C5S10964   2.353   5.163  10.501 -0.3139 -0.4815  0.1802
  107OSM    H5S10965   2.273   5.194  10.569  1.3519  0.3531  1.8207
  107OSM    C6S10966   2.335   5.211  10.357  0.3512 -0.4900  1.1429
  107OSM    H6S10967   2.430   5.210  10.300  1.2938  2.1780  2.5775
  107OSM    H6T10968   2.296   5.315  10.350  2.5460  0.3321  0.9333
  107OSM    C7S10969   2.222   5.135  10.281 -0.1350 -1.0942 -0.7062
  107OSM    H7S10970   2.201   5.185  10.184  2.0692  0.1916 -0.5599
  107OSM    H7T10971   2.127   5.138  10.339 -0.5608 -1.1953 -1.3980
  107OSM    C8S10972   2.280   4.995  10.253  0.5357  0.4673  0.0969
  107OSM    H8S10973   2.298   4.945  10.351  1.3724  1.9034  0.6958
  107OSM    H8T10974   2.383   4.991  10.211  0.0399 -3.9222 -0.8788
  107OSM    C9S10975   2.200   4.893  10.166  0.3876 -0.5160  0.4177
  107OSM    H9S10976   2.094   4.921  10.148  1.2543  0.5209 -3.6283
  107OSM    H9T10977   2.208   4.799  10.225  1.4971 -0.7923 -0.1457
  107OSM   C10S10978   2.272   4.874  10.033 -0.5009  0.4770  0.8168
  107OSM   H10S10979   2.208   4.812   9.966  0.8973 -1.1492  0.9462
  107OSM   H10T10980   2.372   4.827  10.046 -1.5462 -1.5564  1.7720
  107OSM   C11S10981   2.305   5.002   9.962 -0.6997  0.3213 -0.0544
  107OSM   H11S10982   2.410   5.022   9.991 -0.8506 -0.2821  0.9258
  107OSM   H11T10983   2.234   5.083   9.991 -0.4286  1.3090 -2.0860
  107OSM   C12S10984   2.293   4.986   9.811 -0.6371  0.2105  0.7037
  107OSM   H12S10985   2.253   5.078   9.765 -0.0078 -0.6191 -1.5508
  107OSM   H12T10986   2.209   4.920   9.780 -1.2571  2.2315 -2.0876
  107OSM   C13S10987   2.435   4.942   9.752  0.3630  0.3389  0.5172
  107OSM   H13S10988   2.452   4.835   9.776 -3.5815 -0.6836 -0.7569
  107OSM   H13T10989   2.507   5.019   9.787  0.6310  0.6058 -0.5980
  107OSM   C14S10990   2.436   4.955   9.595 -0.1949  0.4656  0.8029
  107OSM   H14S10991   2.341   4.926   9.544 -0.2888  0.6756  0.8599
  107OSM   H14T10992   2.518   4.886   9.567  0.3304  0.8236  1.4380
  107OSM   C15S10993   2.489   5.094   9.554  0.1707 -0.0027  0.4038
  107OSM   H15S10994   2.588   5.109   9.602  1.1041  0.8246 -1.7044
  107OSM   H15T10995   2.418   5.165   9.602  0.4197  1.0050 -0.6946
  107OSM   C16S10996   2.477   5.111   9.403 -0.2715  0.1671  0.6346
  107OSM   H16S10997   2.487   5.018   9.343 -0.2639  1.2369 -1.0368
  107OSM   H16T10998   2.544   5.195   9.376  0.9784 -0.0976  2.7619
  107OSM   C17S10999   2.349   5.169   9.343 -0.2975 -0.5203  0.2862
  107OSM   H17S11000   2.326   5.266   9.391  1.0318 -0.5754  1.0499
  107OSM   H17T11001   2.260   5.103   9.352 -1.3726  0.9020  0.2930
  107OSM   C18S11002   2.372   5.198   9.194 -0.0321 -0.6456  0.5207
  107OSM   H18S11003   2.380   5.100   9.143 -1.9261 -0.2320 -0.6051
  107OSM   H18T11004   2.459   5.265   9.174 -1.1466  0.3747 -0.9785
  107OSM   H18U11005   2.279   5.247   9.159 -0.2257 -0.8253  0.7768
  107OSM    C1F11006   2.333   4.691  10.540 -0.3150  0.2201 -0.4793
  107OSM     OF11007   2.237   4.664  10.613 -0.3487  0.5527  0.0621
  107OSM    C2F11008   2.379   4.601  10.432 -0.5985 -0.0835 -0.1747
  107OSM    H2F11009   2.448   4.525  10.474  1.1856  2.0848  0.8989
  107OSM    H2G11010   2.416   4.663  10.348 -0.4994 -1.0992 -0.8919
  107OSM    C3F11011   2.263   4.519  10.362 -0.3547 -0.0956  0.1089
  107OSM    H3F11012   2.187   4.592  10.328  0.1117  0.0844 -0.5607
  107OSM    H3G11013   2.201   4.455  10.428 -0.0012  0.2725  0.7996
  107OSM    C4F11014   2.316   4.435  10.244  0.1310  0.3029 -0.1609
  107OSM    H4F11015   2.231   4.375  10.205 -0.7599  1.2167  0.3145
  107OSM    H4G11016   2.396   4.378  10.295 -0.7404 -0.7786  0.0176
  107OSM    C5F11017   2.351   4.521  10.119 -0.1369 -0.1385  0.2517
  107OSM    H5F11018   2.437   4.587  10.143 -0.0607 -1.0272  2.5149
  107OSM    H5G11019   2.261   4.583  10.103 -0.7308 -1.0236  0.0963
  107OSM    C6F11020   2.389   4.445   9.992 -0.2464  0.2786 -0.0207
  107OSM    H6F11021   2.302   4.384   9.960 -1.4806  0.1064  3.4265
  107OSM    H6G11022   2.471   4.376  10.018 -0.9621  0.2874  2.3886
  107OSM    C7F11023   2.430   4.533   9.876 -0.2343 -0.5836  0.4264
  107OSM    H7F11024   2.480   4.628   9.905 -2.7305  0.8278  0.2884
  107OSM    H7G11025   2.338   4.560   9.820  1.6374  2.6220 -1.2503
  107OSM    C8F11026   2.528   4.450   9.788 -0.0383 -0.3096 -0.4276
  107OSM    H8F11027   2.499   4.343   9.797 -1.2650  0.1804  1.8204
  107OSM    H8G11028   2.633   4.457   9.824 -0.5636 -0.3289  1.1521
  107OSM    C9F11029   2.537   4.491   9.649  0.7733  0.1511  0.2154
  107OSM    H9F11030   2.492   4.589   9.629 -1.6343 -0.8572  0.5647
  107OSM   C10F11031   2.567   4.408   9.548  0.4650 -0.7650 -0.0240
  107OSM   H10F11032   2.566   4.458   9.450  2.6636 -0.0634  0.2803
  107OSM   C11F11033   2.600   4.260   9.559  0.6521 -0.1347  0.0957
  107OSM   H11F11034   2.508   4.199   9.569  2.2172 -2.4827  0.6097
  107OSM   H11G11035   2.655   4.228   9.650  0.4206 -0.4039  0.1404
  107OSM   C12F11036   2.682   4.210   9.438  0.0423  0.4689  0.1263
  107OSM   H12F11037   2.689   4.099   9.437 -0.9534  0.4136 -0.4764
  107OSM   H12G11038   2.783   4.256   9.444  0.5947 -0.4139 -1.9259
  107OSM   C13F11039   2.625   4.238   9.296  0.1838 -0.7568  0.4457
  107OSM   H13F11040   2.695   4.195   9.221 -1.5189 -2.5283 -0.1640
  107OSM   H13G11041   2.635   4.348   9.282  1.6207 -0.8978  0.2927
  107OSM   C14F11042   2.477   4.202   9.264 -0.6422  0.0052 -0.1033
  107OSM   H14F11043   2.412   4.231   9.350  0.4629  0.5683  0.5538
  107OSM   H14G11044   2.472   4.092   9.254  0.0012 -0.1222  0.8638
  107OSM   C15F11045   2.429   4.282   9.141 -0.3671 -0.7329 -0.7203
  107OSM   H15F11046   2.410   4.387   9.170  1.4128 -0.4582 -0.5351
  107OSM   H15G11047   2.326   4.245   9.119 -0.4888 -1.1830  0.5805
  107OSM   C16F11048   2.521   4.258   9.024  0.3432 -0.2378 -1.2282
  107OSM   H16F11049   2.565   4.156   9.027  3.2769  0.9914  3.7381
  107OSM   H16G11050   2.612   4.315   9.053 -0.2502 -0.1427  0.5529
  107OSM   C17F11051   2.480   4.312   8.894  0.3259  0.0202  0.8307
  107OSM   H17F11052   2.449   4.418   8.890  1.2130  0.2753  0.4091
  107OSM   H17G11053   2.386   4.260   8.866  0.2897 -0.0233  1.0364
  107OSM   C18F11054   2.583   4.298   8.787 -0.9072 -0.0652 -0.6131
  107OSM   H18F11055   2.668   4.364   8.811 -1.5694  0.8550 -0.7824
  107OSM   H18G11056   2.534   4.326   8.691 -0.0344  1.3503 -0.6669
  107OSM   H18H11057   2.623   4.194   8.780 -2.3108 -0.6622 -0.0387
  108OSM      N11058   5.555   2.502  11.168  0.6597  0.5196  0.0284
  108OSM    C1511059   5.476   2.580  11.274 -0.3037  0.1276 -1.1588
  108OSM   H15A11060   5.435   2.672  11.233  0.7428  0.3713 -1.6847
  108OSM   H15B11061   5.539   2.584  11.362  0.7664  2.5515 -1.9803
  108OSM   H15C11062   5.387   2.523  11.294 -0.1997 -0.1022 -1.3566
  108OSM    C1411063   5.465   2.477  11.050  0.7102 -0.4419  0.7317
  108OSM   H14A11064   5.519   2.425  10.972 -1.0942 -1.6649  0.2736
  108OSM   H14B11065   5.441   2.572  11.003 -0.1808 -1.0825 -0.1230
  108OSM   H14C11066   5.377   2.419  11.074  1.2766 -1.3701  0.5837
  108OSM    C1311067   5.666   2.588  11.119 -0.3878  0.2311 -0.3430
  108OSM   H13A11068   5.635   2.673  11.061 -0.4944 -0.5766 -1.4832
  108OSM   H13B11069   5.738   2.533  11.060 -1.0521 -1.1420  0.1115
  108OSM   H13C11070   5.717   2.623  11.208  1.0046 -1.3447 -0.4990
  108OSM    C1211071   5.615   2.371  11.215  0.0624  0.3782 -0.5213
  108OSM   H12A11072   5.543   2.328  11.283  0.9586 -2.1276 -1.1112
  108OSM   H12B11073   5.700   2.400  11.276  0.9416 -0.8012 -1.1575
  108OSM    C1111074   5.660   2.257  11.118 -1.3474  0.4346 -1.1650
  108OSM   H11A11075   5.561   2.206  11.118 -0.1982 -1.8933  0.4208
  108OSM   H11B11076   5.726   2.179  11.160 -2.4941  1.2188  2.3325
  108OSM      P11077   5.836   2.294  10.933 -0.2011  0.2946  0.1114
  108OSM    O1311078   5.896   2.426  10.950  0.2518  0.6697  0.3287
  108OSM    O1411079   5.922   2.186  10.982  0.1117 -0.1900 -0.5938
  108OSM    O1111080   5.823   2.271  10.774  0.3612  0.1292  0.4499
  108OSM    O1211081   5.688   2.295  10.989 -0.6285 -0.3307 -0.7940
  108OSM    C1S11082   5.705   2.315  10.716  0.6131 -0.4105  0.4585
  108OSM    H1S11083   5.710   2.425  10.702  0.7574 -0.1561  2.4361
  108OSM    H1T11084   5.613   2.280  10.767 -0.5231  1.5181 -0.2074
  108OSM     NF11085   5.571   2.309  10.513 -0.3474 -0.4604 -0.5199
  108OSM    HNF11086   5.483   2.263  10.506 -0.7819  0.3943 -0.6412
  108OSM    C2S11087   5.688   2.248  10.576 -0.3339 -0.1501 -0.1289
  108OSM    H2S11088   5.778   2.269  10.515 -0.0136 -1.8862 -0.2859
  108OSM    C3S11089   5.679   2.091  10.587 -0.8606  0.0048 -0.2781
  108OSM    H3S11090   5.610   2.058  10.668  1.3089 -0.2185  1.5037
  108OSM     O311091   5.807   2.032  10.624  0.2540 -0.1539 -0.6280
  108OSM    HO311092   5.868   2.102  10.649  2.7065 -2.0386 -1.1585
  108OSM    C4S11093   5.623   2.028  10.455 -0.4307 -0.9606 -0.6166
  108OSM    H4S11094   5.522   1.986  10.465 -0.4451 -1.2682 -1.9212
  108OSM    C5S11095   5.691   1.999  10.344 -0.6403  0.3921  0.5421
  108OSM    H5S11096   5.793   2.035  10.329 -0.1760 -0.8668  0.6437
  108OSM    C6S11097   5.640   1.931  10.218  0.2873  0.6524 -0.2678
  108OSM    H6S11098   5.607   1.828  10.242  2.1496 -0.2273 -1.3212
  108OSM    H6T11099   5.721   1.904  10.147  0.9058 -0.5040  0.8614
  108OSM    C7S11100   5.527   1.996  10.131  0.2995  0.2693  0.5162
  108OSM    H7S11101   5.438   2.019  10.194  0.3368 -1.4931  1.2456
  108OSM    H7T11102   5.512   1.920  10.052 -1.9242  2.2050 -1.0029
  108OSM    C8S11103   5.570   2.133  10.075  0.7360 -0.7770  0.2757
  108OSM    H8S11104   5.677   2.139  10.046  1.2396 -0.5757  2.1251
  108OSM    H8T11105   5.542   2.209  10.151  2.6679 -0.9535  1.1853
  108OSM    C9S11106   5.495   2.181   9.948  0.0151  1.1695  0.6933
  108OSM    H9S11107   5.538   2.272   9.902  0.8249  0.1077 -0.7228
  108OSM    H9T11108   5.392   2.210   9.977 -1.3977 -0.9782 -1.8606
  108OSM   C10S11109   5.496   2.078   9.831  0.2048  0.6887 -0.3662
  108OSM   H10S11110   5.427   1.995   9.858  0.5140 -0.4409 -2.9350
  108OSM   H10T11111   5.599   2.040   9.812  0.9145  1.0123  2.4769
  108OSM   C11S11112   5.453   2.139   9.699  0.2491  0.2067 -0.5148
  108OSM   H11S11113   5.526   2.221   9.682  0.5825  0.4191  1.8691
  108OSM   H11T11114   5.348   2.173   9.717 -0.4120 -1.7360 -0.5466
  108OSM   C12S11115   5.457   2.051   9.578  0.7462 -0.1877  0.0042
  108OSM   H12S11116   5.381   1.970   9.590  1.0439 -0.2518  1.5450
  108OSM   H12T11117   5.562   2.018   9.562  0.4990 -0.4672 -1.0747
  108OSM   C13S11118   5.404   2.130   9.455  0.1793 -0.0072  0.1492
  108OSM   H13S11119   5.472   2.215   9.438 -0.0906  0.4469  1.3017
  108OSM   H13T11120   5.299   2.166   9.453  0.3404  0.3850 -1.9020
  108OSM   C14S11121   5.430   2.051   9.326 -0.0560 -0.1348  1.0180
  108OSM   H14S11122   5.387   2.120   9.250  3.9575  2.7427  1.1768
  108OSM   H14T11123   5.392   1.948   9.343  0.9405 -0.5345  0.8750
  108OSM   C15S11124   5.578   2.029   9.280  0.2776 -0.2160 -0.0269
  108OSM   H15S11125   5.617   1.965   9.362  0.5954 -1.1334 -0.8837
  108OSM   H15T11126   5.634   2.125   9.285  1.0610 -0.5843 -1.4032
  108OSM   C16S11127   5.598   1.942   9.156 -0.0710 -0.4108  0.0650
  108OSM   H16S11128   5.519   1.976   9.085 -1.1640 -0.5657  1.1858
  108OSM   H16T11129   5.573   1.835   9.171  0.0093 -0.4530 -0.1077
  108OSM   C17S11130   5.739   1.945   9.102 -0.4643 -0.0586 -0.2447
  108OSM   H17S11131   5.806   1.920   9.186 -0.0105 -3.0517 -1.4395
  108OSM   H17T11132   5.764   2.049   9.070 -0.3276 -0.5319 -1.7313
  108OSM   C18S11133   5.762   1.844   8.988  0.2461  0.1793  0.2879
  108OSM   H18S11134   5.701   1.751   9.002 -0.2794 -0.0005 -2.8345
  108OSM   H18T11135   5.865   1.812   8.964  0.2628  0.1345  0.4169
  108OSM   H18U11136   5.712   1.872   8.893 -0.7928  0.1113  0.7966
  108OSM    C1F11137   5.572   2.433  10.477 -0.4283  0.3020 -0.3685
  108OSM     OF11138   5.677   2.491  10.473  0.6103 -0.2702 -0.6298
  108OSM    C2F11139   5.435   2.508  10.466  0.3394 -0.7385  0.5709
  108OSM    H2F11140   5.422   2.576  10.553 -0.0172 -1.2256  0.9008
  108OSM    H2G11141   5.351   2.437  10.456 -0.1616  0.0394 -1.0388
  108OSM    C3F11142   5.425   2.615  10.357 -0.0092 -0.7028  0.7306
  108OSM    H3F11143   5.518   2.676  10.361 -1.8805  2.6151 -2.7378
  108OSM    H3G11144   5.354   2.694  10.388  1.2714  0.1689  1.5118
  108OSM    C4F11145   5.390   2.552  10.219  0.3330  0.4252 -0.1699
  108OSM    H4F11146   5.319   2.470  10.240 -0.2587  1.1598  0.7098
  108OSM    H4G11147   5.475   2.498  10.170 -0.7502 -0.3988 -1.1633
  108OSM    C5F11148   5.328   2.650  10.119  0.3888 -0.3904 -0.1212
  108OSM    H5F11149   5.405   2.728  10.103 -0.5395  0.1979 -1.8363
  108OSM    H5G11150   5.240   2.697  10.170  1.8435  0.7657  1.4003
  108OSM    C6F11151   5.279   2.586   9.986  0.0010  0.5817 -0.0149
  108OSM    H6F11152   5.199   2.523  10.031  1.2982  0.0948  1.6643
  108OSM    H6G11153   5.354   2.512   9.952 -0.9226 -0.9659  1.2176
  108OSM    C7F11154   5.234   2.669   9.872 -0.4728 -0.1746  0.0119
  108OSM    H7F11155   5.330   2.710   9.834 -0.9981  1.6731  0.6457
  108OSM    H7G11156   5.176   2.749   9.923 -1.4514 -0.2153 -1.0346
  108OSM    C8F11157   5.155   2.598   9.762  0.2421 -0.5029 -0.5320
  108OSM    H8F11158   5.128   2.676   9.688  1.0961 -0.3070 -0.6370
  108OSM    H8G11159   5.065   2.564   9.816 -1.6727  1.6026 -2.3043
  108OSM    C9F11160   5.228   2.486   9.692 -0.5362 -0.3723  0.5206
  108OSM    H9F11161   5.253   2.403   9.760  3.9842  1.8083  1.6776
  108OSM   C10F11162   5.270   2.484   9.568 -0.2719  0.3089 -0.3386
  108OSM   H10F11163   5.314   2.387   9.539  1.6317  0.9059  0.5094
  108OSM   C11F11164   5.253   2.589   9.464 -0.5761 -0.1946 -0.0735
  108OSM   H11F11165   5.360   2.619   9.456 -0.4352 -0.6714 -0.0553
  108OSM   H11G11166   5.205   2.680   9.505 -0.0463  0.8978 -1.7828
  108OSM   C12F11167   5.183   2.550   9.335  0.2597  0.6819 -0.5861
  108OSM   H12F11168   5.131   2.632   9.282  2.9565  2.5358 -0.4815
  108OSM   H12G11169   5.117   2.463   9.357 -0.3656  1.0042 -1.1778
  108OSM   C13F11170   5.283   2.496   9.225 -0.4606 -0.4190 -0.3845
  108OSM   H13F11171   5.315   2.392   9.246  1.0944 -0.0352 -0.8196
  108OSM   H13G11172   5.381   2.549   9.231  0.4714 -2.1117 -0.5742
  108OSM   C14F11173   5.235   2.495   9.081 -0.3054  0.6896 -1.0243
  108OSM   H14F11174   5.329   2.480   9.024  0.1197  1.9697 -0.6789
  108OSM   H14G11175   5.196   2.595   9.054 -0.3169  1.4879  1.7539
  108OSM   C15F11176   5.128   2.395   9.049 -0.4440  0.0174  0.7849
  108OSM   H15F11177   5.039   2.421   9.110 -0.5147  2.9211 -0.4759
  108OSM   H15G11178   5.157   2.290   9.071  0.1433 -0.2076 -1.0154
  108OSM   C16F11179   5.080   2.399   8.903  0.0477 -0.0182 -1.2459
  108OSM   H16F11180   5.117   2.488   8.847 -0.4942  0.8399 -0.2455
  108OSM   H16G11181   4.970   2.404   8.912  0.1786  0.1088  0.3625
  108OSM   C17F11182   5.107   2.273   8.816 -0.5049 -0.0870 -0.9219
  108OSM   H17F11183   5.068   2.184   8.871  0.2517  0.6625  0.8737
  108OSM   H17G11184   5.218   2.270   8.808 -0.5694 -0.9930 -1.5176
  108OSM   C18F11185   5.062   2.262   8.673 -0.1667 -0.4012  0.4312
  108OSM   H18F11186   4.968   2.203   8.665  0.4589 -1.3513  0.0575
  108OSM   H18G11187   5.139   2.207   8.616  0.1167 -0.2332  0.6536
  108OSM   H18H11188   5.055   2.367   8.637  1.3889 -0.8311 -1.1803
  109OSM      N11189   6.592   3.228  10.551  0.0249  0.1930 -0.3788
  109OSM    C1511190   6.570   3.365  10.602  0.6809  0.6462 -0.1268
  109OSM   H15A11191   6.580   3.365  10.709  0.3432 -2.7892 -0.0448
  109OSM   H15B11192   6.476   3.407  10.569 -1.0008 -2.0004  1.1531
  109OSM   H15C11193   6.649   3.427  10.561 -0.0513  0.8140 -1.3174
  109OSM    C1411194   6.614   3.243  10.405  0.0497  0.3703 -0.2133
  109OSM   H14A11195   6.644   3.149  10.360 -1.9387 -1.7046  2.5838
  109OSM   H14B11196   6.689   3.319  10.388  0.5329 -0.3580 -1.3707
  109OSM   H14C11197   6.520   3.273  10.362 -0.9900 -3.5695 -0.8842
  109OSM    C1311198   6.718   3.191  10.608  0.0080  0.0970  0.5912
  109OSM   H13A11199   6.741   3.088  10.587  0.9606 -0.0764  2.3981
  109OSM   H13B11200   6.714   3.203  10.716 -1.0196 -0.9931  0.6844
  109OSM   H13C11201   6.797   3.254  10.571  0.0549  0.5367  1.4293
  109OSM    C1211202   6.482   3.131  10.583 -0.0380 -0.2301  0.1393
  109OSM   H12A11203   6.525   3.032  10.586  0.3020 -0.1043 -0.7193
  109OSM   H12B11204   6.411   3.122  10.502 -1.4429 -0.2408  1.3333
  109OSM    C1111205   6.397   3.149  10.717  0.2813 -0.3636 -0.2767
  109OSM   H11A11206   6.457   3.161  10.810 -1.2503  2.8045  0.3887
  109OSM   H11B11207   6.351   3.050  10.735  1.1984 -0.7050  0.2335
  109OSM      P11208   6.166   3.226  10.629 -0.4019  0.3780  0.6092
  109OSM    O1311209   6.193   3.153  10.504  0.1038 -0.0322  0.0068
  109OSM    O1411210   6.080   3.159  10.723  0.4986  0.3610  0.0080
  109OSM    O1111211   6.096   3.357  10.595  0.2352  0.0828 -0.4655
  109OSM    O1211212   6.301   3.254  10.713  0.1301  0.1169  0.3974
  109OSM    C1S11213   6.162   3.457  10.517 -0.5003  0.5818 -0.3062
  109OSM    H1S11214   6.272   3.450  10.524 -0.4209  0.4443 -1.5576
  109OSM    H1T11215   6.142   3.560  10.552 -2.3660 -0.2332  1.1259
  109OSM     NF11216   6.166   3.560  10.286 -0.4727 -0.3970  0.2535
  109OSM    HNF11217   6.124   3.649  10.269 -1.8149 -1.1363 -0.3952
  109OSM    C2S11218   6.100   3.458  10.376 -0.1834 -0.5760 -0.0778
  109OSM    H2S11219   6.118   3.360  10.327  3.9725  0.9300 -1.7541
  109OSM    C3S11220   5.939   3.472  10.381 -0.2102 -0.1279  0.0656
  109OSM    H3S11221   5.912   3.579  10.397  0.3290 -0.2295  1.7215
  109OSM     O311222   5.864   3.401  10.479  0.3810  0.1469 -0.3350
  109OSM    HO311223   5.934   3.370  10.537  1.3097  0.9283 -1.0117
  109OSM    C4S11224   5.883   3.457  10.233 -0.1507  0.4772  0.2358
  109OSM    H4S11225   5.916   3.365  10.182  1.0279 -0.1649  2.0696
  109OSM    C5S11226   5.802   3.539  10.160 -0.6148  1.0167  0.4971
  109OSM    H5S11227   5.765   3.631  10.208 -1.3337  0.0458  1.8357
  109OSM    C6S11228   5.745   3.527  10.021  0.0517  0.2896 -0.2422
  109OSM    H6S11229   5.756   3.615   9.954  0.3371  0.2263 -0.2797
  109OSM    H6T11230   5.635   3.513  10.015 -0.0936  1.9877 -1.9409
  109OSM    C7S11231   5.805   3.416   9.926 -0.3593 -0.0902  0.8909
  109OSM    H7S11232   5.821   3.317   9.973 -2.4619 -0.4390  0.9175
  109OSM    H7T11233   5.902   3.462   9.899  0.2486 -3.2823 -2.5999
  109OSM    C8S11234   5.723   3.402   9.798 -0.2886  0.1354  0.3768
  109OSM    H8S11235   5.692   3.502   9.763  0.7693  1.5491  3.3339
  109OSM    H8T11236   5.639   3.335   9.826  0.6559 -0.6576  1.3779
  109OSM    C9S11237   5.797   3.334   9.686 -0.4888 -0.1474 -0.2175
  109OSM    H9S11238   5.846   3.249   9.739 -0.1706  0.2109  0.0612
  109OSM    H9T11239   5.876   3.403   9.649 -3.5311  3.6668  0.1788
  109OSM   C10S11240   5.713   3.272   9.571  0.6013  0.2550 -0.2759
  109OSM   H10S11241   5.679   3.359   9.512  1.4188  1.3123  0.7708
  109OSM   H10T11242   5.636   3.201   9.609  0.2273  0.1470 -1.2401
  109OSM   C11S11243   5.803   3.191   9.468 -0.1073 -0.3656  0.3693
  109OSM   H11S11244   5.856   3.119   9.533  1.6633  0.8084  0.2532
  109OSM   H11T11245   5.876   3.268   9.436 -1.1079 -0.1175 -1.3948
  109OSM   C12S11246   5.727   3.136   9.350 -0.1839 -0.7977  0.3177
  109OSM   H12S11247   5.659   3.213   9.309  0.0674 -0.1913  1.0290
  109OSM   H12T11248   5.661   3.057   9.390  0.8053 -0.1296  3.3784
  109OSM   C13S11249   5.827   3.083   9.249  0.4612 -0.0588  0.1128
  109OSM   H13S11250   5.803   2.976   9.233 -0.7734  0.3373 -0.8416
  109OSM   H13T11251   5.926   3.104   9.295  0.0941  0.1164  0.8227
  109OSM   C14S11252   5.818   3.173   9.126  0.1701 -0.1664  0.8205
  109OSM   H14S11253   5.865   3.271   9.151  1.8391 -0.6603 -0.3161
  109OSM   H14T11254   5.712   3.193   9.098  0.0964 -0.0829  1.1567
  109OSM   C15S11255   5.891   3.117   8.996 -0.0884  0.2870 -0.3500
  109OSM   H15S11256   5.845   3.017   8.983 -1.9584  1.1158 -0.3542
  109OSM   H15T11257   6.001   3.113   9.014  0.0560  0.7067 -1.1184
  109OSM   C16S11258   5.862   3.184   8.858 -0.0792 -0.0228 -0.1216
  109OSM   H16S11259   5.894   3.289   8.876  0.0329  0.2671 -1.9021
  109OSM   H16T11260   5.751   3.184   8.851 -0.0150  2.9891 -2.7930
  109OSM   C17S11261   5.936   3.118   8.746 -0.4917 -0.1835  0.3728
  109OSM   H17S11262   5.920   3.013   8.777  0.1097  0.0752  1.6080
  109OSM   H17T11263   6.042   3.153   8.756 -1.2012  1.3450  3.1450
  109OSM   C18S11264   5.872   3.158   8.612 -0.4448  0.3477 -0.2793
  109OSM   H18S11265   5.764   3.134   8.629 -0.3047  0.7270  1.1703
  109OSM   H18T11266   5.908   3.084   8.537  2.6339  1.0295  0.4952
  109OSM   H18U11267   5.902   3.261   8.585 -1.3484  1.0329  1.2683
  109OSM    C1F11268   6.289   3.538  10.232 -0.1814 -0.1758 -0.1359
  109OSM     OF11269   6.352   3.439  10.259 -0.1878  0.6506  0.0547
  109OSM    C2F11270   6.337   3.644  10.139  0.3159 -0.0099  0.9459
  109OSM    H2F11271   6.388   3.729  10.190  1.6754  2.2284 -3.8121
  109OSM    H2G11272   6.246   3.691  10.095 -0.2294 -2.1925 -0.3298
  109OSM    C3F11273   6.444   3.593  10.039 -0.2349  0.1847  0.0588
  109OSM    H3F11274   6.406   3.503   9.986 -0.3435 -1.4339  2.7678
  109OSM    H3G11275   6.530   3.557  10.099  0.6903  1.9397 -0.1748
  109OSM    C4F11276   6.458   3.696   9.934  0.1487  0.2277  0.1631
  109OSM    H4F11277   6.474   3.797   9.977  1.4594 -0.0618  0.3874
  109OSM    H4G11278   6.358   3.716   9.891  0.9097  0.6657 -1.4599
  109OSM    C5F11279   6.561   3.665   9.818 -0.3838 -0.2867 -0.2265
  109OSM    H5F11280   6.541   3.558   9.798  0.3560 -0.3631 -0.5619
  109OSM    H5G11281   6.662   3.670   9.865 -0.4891  0.4828 -0.0692
  109OSM    C6F11282   6.563   3.745   9.696  0.0832  0.2367 -0.0835
  109OSM    H6F11283   6.632   3.697   9.624 -0.2230  2.3138 -1.8171
  109OSM    H6G11284   6.604   3.849   9.701  1.0832  0.0392 -3.3878
  109OSM    C7F11285   6.426   3.764   9.632  0.3149 -0.8227 -0.0737
  109OSM    H7F11286   6.360   3.827   9.695  1.9409  0.1181  0.7236
  109OSM    H7G11287   6.383   3.662   9.629  0.6041 -1.1203  3.6668
  109OSM    C8F11288   6.438   3.805   9.482  0.0708  0.6396 -0.1146
  109OSM    H8F11289   6.344   3.780   9.429  0.6587 -2.1741  0.0706
  109OSM    H8G11290   6.522   3.746   9.439 -0.2856  1.0098 -1.3373
  109OSM    C9F11291   6.469   3.955   9.459 -0.4916 -1.5291  0.2975
  109OSM    H9F11292   6.460   4.020   9.547 -0.6197  2.2564 -2.3860
  109OSM   C10F11293   6.540   4.003   9.343 -0.2935  0.4105  0.1999
  109OSM   H10F11294   6.572   4.107   9.334  1.0907  0.2686  2.9046
  109OSM   C11F11295   6.592   3.910   9.231 -0.2669 -0.0106 -0.3000
  109OSM   H11F11296   6.599   3.957   9.131  0.1155 -4.2176 -2.3418
  109OSM   H11G11297   6.528   3.819   9.221 -0.5168  0.2266 -0.8922
  109OSM   C12F11298   6.740   3.862   9.253 -0.6717  0.0834  0.1340
  109OSM   H12F11299   6.762   3.762   9.211  0.6189  0.7657 -0.8449
  109OSM   H12G11300   6.755   3.837   9.360 -1.2171  0.5561  0.3232
  109OSM   C13F11301   6.860   3.946   9.207  0.2313 -0.3166  0.1354
  109OSM   H13F11302   6.956   3.899   9.236  0.6525 -0.8986 -2.1002
  109OSM   H13G11303   6.853   4.042   9.263 -0.5246 -0.8282  0.9340
  109OSM   C14F11304   6.871   3.970   9.061  0.6392 -0.3833  0.0073
  109OSM   H14F11305   6.777   4.002   9.012  2.4875  1.4581 -2.4882
  109OSM   H14G11306   6.896   3.877   9.005 -1.6742 -0.5577 -0.8005
  109OSM   C15F11307   6.970   4.081   9.033  0.0181  0.3265  0.1364
  109OSM   H15F11308   7.065   4.037   9.069  0.0320 -0.6832 -1.1068
  109OSM   H15G11309   6.966   4.170   9.099 -0.5075 -1.3157  2.3796
  109OSM   C16F11310   6.989   4.127   8.879 -0.2283  0.2585 -0.9518
  109OSM   H16F11311   6.904   4.193   8.852  0.4271  0.0358 -3.7054
  109OSM   H16G11312   6.994   4.038   8.811  3.0095 -0.2621 -0.1485
  109OSM   C17F11313   7.122   4.197   8.861 -0.3745  0.7688 -0.1754
  109OSM   H17F11314   7.150   4.271   8.939  0.5238 -0.5020  0.7308
  109OSM   H17G11315   7.116   4.263   8.773 -0.9733  0.2865 -0.4995
  109OSM   C18F11316   7.237   4.103   8.839  0.7742  0.4151 -0.8365
  109OSM   H18F11317   7.337   4.151   8.845  0.8149  0.3631 -1.1327
  109OSM   H18G11318   7.231   4.050   8.742 -1.2381 -0.8704 -0.0568
  109OSM   H18H11319   7.229   4.035   8.927 -2.9583  0.1505 -1.2782
  110OSM      N11320   1.215   3.147  10.815  0.0808  0.2829 -0.2322
  110OSM    C1511321   1.341   3.108  10.748 -0.2357  0.3240 -0.0606
  110OSM   H15A11322   1.428   3.150  10.796  1.4660 -2.5743 -0.4545
  110OSM   H15B11323   1.344   3.129  10.642 -0.1951  0.8578  0.0459
  110OSM   H15C11324   1.354   3.000  10.751 -3.3737 -0.1619 -1.6134
  110OSM    C1411325   1.230   3.113  10.962  1.0129 -0.2394  0.8318
  110OSM   H14A11326   1.133   3.121  11.010 -0.3607 -2.2604 -1.5329
  110OSM   H14B11327   1.302   3.181  11.005  1.6110  0.0169 -0.5707
  110OSM   H14C11328   1.276   3.017  10.975  0.6726 -0.6635 -1.0378
  110OSM    C1311329   1.192   3.296  10.800  0.1469 -0.4133 -0.3159
  110OSM   H13A11330   1.265   3.356  10.853 -2.0466  0.7984  1.4248
  110OSM   H13B11331   1.095   3.321  10.840  0.4629  0.3685 -0.0240
  110OSM   H13C11332   1.189   3.319  10.694 -3.3752  0.8357 -0.0165
  110OSM    C1211333   1.098   3.079  10.745  0.1243  0.3733 -0.2261
  110OSM   H12A11334   1.116   3.093  10.639 -1.6097  2.3715 -0.2907
  110OSM   H12B11335   1.018   3.141  10.783  0.4496  0.6957 -0.0711
  110OSM    C1111336   1.067   2.933  10.777 -0.0759 -0.2013  0.1201
  110OSM   H11A11337   1.039   2.915  10.883 -0.3423  1.2313  0.3014
  110OSM   H11B11338   1.155   2.866  10.766 -0.0003 -0.2273  0.8900
  110OSM      P11339   0.867   2.780  10.741 -0.3123 -0.2109  0.4453
  110OSM    O1311340   0.942   2.660  10.779 -0.3919  0.6277  0.1536
  110OSM    O1411341   0.776   2.842  10.839  0.0203  0.7566  0.0442
  110OSM    O1111342   0.791   2.745  10.605 -0.1799  0.2076  0.0437
  110OSM    O1211343   0.964   2.895  10.686 -0.2175  0.0541  0.1783
  110OSM    C1S11344   0.686   2.835  10.570 -0.1462  0.5837  0.0372
  110OSM    H1S11345   0.730   2.937  10.572 -1.7178  1.2842 -0.3782
  110OSM    H1T11346   0.600   2.832  10.640  0.2129 -1.0180  0.4226
  110OSM     NF11347   0.579   2.932  10.382  0.1475 -1.0511 -0.2518
  110OSM    HNF11348   0.480   2.932  10.379  0.0506 -2.1840  1.8500
  110OSM    C2S11349   0.651   2.810  10.422 -0.1531 -0.0367 -0.0793
  110OSM    H2S11350   0.752   2.811  10.376 -0.2707  0.8429 -0.3257
  110OSM    C3S11351   0.572   2.679  10.406  0.4059  0.0250  0.2624
  110OSM    H3S11352   0.473   2.699  10.452 -0.0336 -0.8702 -0.2989
  110OSM     O311353   0.618   2.565  10.475  0.3517 -0.1932  0.0883
  110OSM    HO311354   0.691   2.598  10.528 -2.1438  2.4284  2.0499
  110OSM    C4S11355   0.560   2.657  10.260  0.5942  0.8711 -0.0179
  110OSM    H4S11356   0.472   2.704  10.214  0.2464 -0.2207 -0.4794
  110OSM    C5S11357   0.649   2.589  10.185 -0.2121 -0.0678  0.2856
  110OSM    H5S11358   0.736   2.544  10.235  0.4439  1.0495  0.1582
  110OSM    C6S11359   0.643   2.586  10.034 -0.9236  0.1537  0.0893
  110OSM    H6S11360   0.654   2.479  10.004 -1.4022 -0.7171  2.8637
  110OSM    H6T11361   0.733   2.633   9.989 -1.1429  0.7673  0.2885
  110OSM    C7S11362   0.515   2.637   9.970 -0.2723 -0.3121 -0.4889
  110OSM    H7S11363   0.506   2.746   9.985  1.2603 -0.1340 -0.8002
  110OSM    H7T11364   0.424   2.592  10.016  0.0542  0.4020  0.9007
  110OSM    C8S11365   0.496   2.606   9.826  0.1796 -0.2699 -0.2259
  110OSM    H8S11366   0.396   2.644   9.796  1.0965  1.0578 -1.6636
  110OSM    H8T11367   0.503   2.498   9.802  1.1117 -0.3416  0.3382
  110OSM    C9S11368   0.601   2.675   9.739  0.4030 -0.5778  0.5858
  110OSM    H9S11369   0.697   2.633   9.775  0.5600  0.2057  1.1065
  110OSM    H9T11370   0.606   2.782   9.766  2.7532 -0.2799 -0.9113
  110OSM   C10S11371   0.590   2.682   9.593 -0.3573  0.1074  0.4196
  110OSM   H10S11372   0.589   2.578   9.555 -2.6766  0.5293 -0.7988
  110OSM   H10T11373   0.686   2.729   9.563 -1.1801  2.6364  1.5747
  110OSM   C11S11374   0.474   2.768   9.537 -0.2815  0.2416  0.3438
  110OSM   H11S11375   0.451   2.860   9.595  0.6985 -0.5679  2.0746
  110OSM   H11T11376   0.381   2.707   9.539  0.2148 -0.6663 -2.4528
  110OSM   C12S11377   0.466   2.804   9.383 -0.1111  0.1057 -0.0853
  110OSM   H12S11378   0.493   2.713   9.325  1.3866  1.0253 -0.8504
  110OSM   H12T11379   0.547   2.877   9.363  1.8903 -1.7730  0.8888
  110OSM   C13S11380   0.331   2.856   9.328  0.2227  0.5434 -0.1168
  110OSM   H13S11381   0.311   2.962   9.353 -0.4466  0.5021 -0.4593
  110OSM   H13T11382   0.251   2.797   9.378  0.6027  0.4886  0.4258
  110OSM   C14S11383   0.314   2.824   9.184  0.0337 -0.0846  0.0630
  110OSM   H14S11384   0.318   2.715   9.164 -0.7438 -0.3535  1.3543
  110OSM   H14T11385   0.389   2.878   9.121 -0.1702  1.7623  1.3391
  110OSM   C15S11386   0.174   2.867   9.127  0.3855 -0.1769 -0.0135
  110OSM   H15S11387   0.171   2.834   9.021 -2.6440 -1.1098  0.3155
  110OSM   H15T11388   0.175   2.977   9.142 -0.5592 -0.3882  1.7623
  110OSM   C16S11389   0.056   2.815   9.208 -1.1166  0.7143 -0.2619
  110OSM   H16S11390   0.076   2.826   9.317  0.4930  1.0114 -0.5728
  110OSM   H16T11391   0.049   2.706   9.189  1.0774  0.2762  1.2611
  110OSM   C17S11392  -0.080   2.875   9.178  0.2907  0.5241 -0.7224
  110OSM   H17S11393  -0.080   2.978   9.219  0.3815  0.2960 -0.1517
  110OSM   H17T11394  -0.156   2.815   9.231  1.1831 -1.0628 -1.2102
  110OSM   C18S11395  -0.127   2.868   9.031 -0.2056  0.4570  0.1683
  110OSM   H18S11396  -0.235   2.854   9.015 -0.1061 -2.0932  1.4799
  110OSM   H18T11397  -0.065   2.790   8.981 -1.6151 -0.4361 -0.1830
  110OSM   H18U11398  -0.095   2.960   8.977 -0.4855  0.1437 -0.5319
  110OSM    C1F11399   0.634   3.051  10.354 -0.0632 -0.0017 -0.4616
  110OSM     OF11400   0.754   3.058  10.342  0.3098 -0.1986  0.2518
  110OSM    C2F11401   0.538   3.165  10.339  0.0450  0.6713  0.1840
  110OSM    H2F11402   0.592   3.247  10.285  1.3877 -0.9381 -0.9578
  110OSM    H2G11403   0.505   3.201  10.438  1.2126 -2.4825  1.7917
  110OSM    C3F11404   0.422   3.131  10.238 -0.6991 -0.5300 -0.1248
  110OSM    H3F11405   0.369   3.227  10.221 -1.0539 -0.6325  0.3974
  110OSM    H3G11406   0.343   3.069  10.286 -0.5022  1.8544  3.4562
  110OSM    C4F11407   0.440   3.057  10.110  0.3834 -0.2897  0.2428
  110OSM    H4F11408   0.494   2.961  10.123 -0.8254 -0.9481  0.4891
  110OSM    H4G11409   0.498   3.115  10.035  3.1698 -1.6127  1.2773
  110OSM    C5F11410   0.303   3.012  10.048  0.2489 -0.1283 -0.0166
  110OSM    H5F11411   0.237   3.097  10.019 -2.0831 -1.8028  0.2187
  110OSM    H5G11412   0.241   2.952  10.118 -1.3259  1.5823  0.1230
  110OSM    C6F11413   0.313   2.946   9.912 -0.3251  0.3171  0.0644
  110OSM    H6F11414   0.388   2.865   9.902  2.1348  2.6317 -0.6648
  110OSM    H6G11415   0.353   3.026   9.848  0.0594  1.3692  1.5905
  110OSM    C7F11416   0.173   2.910   9.851  0.0345  0.8973 -0.2333
  110OSM    H7F11417   0.119   3.008   9.853 -2.2703 -0.3433  2.6391
  110OSM    H7G11418   0.107   2.835   9.899 -2.6564  2.9958 -0.4717
  110OSM    C8F11419   0.182   2.869   9.701  0.6248  0.3765 -0.9644
  110OSM    H8F11420   0.253   2.783   9.702  1.3757  1.0011  0.9362
  110OSM    H8G11421   0.251   2.944   9.655  2.3528 -1.2724 -1.1294
  110OSM    C9F11422   0.054   2.851   9.628 -0.1801 -0.2587  0.3996
  110OSM    H9F11423  -0.012   2.936   9.605  0.2258  0.1608  0.7613
  110OSM   C10F11424   0.001   2.737   9.587  0.2870 -0.4267  0.2346
  110OSM   H10F11425  -0.097   2.745   9.538 -0.1862 -2.6877  0.7490
  110OSM   C11F11426   0.057   2.595   9.605 -0.3681 -0.7924  0.0253
  110OSM   H11F11427  -0.005   2.532   9.671 -0.2429  0.3279  1.2351
  110OSM   H11G11428   0.153   2.608   9.659  1.3947  1.5862 -3.4548
  110OSM   C12F11429   0.079   2.516   9.470  0.5435  0.9044 -0.3483
  110OSM   H12F11430   0.109   2.414   9.501 -0.1679  0.0122 -2.5082
  110OSM   H12G11431   0.167   2.560   9.419 -1.3147  2.9501 -1.8758
  110OSM   C13F11432  -0.035   2.505   9.373 -0.6602 -0.0186 -0.1745
  110OSM   H13F11433  -0.085   2.605   9.378  0.7319  0.6691  0.2748
  110OSM   H13G11434  -0.106   2.429   9.411 -0.2274  0.5039  1.7225
  110OSM   C14F11435   0.001   2.459   9.231  0.1244  0.1359 -0.0028
  110OSM   H14F11436   0.046   2.358   9.235  0.1176  0.1976  2.3147
  110OSM   H14G11437   0.071   2.517   9.168 -1.4499 -0.1865 -2.0858
  110OSM   C15F11438  -0.130   2.453   9.153 -0.5207 -0.3401  0.1621
  110OSM   H15F11439  -0.182   2.550   9.137 -1.0162 -0.3143  1.8723
  110OSM   H15G11440  -0.199   2.385   9.207 -1.3330  0.2610 -0.1011
  110OSM   C16F11441  -0.117   2.413   9.003 -0.2141 -0.5176 -0.5470
  110OSM   H16F11442  -0.089   2.307   9.020  2.7410  0.2567 -0.1946
  110OSM   H16G11443  -0.032   2.458   8.947  0.1721 -2.8118 -1.8614
  110OSM   C17F11444  -0.240   2.422   8.920 -0.0975 -0.3214  0.2530
  110OSM   H17F11445  -0.326   2.405   8.989  0.6099 -0.7715  1.0360
  110OSM   H17G11446  -0.247   2.332   8.855 -0.0824 -1.2794  1.5394
  110OSM   C18F11447  -0.249   2.547   8.835  0.0114  0.1668  0.0648
  110OSM   H18F11448  -0.212   2.641   8.883  0.4257  0.6768 -1.2215
  110OSM   H18G11449  -0.356   2.566   8.813  0.1931  1.4227  0.2127
  110OSM   H18H11450  -0.204   2.528   8.735 -3.4021 -1.4594 -1.2292
  111OSM      N11451   1.252   6.542  11.131 -0.3629 -0.5513  0.2569
  111OSM    C1511452   1.381   6.490  11.197  0.4289 -0.2099 -0.3311
  111OSM   H15A11453   1.455   6.568  11.208 -0.7950  1.2833 -2.4050
  111OSM   H15B11454   1.428   6.425  11.124 -1.0375  1.2503 -2.6296
  111OSM   H15C11455   1.360   6.433  11.286  0.6042  0.0449 -0.1258
  111OSM    C1411456   1.151   6.436  11.121 -0.4127  0.5748  0.0490
  111OSM   H14A11457   1.182   6.366  11.045  1.3584  2.7032 -1.2478
  111OSM   H14B11458   1.058   6.480  11.087 -0.5893  1.8774  2.1263
  111OSM   H14C11459   1.134   6.385  11.215  1.4715  0.7739  0.5158
  111OSM    C1311460   1.200   6.653  11.220 -0.5119 -0.5268 -0.3532
  111OSM   H13A11461   1.195   6.624  11.324 -2.4627  0.7922 -0.0458
  111OSM   H13B11462   1.097   6.669  11.192 -0.7552 -0.1496  0.7209
  111OSM   H13C11463   1.265   6.739  11.212 -0.0020 -1.0103 -1.3775
  111OSM    C1211464   1.270   6.598  10.986  0.3029 -0.2144 -0.3052
  111OSM   H12A11465   1.350   6.671  10.990  0.8406 -0.7561 -1.0985
  111OSM   H12B11466   1.178   6.641  10.949 -0.4423 -1.4761  0.0600
  111OSM    C1111467   1.316   6.505  10.872 -0.5693  0.1182  0.5956
  111OSM   H11A11468   1.319   6.560  10.775 -0.4864  0.6857  0.9144
  111OSM   H11B11469   1.242   6.424  10.854 -0.0717 -0.0668 -0.6538
  111OSM      P11470   1.566   6.513  10.900  0.3850  0.1802  0.0357
  111OSM    O1311471   1.542   6.631  10.984  0.6703 -0.0422  0.2187
  111OSM    O1411472   1.674   6.424  10.948  0.9205  0.0410 -0.3889
  111OSM    O1111473   1.589   6.566  10.751 -0.6974  0.0836 -0.7220
  111OSM    O1211474   1.438   6.433  10.887  0.0227  0.4347 -0.1717
  111OSM    C1S11475   1.647   6.480  10.652 -0.3506 -0.1104 -0.0241
  111OSM    H1S11476   1.644   6.372  10.678 -2.1608  0.3483  1.8294
  111OSM    H1T11477   1.750   6.501  10.617 -0.4259  1.4076  0.6514
  111OSM     NF11478   1.606   6.380  10.429 -0.0906  0.1454 -0.0479
  111OSM    HNF11479   1.676   6.397  10.360  0.7593  2.0050  1.2479
  111OSM    C2S11480   1.567   6.486  10.517 -0.2253  0.0100  0.4004
  111OSM    H2S11481   1.459   6.465  10.530 -0.8408  2.9607  0.2492
  111OSM    C3S11482   1.576   6.630  10.467 -0.1453  0.4264 -0.7328
  111OSM    H3S11483   1.683   6.655  10.455  0.2963 -0.8655  0.4565
  111OSM     O311484   1.509   6.710  10.557  0.3254 -0.0188  0.1571
  111OSM    HO311485   1.549   6.674  10.637  0.4700 -1.9846 -0.7606
  111OSM    C4S11486   1.507   6.639  10.338  0.0149 -0.7074  0.1665
  111OSM    H4S11487   1.399   6.660  10.345 -0.4477 -2.3259 -1.7057
  111OSM    C5S11488   1.572   6.659  10.217  0.3187 -0.0375 -0.3965
  111OSM    H5S11489   1.681   6.655  10.219  0.3155 -0.3310 -0.7965
  111OSM    C6S11490   1.513   6.704  10.086 -0.7326 -0.9634  0.2036
  111OSM    H6S11491   1.582   6.785  10.053 -0.5694 -1.4728 -0.7270
  111OSM    H6T11492   1.411   6.749  10.082 -0.7361 -0.9535  0.4111
  111OSM    C7S11493   1.519   6.599   9.977 -0.2176 -0.8258 -0.2169
  111OSM    H7S11494   1.461   6.511  10.011  1.0996 -1.3974  0.5847
  111OSM    H7T11495   1.626   6.587   9.950 -0.1850  0.6809 -0.8415
  111OSM    C8S11496   1.448   6.650   9.845  0.1248  0.6258  0.0699
  111OSM    H8S11497   1.459   6.760   9.831 -1.2223  0.7458 -0.1730
  111OSM    H8T11498   1.339   6.627   9.852  0.6045 -1.3765  1.1783
  111OSM    C9S11499   1.502   6.578   9.723 -0.1233 -0.1646 -0.3056
  111OSM    H9S11500   1.509   6.468   9.735 -1.2813 -0.0793  1.2963
  111OSM    H9T11501   1.603   6.614   9.693  0.2874 -2.6150 -1.9860
  111OSM   C10S11502   1.406   6.613   9.606  0.5474 -0.5287  0.5702
  111OSM   H10S11503   1.401   6.721   9.582 -0.2568 -0.4208  1.1830
  111OSM   H10T11504   1.306   6.567   9.622  1.2901 -2.5932 -0.4592
  111OSM   C11S11505   1.465   6.559   9.472  0.7035 -0.1956  0.1631
  111OSM   H11S11506   1.479   6.449   9.482  0.3484 -0.4388 -1.8891
  111OSM   H11T11507   1.565   6.602   9.451  0.5089 -0.5920 -1.6403
  111OSM   C12S11508   1.361   6.570   9.368 -0.3943  0.0630 -0.2732
  111OSM   H12S11509   1.329   6.676   9.365 -2.8959 -0.6720 -0.1491
  111OSM   H12T11510   1.274   6.512   9.406  1.9930 -3.5723 -0.0626
  111OSM   C13S11511   1.417   6.535   9.230 -0.5546  0.5363  0.7867
  111OSM   H13S11512   1.432   6.425   9.228  0.9172  0.6950  2.1216
  111OSM   H13T11513   1.502   6.602   9.202 -0.6567 -0.5290 -2.2422
  111OSM   C14S11514   1.315   6.574   9.124 -0.6382  0.4467  0.0645
  111OSM   H14S11515   1.357   6.557   9.022  0.7270 -1.0854  0.8684
  111OSM   H14T11516   1.270   6.676   9.130 -1.1891  0.3900 -2.3804
  111OSM   C15S11517   1.196   6.481   9.118  0.7250 -0.2775  0.1055
  111OSM   H15S11518   1.147   6.478   9.217  0.3374  2.6666  0.0535
  111OSM   H15T11519   1.235   6.380   9.094  0.8306 -0.2277  0.0659
  111OSM   C16S11520   1.082   6.524   9.021 -0.3926 -0.6000 -0.8106
  111OSM   H16S11521   1.057   6.627   9.055 -0.9083 -1.1100  0.3979
  111OSM   H16T11522   0.995   6.455   9.030 -1.0622  0.3250 -0.0037
  111OSM   C17S11523   1.130   6.550   8.881  0.1997  0.5283 -0.2905
  111OSM   H17S11524   1.148   6.452   8.831 -0.1424 -0.4020  1.3725
  111OSM   H17T11525   1.225   6.607   8.876  0.8216 -0.6338 -2.0453
  111OSM   C18S11526   1.043   6.639   8.789 -0.5932  0.4248  0.7616
  111OSM   H18S11527   1.055   6.743   8.826 -0.8239  0.5821  0.4069
  111OSM   H18T11528   0.935   6.612   8.797 -1.3531  3.2842  0.7061
  111OSM   H18U11529   1.077   6.632   8.683 -3.7842 -0.3894 -0.2761
  111OSM    C1F11530   1.573   6.248  10.441 -0.4149 -0.0735  1.0926
  111OSM     OF11531   1.491   6.223  10.526 -0.2448 -0.0166 -0.3094
  111OSM    C2F11532   1.640   6.152  10.346  0.0040  0.4139  0.1018
  111OSM    H2F11533   1.598   6.051  10.363  1.3952 -0.0559  0.8287
  111OSM    H2G11534   1.749   6.143  10.366  0.0933 -0.0343 -0.5673
  111OSM    C3F11535   1.630   6.193  10.196  0.2720  0.1837 -0.2904
  111OSM    H3F11536   1.683   6.106  10.153 -2.5053 -1.1885 -1.0128
  111OSM    H3G11537   1.680   6.290  10.176 -0.5895  1.1888  2.2856
  111OSM    C4F11538   1.480   6.201  10.150 -0.5233  0.1331 -0.1364
  111OSM    H4F11539   1.447   6.296  10.197 -1.5712 -0.2002 -0.1823
  111OSM    H4G11540   1.416   6.123  10.196  0.8188 -1.6414 -1.2168
  111OSM    C5F11541   1.478   6.196   9.996  1.0188  0.2070 -0.1893
  111OSM    H5F11542   1.548   6.116   9.964  0.7553 -0.7373  1.5491
  111OSM    H5G11543   1.525   6.292   9.967  0.0243  1.3195  1.7294
  111OSM    C6F11544   1.342   6.176   9.931  0.4864  0.1170 -0.2980
  111OSM    H6F11545   1.259   6.221   9.989  0.2505 -0.3963 -0.2349
  111OSM    H6G11546   1.321   6.068   9.917 -1.9176  0.4881  0.1628
  111OSM    C7F11547   1.341   6.239   9.787  0.3941  0.0139  0.1567
  111OSM    H7F11548   1.426   6.199   9.728  0.8582 -1.4934  1.7874
  111OSM    H7G11549   1.345   6.349   9.797 -1.4223  0.0755  0.3748
  111OSM    C8F11550   1.215   6.212   9.717  0.4843  1.2711 -0.3253
  111OSM    H8F11551   1.122   6.238   9.771 -0.2197 -0.7261 -0.5290
  111OSM    H8G11552   1.211   6.102   9.706  2.8936  0.7389  3.4332
  111OSM    C9F11553   1.212   6.269   9.573 -0.0772  0.4994  0.5662
  111OSM    H9F11554   1.171   6.371   9.563 -0.5471  0.1660 -0.9494
  111OSM   C10F11555   1.272   6.211   9.466 -0.0346 -0.1465 -0.0770
  111OSM   H10F11556   1.258   6.258   9.368 -0.1968  0.9640  0.4722
  111OSM   C11F11557   1.349   6.086   9.462  0.4312  0.4398 -0.6138
  111OSM   H11F11558   1.285   5.996   9.453 -0.1010  0.5468  1.6758
  111OSM   H11G11559   1.401   6.060   9.557 -1.8556 -2.1428  0.0028
  111OSM   C12F11560   1.465   6.116   9.370 -0.7374 -0.2251  0.1346
  111OSM   H12F11561   1.542   6.037   9.382  1.4444  2.1236  2.1544
  111OSM   H12G11562   1.521   6.210   9.392  1.5245 -1.7581  1.1146
  111OSM   C13F11563   1.424   6.106   9.220 -0.8947  0.4954 -0.5785
  111OSM   H13F11564   1.361   6.195   9.200 -2.5952  0.0585  2.5468
  111OSM   H13G11565   1.382   6.005   9.199  1.8322 -0.3464 -2.3384
  111OSM   C14F11566   1.549   6.108   9.121  0.1409 -0.2708  0.5344
  111OSM   H14F11567   1.623   6.033   9.157  2.3868  2.2011  1.2618
  111OSM   H14G11568   1.591   6.211   9.123 -1.2948  0.3199  0.6252
  111OSM   C15F11569   1.509   6.096   8.971  1.0584 -0.1467  0.1606
  111OSM   H15F11570   1.447   6.184   8.943  0.8823 -0.7018 -1.2550
  111OSM   H15G11571   1.441   6.010   8.955  0.0246  0.5080  0.9725
  111OSM   C16F11572   1.630   6.097   8.873  0.4313 -0.3822  0.0861
  111OSM   H16F11573   1.715   6.039   8.917  0.5064  0.4504  1.0705
  111OSM   H16G11574   1.652   6.205   8.889 -0.7196 -0.3236  1.3756
  111OSM   C17F11575   1.592   6.057   8.731  0.0429 -0.2060  0.5733
  111OSM   H17F11576   1.587   5.948   8.711  1.7584  0.0218 -1.2553
  111OSM   H17G11577   1.672   6.098   8.666 -1.9767  0.2350 -1.7365
  111OSM   C18F11578   1.461   6.120   8.678 -0.2407 -0.1630 -0.6738
  111OSM   H18F11579   1.462   6.231   8.691 -1.5962 -0.2026 -0.1248
  111OSM   H18G11580   1.370   6.080   8.728 -0.3537  3.4950  2.3069
  111OSM   H18H11581   1.461   6.089   8.572  0.2571 -0.9616 -0.4405
  112OSM      N11582   2.432   3.795  11.218  0.3276  0.0048  0.0138
  112OSM    C1511583   2.569   3.765  11.160 -0.0262 -0.3169 -0.3519
  112OSM   H15A11584   2.623   3.740  11.251 -1.7764 -1.7305  0.3192
  112OSM   H15B11585   2.605   3.858  11.118  0.7234 -0.7003 -0.5665
  112OSM   H15C11586   2.556   3.684  11.090 -0.7650 -2.3656  2.0921
  112OSM    C1411587   2.397   3.699  11.330 -0.1592  0.0432 -0.1194
  112OSM   H14A11588   2.474   3.687  11.405 -0.7532  0.9061  0.6344
  112OSM   H14B11589   2.370   3.601  11.295 -0.6366 -0.0995  0.6476
  112OSM   H14C11590   2.312   3.726  11.390 -0.0183  1.5726 -0.5764
  112OSM    C1311591   2.442   3.943  11.278 -0.0297  0.1281  0.3283
  112OSM   H13A11592   2.477   4.017  11.208  2.3390  0.2599  1.6151
  112OSM   H13B11593   2.504   3.942  11.366 -2.6011 -0.5642  2.1914
  112OSM   H13C11594   2.343   3.977  11.305  0.5762  1.7486  0.5680
  112OSM    C1211595   2.334   3.792  11.104  0.5840  0.1647  0.6647
  112OSM   H12A11596   2.341   3.697  11.054  1.6310  0.3227  0.4998
  112OSM   H12B11597   2.376   3.866  11.037  1.1562 -0.0452  0.7860
  112OSM    C1111598   2.183   3.823  11.133 -0.3967  0.1742 -0.3499
  112OSM   H11A11599   2.158   3.763  11.223  0.3170  1.4510  0.7123
  112OSM   H11B11600   2.119   3.797  11.045 -0.3269  1.4109 -0.7711
  112OSM      P11601   2.162   4.085  11.063  0.1922 -0.0122 -0.0982
  112OSM    O1311602   2.101   4.198  11.135  0.1485 -0.3416  0.2654
  112OSM    O1411603   2.300   4.103  11.019 -0.4556 -0.6379 -0.2769
  112OSM    O1111604   2.073   4.031  10.948  0.4045 -0.3779 -0.0282
  112OSM    O1211605   2.164   3.965  11.166  0.2052  0.2213 -0.0425
  112OSM    C1S11606   2.083   4.075  10.816 -0.2601 -0.2781  0.4535
  112OSM    H1S11607   2.155   4.158  10.802  0.5919 -1.1572 -0.4280
  112OSM    H1T11608   1.983   4.118  10.794  0.2583  1.4527  1.3252
  112OSM     NF11609   2.158   4.008  10.582  0.0754  0.1244  0.7400
  112OSM    HNF11610   2.089   4.029  10.513  1.0949 -1.2551 -0.7246
  112OSM    C2S11611   2.109   3.961  10.711 -0.2513  0.3421  0.2395
  112OSM    H2S11612   2.191   3.908  10.762 -0.3086 -0.9916 -1.0326
  112OSM    C3S11613   1.987   3.862  10.697  0.6247  0.1577  0.0807
  112OSM    H3S11614   1.896   3.913  10.659 -0.5593 -0.3661  2.1237
  112OSM     O311615   1.938   3.807  10.825  0.2440 -0.3221 -0.2197
  112OSM    HO311616   1.998   3.842  10.890  2.2520 -1.1964 -1.5521
  112OSM    C4S11617   2.025   3.743  10.614  0.3312  0.1264 -0.1668
  112OSM    H4S11618   2.070   3.661  10.671 -2.1208 -0.8855  0.3705
  112OSM    C5S11619   1.984   3.722  10.483  0.5291  0.1669 -1.1627
  112OSM    H5S11620   1.931   3.804  10.432  1.1411  2.1655  1.3237
  112OSM    C6S11621   2.005   3.613  10.381  0.1065  0.0162  0.2174
  112OSM    H6S11622   1.910   3.559  10.364  0.5996 -0.6958 -0.2952
  112OSM    H6T11623   2.082   3.546  10.425  0.4487  0.7713  0.7807
  112OSM    C7S11624   2.073   3.670  10.256 -0.7221  1.2854  0.2818
  112OSM    H7S11625   2.158   3.739  10.273  0.0964  0.6315 -1.1247
  112OSM    H7T11626   1.998   3.733  10.205  1.6830  3.4318 -0.6777
  112OSM    C8S11627   2.121   3.560  10.150  0.0326 -0.5468 -0.1568
  112OSM    H8S11628   2.029   3.511  10.113 -1.1679  2.4519 -1.2831
  112OSM    H8T11629   2.181   3.488  10.210 -0.5696 -1.5995 -0.8103
  112OSM    C9S11630   2.193   3.610  10.024 -0.5892 -0.1412  0.7533
  112OSM    H9S11631   2.291   3.657  10.046 -0.2829  0.6631 -2.2351
  112OSM    H9T11632   2.132   3.693   9.984  2.0488  1.7618  0.5666
  112OSM   C10S11633   2.213   3.500   9.926  0.3010 -0.3626  0.2142
  112OSM   H10S11634   2.119   3.444   9.908  0.5827 -0.7087 -0.1915
  112OSM   H10T11635   2.286   3.423   9.958  0.5062 -1.1759 -2.0847
  112OSM   C11S11636   2.260   3.557   9.783  0.4425  0.2675 -0.3626
  112OSM   H11S11637   2.340   3.626   9.817  0.2094 -0.6152  2.0807
  112OSM   H11T11638   2.173   3.609   9.737  0.4878 -1.0337 -1.9961
  112OSM   C12S11639   2.310   3.438   9.698  0.0933 -0.1723 -0.4598
  112OSM   H12S11640   2.239   3.352   9.690  0.0886 -0.0016 -2.4846
  112OSM   H12T11641   2.399   3.397   9.750 -1.0094 -1.0967  0.7619
  112OSM   C13S11642   2.350   3.452   9.547  0.1215 -0.3616 -0.1852
  112OSM   H13S11643   2.426   3.532   9.540  1.7186 -1.7487  0.9492
  112OSM   H13T11644   2.270   3.487   9.478  0.6743  0.7123 -0.2875
  112OSM   C14S11645   2.405   3.321   9.488 -0.5365  0.4011 -0.4772
  112OSM   H14S11646   2.325   3.245   9.480  0.1879 -0.5656  1.3057
  112OSM   H14T11647   2.472   3.285   9.569  0.5375 -1.3269 -2.0744
  112OSM   C15S11648   2.483   3.345   9.357 -0.1182  1.0746  0.4979
  112OSM   H15S11649   2.538   3.249   9.349 -0.3575  0.8036  2.0882
  112OSM   H15T11650   2.563   3.422   9.366 -0.2698  1.3603 -0.4901
  112OSM   C16S11651   2.392   3.377   9.240 -0.0690  0.5421  0.1514
  112OSM   H16S11652   2.370   3.486   9.237 -0.9312  0.3513 -1.2400
  112OSM   H16T11653   2.294   3.325   9.252 -1.0107  1.5393 -2.8143
  112OSM   C17S11654   2.443   3.337   9.100  0.5733  0.0770  0.1202
  112OSM   H17S11655   2.554   3.328   9.105  0.4057 -2.7125 -0.0722
  112OSM   H17T11656   2.415   3.422   9.034  0.5540  0.7408  0.9769
  112OSM   C18S11657   2.384   3.209   9.048 -0.0270  0.1136 -0.1851
  112OSM   H18S11658   2.421   3.122   9.105  0.8963  0.7835  0.2528
  112OSM   H18T11659   2.402   3.195   8.939 -3.4880 -0.8223 -0.7142
  112OSM   H18U11660   2.275   3.204   9.071  0.0294 -2.0664 -0.3454
  112OSM    C1F11661   2.281   4.055  10.566 -0.0766  0.3416 -0.3629
  112OSM     OF11662   2.368   4.059  10.656 -0.3611  1.1600  0.1797
  112OSM    C2F11663   2.300   4.106  10.425 -0.3024 -0.8498 -1.2239
  112OSM    H2F11664   2.358   4.200  10.440 -0.2953 -1.2235  1.4752
  112OSM    H2G11665   2.197   4.131  10.392 -0.1450 -0.3906 -1.3668
  112OSM    C3F11666   2.379   4.020  10.332 -0.4348 -0.3718 -0.4226
  112OSM    H3F11667   2.340   3.916  10.326  0.5307 -0.7696  0.0509
  112OSM    H3G11668   2.477   4.022  10.382  0.0679  1.0258 -1.4116
  112OSM    C4F11669   2.400   4.076  10.189  0.4384  1.1355 -0.7875
  112OSM    H4F11670   2.468   4.164  10.196  0.8805  0.7841 -0.6234
  112OSM    H4G11671   2.305   4.105  10.138  0.5849  1.3227 -0.9556
  112OSM    C5F11672   2.464   3.963  10.100 -0.0911 -0.2501 -0.4170
  112OSM    H5F11673   2.393   3.880  10.079  0.4176 -0.5158 -1.1104
  112OSM    H5G11674   2.544   3.918  10.163  0.6982  0.2942 -1.0179
  112OSM    C6F11675   2.512   4.013   9.967 -0.1371  0.4037  0.0692
  112OSM    H6F11676   2.611   4.063   9.982 -0.0241  0.3597 -0.5435
  112OSM    H6G11677   2.459   4.093   9.912  0.3580 -1.3669 -3.1008
  112OSM    C7F11678   2.548   3.897   9.866 -0.4581 -1.5399  0.6275
  112OSM    H7F11679   2.456   3.850   9.822 -0.7519  2.0276 -2.8160
  112OSM    H7G11680   2.615   3.821   9.911  1.2375 -0.0341  0.6972
  112OSM    C8F11681   2.611   3.942   9.736 -0.0578 -0.3543 -0.6129
  112OSM    H8F11682   2.714   3.981   9.754 -0.0403  0.2802 -1.9901
  112OSM    H8G11683   2.560   4.026   9.684  0.9175  0.0369 -0.9483
  112OSM    C9F11684   2.614   3.835   9.633 -0.6806  0.7283  0.2143
  112OSM    H9F11685   2.692   3.761   9.654 -0.8922  0.3305 -0.3870
  112OSM   C10F11686   2.540   3.816   9.527 -0.0675  0.3221 -0.3826
  112OSM   H10F11687   2.558   3.732   9.458 -3.1947 -1.4624  0.8491
  112OSM   C11F11688   2.427   3.901   9.474  0.6461 -0.3211 -0.2442
  112OSM   H11F11689   2.410   3.892   9.364 -3.0578 -0.3611  0.2490
  112OSM   H11G11690   2.449   4.006   9.501  0.6697  0.1573 -2.0622
  112OSM   C12F11691   2.290   3.870   9.546  0.3125  0.3508  0.7948
  112OSM   H12F11692   2.294   3.882   9.657  3.1054  4.1516  0.4120
  112OSM   H12G11693   2.253   3.768   9.523 -1.0305  0.6765  1.4978
  112OSM   C13F11694   2.176   3.962   9.502  0.2787  0.1548 -0.2521
  112OSM   H13F11695   2.146   3.947   9.396  0.3893  2.1094 -0.5808
  112OSM   H13G11696   2.211   4.068   9.499  2.6860 -0.6279 -0.2859
  112OSM   C14F11697   2.044   3.960   9.581 -0.8170 -1.2716  1.0629
  112OSM   H14F11698   2.008   3.855   9.583  0.6916 -1.8252 -0.4628
  112OSM   H14G11699   1.968   4.023   9.530 -1.4918 -3.2007 -0.3641
  112OSM   C15F11700   2.057   4.011   9.722 -0.4936 -0.1444  0.3504
  112OSM   H15F11701   2.111   4.109   9.729 -0.5448 -0.1475  0.7727
  112OSM   H15G11702   2.127   3.943   9.775  0.5696 -0.9095 -1.9632
  112OSM   C16F11703   1.921   4.011   9.796  0.2667 -0.6660 -0.5916
  112OSM   H16F11704   1.894   3.903   9.797 -2.8161  0.0350 -2.7823
  112OSM   H16G11705   1.835   4.067   9.754 -0.8441 -2.6479 -1.0184
  112OSM   C17F11706   1.927   4.056   9.940 -0.2257  0.4749  0.6469
  112OSM   H17F11707   1.823   4.063   9.980 -0.2192  0.2396  0.7025
  112OSM   H17G11708   1.966   4.160   9.950 -1.7128  1.0876  0.2967
  112OSM   C18F11709   2.014   3.961  10.023  0.0453 -0.3053  0.3029
  112OSM   H18F11710   2.120   3.974   9.995  0.6219 -1.0361  2.0813
  112OSM   H18G11711   1.992   3.854  10.001 -1.6697  0.4483 -1.8680
  112OSM   H18H11712   1.998   3.971  10.132  0.9507 -2.3082  0.6521
  113OSM      N11713   6.246   6.785  10.953 -0.6965 -0.6100 -0.0342
  113OSM    C1511714   6.330   6.700  11.043 -0.0510  0.5148 -1.2788
  113OSM   H15A11715   6.413   6.758  11.080 -0.6516  0.0027  0.9486
  113OSM   H15B11716   6.386   6.633  10.979 -0.8675 -0.1174 -1.3398
  113OSM   H15C11717   6.278   6.641  11.116  1.3626  1.7232  0.7444
  113OSM    C1411718   6.341   6.864  10.864  0.2560 -0.0457  0.2479
  113OSM   H14A11719   6.279   6.918  10.795 -1.8059  0.0006  2.0548
  113OSM   H14B11720   6.406   6.805  10.801  0.2001 -0.2245  0.3553
  113OSM   H14C11721   6.404   6.924  10.928  0.7273 -0.0798 -0.1812
  113OSM    C1311722   6.165   6.695  10.874 -0.4989 -0.2384 -0.8000
  113OSM   H13A11723   6.106   6.748  10.801 -2.5421  0.6029  1.4129
  113OSM   H13B11724   6.092   6.643  10.935  0.2632 -2.2635 -1.5564
  113OSM   H13C11725   6.221   6.614  10.829  0.5380  0.3132 -0.5088
  113OSM    C1211726   6.149   6.867  11.028 -0.7312  0.2687 -0.1825
  113OSM   H12A11727   6.203   6.925  11.102 -3.0461  0.8562  1.0837
  113OSM   H12B11728   6.084   6.798  11.080  1.6050  0.5871  3.3461
  113OSM    C1111729   6.047   6.959  10.958  0.7981 -0.0164  0.3515
  113OSM   H11A11730   6.108   7.023  10.890 -1.6757  1.8606 -0.1885
  113OSM   H11B11731   5.991   7.026  11.027 -0.0094  1.7966 -1.9821
  113OSM      P11732   5.823   6.836  10.919  0.3821  0.2112  0.1197
  113OSM    O1311733   5.794   6.707  10.851  0.0960 -0.2753 -0.3735
  113OSM    O1411734   5.819   6.830  11.072  0.0004  0.5029 -0.0549
  113OSM    O1111735   5.726   6.948  10.875  0.1571 -0.3308 -0.0410
  113OSM    O1211736   5.961   6.888  10.867 -0.2582  0.3487 -0.3603
  113OSM    C1S11737   5.768   7.032  10.771  0.2981 -0.2608  0.4448
  113OSM    H1S11738   5.752   6.980  10.674  2.2947 -0.1559  0.0301
  113OSM    H1T11739   5.873   7.067  10.777 -0.9252  3.6143  0.2295
  113OSM     NF11740   5.726   7.248  10.643  0.8526  0.0400  0.2518
  113OSM    HNF11741   5.794   7.319  10.656 -0.5376  1.2323  1.1672
  113OSM    C2S11742   5.688   7.162  10.763  0.1756  0.3208  0.0831
  113OSM    H2S11743   5.581   7.133  10.757  0.8149 -2.0494 -0.6961
  113OSM    C3S11744   5.702   7.242  10.890 -0.1082  0.4716  0.2105
  113OSM    H3S11745   5.808   7.255  10.920 -1.3689  1.4319  4.5797
  113OSM     O311746   5.653   7.173  11.005 -0.5231 -0.2491 -0.0480
  113OSM    HO311747   5.641   7.086  10.967  0.0836 -0.6191  0.5953
  113OSM    C4S11748   5.625   7.370  10.881  0.4210 -0.1310  0.3639
  113OSM    H4S11749   5.531   7.356  10.826 -0.3296 -0.7016  1.7838
  113OSM    C5S11750   5.667   7.493  10.913 -0.4514 -0.0472  0.1448
  113OSM    H5S11751   5.772   7.503  10.942 -0.1127  0.6219 -1.2491
  113OSM    C6S11752   5.584   7.618  10.909  0.2961 -0.5288  0.7751
  113OSM    H6S11753   5.601   7.694  10.988 -0.5249  1.2101 -0.6839
  113OSM    H6T11754   5.478   7.584  10.906 -0.3143  1.3781 -2.4363
  113OSM    C7S11755   5.584   7.686  10.769  0.1833  0.0094 -0.8171
  113OSM    H7S11756   5.505   7.764  10.776 -0.2122 -0.5297  0.8834
  113OSM    H7T11757   5.562   7.619  10.683 -2.1711 -0.5479  0.1935
  113OSM    C8S11758   5.714   7.752  10.727 -0.0450 -0.6250  0.3143
  113OSM    H8S11759   5.806   7.694  10.747  1.0900  0.3631 -1.8582
  113OSM    H8T11760   5.722   7.839  10.797 -2.1653  0.0505 -0.2375
  113OSM    C9S11761   5.707   7.800  10.580  0.0530  0.3389  0.1140
  113OSM    H9S11762   5.610   7.853  10.572 -0.1366 -0.2444 -1.7912
  113OSM    H9T11763   5.703   7.711  10.513  1.7316 -0.7806  1.4514
  113OSM   C10S11764   5.818   7.888  10.533  1.1307  0.5307  0.3141
  113OSM   H10S11765   5.922   7.868  10.568  0.1321 -1.1529  2.4171
  113OSM   H10T11766   5.792   7.989  10.572 -2.0811 -0.0446 -0.2456
  113OSM   C11S11767   5.835   7.896  10.380  0.8517 -0.1682  0.2881
  113OSM   H11S11768   5.922   7.960  10.358  0.2666  0.0118 -1.5884
  113OSM   H11T11769   5.745   7.934  10.327  1.3239  0.9341  0.2588
  113OSM   C12S11770   5.876   7.761  10.316  0.2029  0.3034 -0.4252
  113OSM   H12S11771   5.797   7.683  10.310 -0.0984  0.5721 -0.0193
  113OSM   H12T11772   5.964   7.722  10.372  0.3000  0.7794 -0.2432
  113OSM   C13S11773   5.922   7.801  10.171  0.8412  0.0902 -0.3978
  113OSM   H13S11774   6.028   7.832  10.175  0.4687  1.3445 -0.2273
  113OSM   H13T11775   5.868   7.887  10.126 -0.1345 -1.8621 -3.1477
  113OSM   C14S11776   5.911   7.705  10.059 -0.1429  0.1445  0.2405
  113OSM   H14S11777   5.802   7.701  10.037  0.0118 -2.6952 -0.2615
  113OSM   H14T11778   5.949   7.608  10.098 -0.5170  0.2539  0.8787
  113OSM   C15S11779   5.984   7.738   9.926 -0.5733  0.1676  0.4024
  113OSM   H15S11780   6.094   7.745   9.939 -0.7501  1.4954  1.2130
  113OSM   H15T11781   5.947   7.838   9.896 -0.1637 -0.1256 -1.1087
  113OSM   C16S11782   5.953   7.633   9.813  0.7377  0.5639 -0.6234
  113OSM   H16S11783   5.845   7.606   9.820  0.6439  0.4232 -2.4135
  113OSM   H16T11784   6.011   7.539   9.823  1.2426  0.6743 -2.4310
  113OSM   C17S11785   5.992   7.673   9.665 -0.1172 -0.4056  0.0545
  113OSM   H17S11786   6.101   7.695   9.659 -0.2893  0.7902  1.0329
  113OSM   H17T11787   5.943   7.765   9.628 -0.6175 -1.1613 -1.1882
  113OSM   C18S11788   5.971   7.562   9.559  1.2096  0.5466 -0.3113
  113OSM   H18S11789   6.000   7.461   9.597 -1.4478 -0.2771 -0.3429
  113OSM   H18T11790   6.021   7.581   9.462  2.1385 -0.8959 -0.1301
  113OSM   H18U11791   5.862   7.557   9.536  1.3827  3.8145 -2.0927
  113OSM    C1F11792   5.704   7.217  10.516  0.2884 -0.4835  0.1896
  113OSM     OF11793   5.623   7.133  10.476  0.4355  0.2869 -0.8772
  113OSM    C2F11794   5.791   7.306  10.426  1.0570  0.6831  0.7433
  113OSM    H2F11795   5.893   7.308  10.470  1.9513 -0.5615 -1.1851
  113OSM    H2G11796   5.748   7.408  10.422 -0.0286  0.2262  0.8166
  113OSM    C3F11797   5.801   7.263  10.272  0.5400  0.5211  0.4713
  113OSM    H3F11798   5.695   7.257  10.238  0.8688  2.1331 -0.9044
  113OSM    H3G11799   5.848   7.163  10.257  0.5239  0.5744  0.0732
  113OSM    C4F11800   5.871   7.367  10.187  0.2862 -0.1692 -0.1099
  113OSM    H4F11801   5.959   7.413  10.237  0.9829 -0.7492 -0.7904
  113OSM    H4G11802   5.795   7.447  10.174  0.8182  0.9577  3.2265
  113OSM    C5F11803   5.922   7.315  10.047 -0.8315 -0.2800 -0.4719
  113OSM    H5F11804   5.979   7.220  10.062  1.4102  0.9488 -1.0210
  113OSM    H5G11805   5.988   7.385   9.992  1.3333 -1.4604  0.5556
  113OSM    C6F11806   5.799   7.292   9.948  0.6732  0.5716  0.3535
  113OSM    H6F11807   5.743   7.387   9.932 -0.5664 -0.0398  0.9176
  113OSM    H6G11808   5.733   7.217   9.996  0.5961  0.2896 -0.1953
  113OSM    C7F11809   5.849   7.248   9.813  0.8406 -0.2734  0.0900
  113OSM    H7F11810   5.896   7.148   9.827  1.0827 -0.4038 -1.4974
  113OSM    H7G11811   5.927   7.321   9.782 -0.0610  0.8125  0.3516
  113OSM    C8F11812   5.735   7.233   9.704 -0.5191 -0.3025 -0.4398
  113OSM    H8F11813   5.699   7.330   9.664  1.7591  1.3666  1.4861
  113OSM    H8G11814   5.646   7.181   9.746 -0.5079  0.4403  0.5081
  113OSM    C9F11815   5.796   7.153   9.594 -0.5133 -0.7369  0.3707
  113OSM    H9F11816   5.848   7.069   9.642  0.9757  1.0464  1.9630
  113OSM   C10F11817   5.789   7.172   9.461 -0.1550  0.8195  0.2500
  113OSM   H10F11818   5.838   7.101   9.393 -1.0140  1.0022 -0.5596
  113OSM   C11F11819   5.707   7.275   9.390  0.0628  0.8008  0.0115
  113OSM   H11F11820   5.760   7.373   9.393  1.2252  0.1467  1.4023
  113OSM   H11G11821   5.607   7.282   9.437  0.0811 -0.6474  0.2660
  113OSM   C12F11822   5.676   7.232   9.247  0.0513 -0.7369  0.1658
  113OSM   H12F11823   5.576   7.268   9.217  0.0060 -0.0375  1.1533
  113OSM   H12G11824   5.664   7.121   9.242  1.7705 -1.1886  4.0139
  113OSM   C13F11825   5.790   7.262   9.146 -0.4328  0.2363 -0.6580
  113OSM   H13F11826   5.887   7.245   9.197 -0.0814 -0.2324 -1.4773
  113OSM   H13G11827   5.791   7.372   9.128 -1.2844  0.4473  0.5390
  113OSM   C14F11828   5.766   7.187   9.014  0.4697 -0.0324  0.2428
  113OSM   H14F11829   5.664   7.213   8.979  0.5149  2.1351  1.6415
  113OSM   H14G11830   5.776   7.077   9.025  0.8801 -0.0788 -0.5695
  113OSM   C15F11831   5.865   7.231   8.909  0.0349 -0.0281  0.5605
  113OSM   H15F11832   5.867   7.160   8.824 -1.0354 -1.5611  1.8006
  113OSM   H15G11833   5.966   7.239   8.953  0.7891  0.7361 -1.2406
  113OSM   C16F11834   5.825   7.372   8.853  0.4067  0.4242  0.2454
  113OSM   H16F11835   5.826   7.450   8.932  0.0385  2.5318 -1.7699
  113OSM   H16G11836   5.721   7.372   8.816  0.5361 -0.2759 -0.1385
  113OSM   C17F11837   5.912   7.417   8.733 -0.6706  0.5140  0.6003
  113OSM   H17F11838   5.903   7.341   8.653  1.3010  2.0373 -1.1376
  113OSM   H17G11839   6.020   7.407   8.756 -0.4536  0.9050 -0.2158
  113OSM   C18F11840   5.881   7.554   8.673 -0.6334 -0.3310 -0.3069
  113OSM   H18F11841   5.787   7.562   8.614 -2.0377 -1.7280  1.6483
  113OSM   H18G11842   5.969   7.586   8.613 -0.6137  0.2655  0.0357
  113OSM   H18H11843   5.879   7.629   8.755 -0.5207 -1.3153  0.6057
  114OSM      N11844   0.574   3.098  11.063  0.2543 -0.2852  0.3887
  114OSM    C1511845   0.535   3.243  11.083 -0.3473 -0.1989  1.1022
  114OSM   H15A11846   0.618   3.308  11.110 -1.9793  2.4001  0.0568
  114OSM   H15B11847   0.466   3.249  11.166 -0.9490 -0.7376  0.6385
  114OSM   H15C11848   0.493   3.292  10.996  4.7635  1.2051 -0.7903
  114OSM    C1411849   0.610   3.042  11.196  0.1687 -0.3198  0.3403
  114OSM   H14A11850   0.529   3.071  11.261 -0.3345 -0.5500 -0.1787
  114OSM   H14B11851   0.684   3.100  11.250 -1.2777  2.2094 -0.3310
  114OSM   H14C11852   0.623   2.934  11.190  0.9774 -0.1310 -1.8055
  114OSM    C1311853   0.453   3.026  11.022 -0.4423  0.4357  0.3700
  114OSM   H13A11854   0.425   3.063  10.925 -0.1286  0.8537  0.4362
  114OSM   H13B11855   0.373   3.036  11.094  1.0465  0.8234  2.0076
  114OSM   H13C11856   0.481   2.922  11.021 -2.5589 -0.1605 -0.2854
  114OSM    C1211857   0.686   3.093  10.964  0.6476 -0.4766  0.1292
  114OSM   H12A11858   0.727   2.994  10.955 -1.5575 -1.2803 -1.6111
  114OSM   H12B11859   0.756   3.165  11.002 -0.9313 -0.8369  3.9751
  114OSM    C1111860   0.656   3.140  10.816  0.3984 -0.5873  0.0573
  114OSM   H11A11861   0.557   3.106  10.779  2.1595 -2.9460 -2.6933
  114OSM   H11B11862   0.729   3.077  10.760 -0.6649 -0.2098 -1.7942
  114OSM      P11863   0.776   3.375  10.842 -0.0649 -0.0828  0.4369
  114OSM    O1311864   0.729   3.467  10.946  0.2832 -0.0929  0.1458
  114OSM    O1411865   0.887   3.284  10.876  0.0593 -0.2813  0.7154
  114OSM    O1111866   0.810   3.458  10.715  0.4540 -0.1370 -1.2694
  114OSM    O1211867   0.658   3.283  10.785  0.7934 -0.1316  0.7964
  114OSM    C1S11868   0.776   3.415  10.583  0.0363 -0.2150 -0.8067
  114OSM    H1S11869   0.667   3.433  10.571  0.2966  3.1901  1.3464
  114OSM    H1T11870   0.791   3.305  10.577 -3.5550 -0.6806 -3.0093
  114OSM     NF11871   0.781   3.484  10.342 -0.3885  0.1209  0.2547
  114OSM    HNF11872   0.831   3.423  10.281  3.3691 -1.2470  4.4737
  114OSM    C2S11873   0.842   3.505  10.476 -0.1288 -0.4827  0.2136
  114OSM    H2S11874   0.824   3.609  10.510  0.2908  0.8060 -3.2206
  114OSM    C3S11875   0.993   3.469  10.473 -0.0179  0.6756 -0.4493
  114OSM    H3S11876   1.017   3.363  10.448  1.8000  1.2967 -1.4177
  114OSM     O311877   1.050   3.476  10.604 -0.1818 -0.3536  0.2763
  114OSM    HO311878   0.980   3.484  10.668 -1.6230  0.5720 -1.3733
  114OSM    C4S11879   1.070   3.550  10.372  0.0122 -0.5731 -0.4356
  114OSM    H4S11880   1.066   3.512  10.269 -0.8703 -1.3876 -0.1007
  114OSM    C5S11881   1.125   3.669  10.392  0.3431  0.2782  0.0842
  114OSM    H5S11882   1.103   3.710  10.491  0.8040 -2.1367  1.2056
  114OSM    C6S11883   1.190   3.770  10.298 -1.1347 -0.2204  0.2995
  114OSM    H6S11884   1.284   3.809  10.341 -1.2035 -0.7502  0.9298
  114OSM    H6T11885   1.124   3.850  10.258 -0.8400 -0.8897 -1.5952
  114OSM    C7S11886   1.226   3.704  10.154  0.9995 -0.5678  0.5854
  114OSM    H7S11887   1.136   3.667  10.100  0.2725  0.8463  0.8064
  114OSM    H7T11888   1.303   3.624  10.158 -1.7152 -3.1893  2.8880
  114OSM    C8S11889   1.285   3.813  10.056 -0.1162 -0.1196 -0.3155
  114OSM    H8S11890   1.366   3.870  10.107 -0.0599 -0.0608 -0.4716
  114OSM    H8T11891   1.213   3.894  10.030  1.4837  1.4352  0.0104
  114OSM    C9S11892   1.342   3.748   9.931 -0.3999  0.0764  0.0208
  114OSM    H9S11893   1.270   3.679   9.883 -0.9004  0.7511 -0.2057
  114OSM    H9T11894   1.436   3.696   9.961 -0.2772  0.4384  0.2829
  114OSM   C10S11895   1.369   3.842   9.814  0.6756  0.3355  0.1229
  114OSM   H10S11896   1.427   3.930   9.850  0.9801 -0.1052  0.7310
  114OSM   H10T11897   1.277   3.888   9.774 -0.8211 -1.2139  1.7126
  114OSM   C11S11898   1.443   3.775   9.693  0.4882 -0.3673  0.5845
  114OSM   H11S11899   1.401   3.680   9.654  1.6402 -0.4682 -0.4609
  114OSM   H11T11900   1.545   3.749   9.731  0.7407 -3.6090 -2.0684
  114OSM   C12S11901   1.483   3.877   9.592 -0.3371 -0.6852 -0.3393
  114OSM   H12S11902   1.527   3.965   9.644 -3.9730  0.4995  0.8422
  114OSM   H12T11903   1.395   3.922   9.541 -0.9180 -1.4038  0.0117
  114OSM   C13S11904   1.590   3.829   9.487 -0.2130 -0.6832 -0.1007
  114OSM   H13S11905   1.554   3.730   9.453  1.0834 -0.4543 -2.2212
  114OSM   H13T11906   1.687   3.816   9.539 -0.9516 -0.2875  1.4240
  114OSM   C14S11907   1.616   3.933   9.368  0.9282  0.2653 -0.3037
  114OSM   H14S11908   1.660   4.021   9.418 -0.6492  0.6372  0.4478
  114OSM   H14T11909   1.519   3.969   9.328  0.6410  0.2734  0.3841
  114OSM   C15S11910   1.691   3.885   9.251  0.2322 -0.6396 -0.3909
  114OSM   H15S11911   1.666   3.945   9.161 -0.1184  0.7285  0.6105
  114OSM   H15T11912   1.680   3.776   9.229 -1.8137 -1.2061  3.0605
  114OSM   C16S11913   1.841   3.893   9.272  0.2130  0.0979  0.0249
  114OSM   H16S11914   1.875   3.837   9.361  1.6860 -1.8059 -1.7014
  114OSM   H16T11915   1.869   3.999   9.290  1.3524  0.1416 -1.8598
  114OSM   C17S11916   1.918   3.835   9.145  0.3830  0.8927 -0.1450
  114OSM   H17S11917   1.884   3.898   9.060  0.1424  0.4685 -0.3620
  114OSM   H17T11918   1.876   3.734   9.125  0.5988  0.8257 -0.2547
  114OSM   C18S11919   2.067   3.828   9.142 -0.1520  0.7581  0.4078
  114OSM   H18S11920   2.092   3.799   9.038  0.2624  1.8010  0.2141
  114OSM   H18T11921   2.108   3.758   9.218  0.3131 -0.4150 -0.9072
  114OSM   H18U11922   2.111   3.928   9.157  0.0911  0.6855  0.1800
  114OSM    C1F11923   0.663   3.537  10.309 -0.3890  0.4493 -1.1899
  114OSM     OF11924   0.600   3.592  10.403 -0.5091 -0.1637  0.3314
  114OSM    C2F11925   0.617   3.531  10.166 -0.0201  0.4477 -1.2577
  114OSM    H2F11926   0.636   3.427  10.131  0.7138  0.6077 -1.3424
  114OSM    H2G11927   0.681   3.599  10.106  1.6206 -0.8972 -1.0561
  114OSM    C3F11928   0.470   3.553  10.140 -0.2137  0.0808 -0.0711
  114OSM    H3F11929   0.443   3.652  10.181  1.6966  1.6236 -2.3734
  114OSM    H3G11930   0.412   3.471  10.187  0.5520  0.5332  1.6988
  114OSM    C4F11931   0.440   3.565   9.987 -0.0035  0.2951  0.8315
  114OSM    H4F11932   0.513   3.640   9.951 -0.3313 -1.9976 -5.1634
  114OSM    H4G11933   0.335   3.599   9.970 -0.3327 -0.6615  0.9146
  114OSM    C5F11934   0.451   3.430   9.913 -0.2652 -0.4670 -0.0095
  114OSM    H5F11935   0.362   3.370   9.939  1.0842 -1.9393  1.2813
  114OSM    H5G11936   0.540   3.383   9.959 -0.2193  1.3101  1.7922
  114OSM    C6F11937   0.471   3.440   9.762  0.4039  0.6752  0.1310
  114OSM    H6F11938   0.556   3.511   9.751 -1.1316  2.4270 -0.5768
  114OSM    H6G11939   0.387   3.495   9.714  0.3576  0.5713  0.0949
  114OSM    C7F11940   0.500   3.304   9.690 -0.0456  0.5471  0.0637
  114OSM    H7F11941   0.436   3.223   9.733  1.0485  0.9772  2.5804
  114OSM    H7G11942   0.606   3.274   9.701  0.3652  2.1962  0.6554
  114OSM    C8F11943   0.456   3.302   9.541  0.1127 -0.4127 -0.7259
  114OSM    H8F11944   0.498   3.396   9.501  0.5092  0.3241  1.3691
  114OSM    H8G11945   0.347   3.307   9.523  0.0717  0.0569 -0.3470
  114OSM    C9F11946   0.497   3.185   9.454 -0.3852  0.2575 -0.1618
  114OSM    H9F11947   0.544   3.106   9.515 -1.3804 -0.0039  0.2638
  114OSM   C10F11948   0.483   3.159   9.320  0.5308  0.3946 -0.1550
  114OSM   H10F11949   0.515   3.062   9.280  0.0742 -0.1892  0.8861
  114OSM   C11F11950   0.417   3.243   9.218 -0.6358 -0.1307  0.3084
  114OSM   H11F11951   0.373   3.339   9.252 -3.2217 -1.4574  0.8454
  114OSM   H11G11952   0.330   3.196   9.168 -0.4622  0.2050 -0.3137
  114OSM   C12F11953   0.510   3.294   9.105  0.2211  0.4726  1.1612
  114OSM   H12F11954   0.595   3.357   9.139  0.7112  1.1852 -1.2547
  114OSM   H12G11955   0.447   3.350   9.033 -1.0447  1.1389  2.7847
  114OSM   C13F11956   0.581   3.179   9.027  0.1113 -0.7015  0.0517
  114OSM   H13F11957   0.526   3.084   9.044  1.0518 -1.4536 -1.0732
  114OSM   H13G11958   0.678   3.172   9.080 -0.6769  0.9920  1.7878
  114OSM   C14F11959   0.596   3.206   8.872 -0.3588  0.5024 -0.2356
  114OSM   H14F11960   0.610   3.316   8.875 -0.6128  0.4945  3.2411
  114OSM   H14G11961   0.502   3.192   8.814 -1.0430 -0.8784  1.1553
  114OSM   C15F11962   0.717   3.129   8.816  0.4191 -0.4503  0.2418
  114OSM   H15F11963   0.716   3.021   8.841  1.5799 -0.0203  2.2879
  114OSM   H15G11964   0.805   3.168   8.871 -0.8174  1.2590  1.0548
  114OSM   C16F11965   0.745   3.164   8.661 -0.1468 -0.6941 -0.2116
  114OSM   H16F11966   0.654   3.155   8.598 -1.4349 -0.8511  1.6484
  114OSM   H16G11967   0.817   3.083   8.636 -0.8514 -1.3576 -0.1070
  114OSM   C17F11968   0.819   3.298   8.638 -0.6847  0.1756  0.3781
  114OSM   H17F11969   0.771   3.372   8.705 -0.7297  2.5794 -2.2228
  114OSM   H17G11970   0.817   3.334   8.533  0.2685 -0.2615  0.1988
  114OSM   C18F11971   0.966   3.296   8.685  0.0297 -0.0158  0.1692
  114OSM   H18F11972   0.972   3.266   8.792  0.5558  1.2024  0.4887
  114OSM   H18G11973   1.007   3.398   8.668  0.0910  0.0302  0.5815
  114OSM   H18H11974   1.020   3.217   8.628 -1.6685 -0.6188 -0.6186
  115OSM      N11975   4.517   2.374  11.107 -0.1527 -0.6248 -0.4286
  115OSM    C1511976   4.625   2.287  11.151  0.0768 -0.4827  0.4020
  115OSM   H15A11977   4.679   2.256  11.063  1.3164 -1.9023  1.6511
  115OSM   H15B11978   4.587   2.195  11.192  0.2745 -0.8581 -0.2497
  115OSM   H15C11979   4.690   2.338  11.220 -0.2676  0.7833 -0.1890
  115OSM    C1411980   4.574   2.490  11.025  0.0457 -0.0483 -0.5560
  115OSM   H14A11981   4.494   2.556  10.993 -0.1383  0.6493  1.3005
  115OSM   H14B11982   4.623   2.448  10.939 -1.3753  0.4126 -1.6164
  115OSM   H14C11983   4.650   2.544  11.078 -0.5264  0.3384 -0.1181
  115OSM    C1311984   4.425   2.296  11.023 -0.4212  0.9173  0.4434
  115OSM   H13A11985   4.355   2.354  10.964 -0.3210 -0.3692 -0.9805
  115OSM   H13B11986   4.377   2.216  11.076  0.9844  0.6663  1.3523
  115OSM   H13C11987   4.476   2.249  10.940  0.0327  1.1730  0.5765
  115OSM    C1211988   4.441   2.437  11.222  0.5884 -0.3248  0.2477
  115OSM   H12A11989   4.512   2.489  11.284  0.7593  1.3838 -1.3204
  115OSM   H12B11990   4.391   2.361  11.279 -1.2821 -0.3756 -1.3829
  115OSM    C1111991   4.337   2.537  11.185  0.4491 -0.4404  0.0571
  115OSM   H11A11992   4.261   2.550  11.265  0.9162  0.1502  0.4102
  115OSM   H11B11993   4.286   2.489  11.098  1.7843 -1.7135 -0.0418
  115OSM      P11994   4.336   2.763  11.044  0.0419 -0.0245  0.0573
  115OSM    O1311995   4.189   2.778  11.058  0.3081 -0.4169  0.4175
  115OSM    O1411996   4.414   2.887  11.045  0.0277  0.1497  0.5057
  115OSM    O1111997   4.380   2.681  10.915 -0.0201  0.9151 -0.0733
  115OSM    O1211998   4.391   2.662  11.152  0.1379  0.7691 -1.0605
  115OSM    C1S11999   4.394   2.745  10.793 -0.3833 -0.2986  0.7168
  115OSM    H1S12000   4.481   2.812  10.812 -2.5186  2.3408  1.4558
  115OSM    H1T12001   4.307   2.805  10.761 -0.1876 -1.7927 -2.8345
  115OSM     NF12002   4.431   2.729  10.553 -0.0425 -0.3206 -0.1187
  115OSM    HNF12003   4.343   2.734  10.506 -1.1864 -2.2163  1.7428
  115OSM    C2S12004   4.423   2.652  10.674 -0.2495  1.0815  0.1465
  115OSM    H2S12005   4.521   2.603  10.691 -0.7972 -0.4424 -0.9780
  115OSM    C3S12006   4.324   2.523  10.666  0.1842  0.1727 -0.8468
  115OSM    H3S12007   4.224   2.571  10.654  0.4595  1.9143  3.0130
  115OSM     O312008   4.315   2.438  10.789  0.2739 -0.0473  0.0402
  115OSM    HO312009   4.362   2.486  10.857  0.0555  1.1497 -0.6411
  115OSM    C4S12010   4.350   2.424  10.548 -0.2674 -0.4583  0.0489
  115OSM    H4S12011   4.283   2.431  10.461  2.4550  1.8012 -2.0026
  115OSM    C5S12012   4.436   2.324  10.547  0.2948 -0.1166  0.8237
  115OSM    H5S12013   4.502   2.306  10.633  1.1986  1.6034  0.5026
  115OSM    C6S12014   4.455   2.225  10.441 -0.7944 -0.1667 -0.7050
  115OSM    H6S12015   4.421   2.125  10.476  2.4479 -1.6152 -1.4596
  115OSM    H6T12016   4.563   2.200  10.430 -1.0009 -0.3906 -2.3193
  115OSM    C7S12017   4.382   2.250  10.313 -0.1185  0.0687  0.1556
  115OSM    H7S12018   4.410   2.346  10.264 -0.3855 -2.1774 -4.6624
  115OSM    H7T12019   4.276   2.270  10.342 -0.4443 -0.9901 -0.2916
  115OSM    C8S12020   4.377   2.142  10.210  0.2425  0.4491 -0.7914
  115OSM    H8S12021   4.307   2.066  10.249  1.7578  1.2439  3.8936
  115OSM    H8T12022   4.477   2.101  10.184  0.9728 -0.5714  3.1947
  115OSM    C9S12023   4.322   2.209  10.077 -0.8364  0.4052 -0.7483
  115OSM    H9S12024   4.394   2.289  10.050  1.0203 -0.5038  1.3174
  115OSM    H9T12025   4.225   2.260  10.092 -1.4189 -0.2042 -2.3237
  115OSM   C10S12026   4.324   2.114   9.962 -0.4396 -0.1176  0.3135
  115OSM   H10S12027   4.244   2.039   9.980 -0.4010 -0.1510  0.3474
  115OSM   H10T12028   4.423   2.064   9.952  0.4184  1.5441  0.2923
  115OSM   C11S12029   4.297   2.181   9.828 -0.2944 -0.2195  0.5792
  115OSM   H11S12030   4.394   2.232   9.809 -0.0565 -1.1565 -0.8441
  115OSM   H11T12031   4.209   2.248   9.833 -0.3352 -0.1571 -0.9232
  115OSM   C12S12032   4.274   2.080   9.714 -0.2519  0.0175  0.0525
  115OSM   H12S12033   4.173   2.033   9.713 -0.8948  1.3857 -0.9767
  115OSM   H12T12034   4.348   1.998   9.722  0.0618  0.3015  0.0906
  115OSM   C13S12035   4.283   2.142   9.575 -0.2986 -0.1889 -0.3761
  115OSM   H13S12036   4.380   2.195   9.561 -0.7800  0.5525 -0.9742
  115OSM   H13T12037   4.202   2.218   9.573  0.9490  1.1893  0.3132
  115OSM   C14S12038   4.261   2.046   9.454 -0.2481 -0.5570 -0.5579
  115OSM   H14S12039   4.162   1.996   9.456  0.1299 -1.3543 -1.3734
  115OSM   H14T12040   4.324   1.954   9.456 -1.3030 -1.3451 -2.2416
  115OSM   C15S12041   4.270   2.127   9.326  0.0825  0.6977  0.9062
  115OSM   H15S12042   4.371   2.171   9.314 -0.4019  1.6493  0.2864
  115OSM   H15T12043   4.199   2.213   9.325  0.5421  1.0761 -0.6768
  115OSM   C16S12044   4.236   2.033   9.207 -0.0863 -0.6985  0.4098
  115OSM   H16S12045   4.137   1.985   9.225 -0.4609 -0.0228  0.1619
  115OSM   H16T12046   4.310   1.950   9.206 -0.9395 -1.5221  2.4366
  115OSM   C17S12047   4.227   2.121   9.080 -0.3432 -0.1812  0.4889
  115OSM   H17S12048   4.332   2.140   9.049 -0.7015 -2.3860 -2.3498
  115OSM   H17T12049   4.173   2.217   9.090 -1.3440 -0.3902 -2.2824
  115OSM   C18S12050   4.164   2.049   8.959  0.8091  0.3720  1.0494
  115OSM   H18S12051   4.057   2.027   8.979  0.6925 -0.5301 -0.4742
  115OSM   H18T12052   4.206   1.950   8.929 -1.0213  0.1355 -0.8530
  115OSM   H18U12053   4.170   2.115   8.870  1.0898  1.0625  1.5704
  115OSM    C1F12054   4.528   2.815  10.530 -1.0970 -0.2805  0.7860
  115OSM     OF12055   4.635   2.800  10.581 -0.1380  0.3881  0.1099
  115OSM    C2F12056   4.495   2.924  10.430  0.3140 -0.9111  0.0514
  115OSM    H2F12057   4.417   2.885  10.361  0.8087 -1.9394  0.0675
  115OSM    H2G12058   4.583   2.952  10.368 -1.2142 -0.4053 -1.9426
  115OSM    C3F12059   4.455   3.057  10.506  0.2578  0.6716  0.1679
  115OSM    H3F12060   4.537   3.102  10.567  0.9427 -0.3900  0.0327
  115OSM    H3G12061   4.363   3.027  10.561 -1.5295  1.1552 -2.4624
  115OSM    C4F12062   4.434   3.173  10.402 -0.2591 -0.5321 -0.0637
  115OSM    H4F12063   4.533   3.209  10.367 -0.2902  0.3680  0.7363
  115OSM    H4G12064   4.380   3.252  10.458 -0.4884  0.1353 -1.2152
  115OSM    C5F12065   4.336   3.156  10.280 -0.4456 -0.8892 -0.1495
  115OSM    H5F12066   4.245   3.110  10.324  1.0391 -0.9734  2.9800
  115OSM    H5G12067   4.364   3.071  10.214 -0.5195 -1.7376  0.8862
  115OSM    C6F12068   4.291   3.276  10.200 -0.3270 -0.1380  0.4659
  115OSM    H6F12069   4.244   3.234  10.109  2.2770 -1.3872 -0.3429
  115OSM    H6G12070   4.380   3.321  10.152  0.8648 -1.2868  1.5615
  115OSM    C7F12071   4.205   3.373  10.273 -0.2769  0.1418  0.2410
  115OSM    H7F12072   4.248   3.402  10.371  1.9197 -0.2047 -0.6035
  115OSM    H7G12073   4.107   3.323  10.293 -0.7578  0.1610 -1.9848
  115OSM    C8F12074   4.174   3.495  10.193 -0.3745  0.6110  0.1504
  115OSM    H8F12075   4.159   3.475  10.084 -1.1375 -2.0465  0.7107
  115OSM    H8G12076   4.262   3.562  10.188 -2.4468  3.3371 -1.4629
  115OSM    C9F12077   4.051   3.575  10.234 -0.0290  0.2481  0.3372
  115OSM    H9F12078   3.968   3.527  10.287 -0.3030  1.5359  1.0935
  115OSM   C10F12079   4.037   3.711  10.223 -0.6336 -0.4421  0.0792
  115OSM   H10F12080   3.949   3.760  10.266  1.2279  0.7899  2.6246
  115OSM   C11F12081   4.141   3.800  10.172  0.4536  0.0909 -0.3156
  115OSM   H11F12082   4.240   3.766  10.211 -0.2206  3.1669  4.5258
  115OSM   H11G12083   4.130   3.904  10.207  0.6634 -0.0446  0.1519
  115OSM   C12F12084   4.143   3.800  10.021 -0.5440  0.1755  0.5879
  115OSM   H12F12085   4.047   3.845   9.987 -1.0119 -1.0376  0.2876
  115OSM   H12G12086   4.132   3.696   9.983 -1.4148  1.1621 -2.0000
  115OSM   C13F12087   4.267   3.869   9.960 -0.2288 -0.0721 -0.2742
  115OSM   H13F12088   4.352   3.848  10.028 -0.3113 -1.6096 -0.6165
  115OSM   H13G12089   4.243   3.977   9.950  1.3432  0.0033 -4.5701
  115OSM   C14F12090   4.294   3.820   9.820  0.3911  0.1052  0.1859
  115OSM   H14F12091   4.307   3.710   9.809 -2.2343 -0.0478 -1.9397
  115OSM   H14G12092   4.373   3.881   9.772 -0.3836  0.4922 -0.6183
  115OSM   C15F12093   4.172   3.834   9.726 -0.1863  0.7259  0.2545
  115OSM   H15F12094   4.149   3.942   9.712  0.5358  0.8454 -0.0194
  115OSM   H15G12095   4.085   3.778   9.769  0.9049 -1.5362 -0.4120
  115OSM   C16F12096   4.198   3.777   9.589 -0.7952 -0.5890 -0.0859
  115OSM   H16F12097   4.237   3.673   9.593 -0.6042 -0.6409 -2.6664
  115OSM   H16G12098   4.261   3.852   9.537 -1.7698 -0.0088 -0.4522
  115OSM   C17F12099   4.072   3.766   9.510 -0.5463  0.5315 -0.6785
  115OSM   H17F12100   4.028   3.868   9.517  1.4523  1.3041  1.2112
  115OSM   H17G12101   3.995   3.702   9.559  1.4796 -0.1483  1.7158
  115OSM   C18F12102   4.100   3.740   9.364  0.2058 -0.4353 -0.2745
  115OSM   H18F12103   4.173   3.815   9.327 -1.8267  1.8924  0.2857
  115OSM   H18G12104   4.014   3.742   9.293 -1.0116 -4.2260  0.9458
  115OSM   H18H12105   4.150   3.642   9.351  1.3373 -0.1278  1.6615
  116OSM      N12106   0.564   5.632  11.073 -0.2291  0.1891 -0.0159
  116OSM    C1512107   0.607   5.688  11.203 -0.2170 -0.4379  0.1926
  116OSM   H15A12108   0.539   5.764  11.237  1.7817  0.3575  2.5444
  116OSM   H15B12109   0.710   5.720  11.205 -0.6773  1.0161  1.2625
  116OSM   H15C12110   0.615   5.610  11.277 -1.2992 -2.3567 -1.6725
  116OSM    C1412111   0.645   5.511  11.033 -0.0652 -0.5518 -0.4381
  116OSM   H14A12112   0.614   5.478  10.935  0.8715  0.6475 -1.1548
  116OSM   H14B12113   0.629   5.439  11.112  0.6175 -1.3707 -1.0346
  116OSM   H14C12114   0.750   5.533  11.046 -0.7144  1.4812  1.7501
  116OSM    C1312115   0.424   5.579  11.086 -0.5192  0.3753  0.4232
  116OSM   H13A12116   0.404   5.531  11.180  1.7132 -3.5953 -1.0207
  116OSM   H13B12117   0.410   5.522  10.996 -1.7052  2.1569 -0.5404
  116OSM   H13C12118   0.352   5.660  11.077 -1.1791 -0.2034  0.4579
  116OSM    C1212119   0.579   5.736  10.962  0.1032  0.5674 -0.1098
  116OSM   H12A12120   0.533   5.825  11.002 -1.1116 -0.6265  1.2144
  116OSM   H12B12121   0.519   5.718  10.875  1.7826 -0.5963 -1.0640
  116OSM    C1112122   0.718   5.774  10.903 -0.1188 -0.6558 -0.7222
  116OSM   H11A12123   0.706   5.845  10.818  0.8210  0.5719  0.1520
  116OSM   H11B12124   0.772   5.687  10.862  0.4677 -0.5624 -0.1526
  116OSM      P12125   0.822   5.988  11.025  0.2690 -0.1140 -0.4389
  116OSM    O1312126   0.692   6.051  10.973 -0.2357 -0.3848  0.5320
  116OSM    O1412127   0.849   6.007  11.167  0.1813  0.0236  0.0742
  116OSM    O1112128   0.950   6.046  10.945 -0.5423  0.0490 -0.0452
  116OSM    O1212129   0.809   5.834  11.003 -1.2086 -0.3163  0.1732
  116OSM    C1S12130   1.014   5.978  10.835  0.4167  0.4681  0.3232
  116OSM    H1S12131   0.958   5.887  10.805  0.3868 -0.0892  2.0272
  116OSM    H1T12132   1.122   5.957  10.841  0.3831 -0.8864 -2.7876
  116OSM     NF12133   1.038   6.011  10.586  0.2287  0.1017  0.5640
  116OSM    HNF12134   1.108   6.047  10.525 -1.1066  0.0733 -1.0292
  116OSM    C2S12135   1.000   6.075  10.711  0.5104 -0.1178 -0.4147
  116OSM    H2S12136   0.891   6.096  10.708  0.3729 -0.7240  0.1846
  116OSM    C3S12137   1.081   6.203  10.749 -0.3283  0.6951 -1.0842
  116OSM    H3S12138   1.189   6.176  10.758 -0.5794  0.1066  0.2856
  116OSM     O312139   1.048   6.264  10.873 -0.0709  0.3548 -1.1713
  116OSM    HO312140   1.019   6.187  10.923  2.2610 -1.2482 -2.1792
  116OSM    C4S12141   1.067   6.317  10.648  0.6252 -0.4105  0.8817
  116OSM    H4S12142   0.964   6.347  10.624  0.1850 -2.9257 -0.5328
  116OSM    C5S12143   1.165   6.365  10.568 -0.1944 -0.4156 -0.1779
  116OSM    H5S12144   1.263   6.315  10.569  0.2939  0.4820 -1.2727
  116OSM    C6S12145   1.143   6.472  10.464  0.1130  0.4580 -0.3361
  116OSM    H6S12146   1.238   6.527  10.448  2.0645 -3.0673 -1.1959
  116OSM    H6T12147   1.054   6.532  10.494 -1.7554 -2.2177 -0.3639
  116OSM    C7S12148   1.104   6.407  10.319 -0.2504  0.4329 -0.1135
  116OSM    H7S12149   0.998   6.373  10.327  1.0508 -3.7706  0.5936
  116OSM    H7T12150   1.170   6.320  10.299 -0.2656  0.1402  1.0515
  116OSM    C8S12151   1.124   6.506  10.203  0.3285  0.7654  0.1137
  116OSM    H8S12152   1.230   6.517  10.172 -0.1259  1.7487 -1.1085
  116OSM    H8T12153   1.094   6.610  10.227 -0.4075  0.5728  0.0271
  116OSM    C9S12154   1.039   6.461  10.086  0.3525  0.2687  1.0304
  116OSM    H9S12155   0.935   6.464  10.124 -0.3644 -1.0973 -0.7865
  116OSM    H9T12156   1.067   6.359  10.054 -0.7388 -0.0423  1.0414
  116OSM   C10S12157   1.063   6.540   9.960 -0.3314 -0.4069 -0.3895
  116OSM   H10S12158   1.161   6.511   9.915 -0.6947 -1.3307 -0.5859
  116OSM   H10T12159   1.069   6.645   9.998 -3.0280 -1.3203  2.8170
  116OSM   C11S12160   0.959   6.522   9.854 -0.1365  0.7213 -0.5949
  116OSM   H11S12161   0.861   6.561   9.886 -0.2565  0.4065 -0.5813
  116OSM   H11T12162   0.940   6.413   9.847  0.0285  0.7467 -1.5761
  116OSM   C12S12163   0.989   6.589   9.720  0.2400  0.2089  0.4952
  116OSM   H12S12164   1.098   6.579   9.699  0.2683 -1.9582  1.4862
  116OSM   H12T12165   0.965   6.697   9.734 -2.3813 -0.1674 -0.8329
  116OSM   C13S12166   0.897   6.540   9.604  0.6506  0.6979  0.4395
  116OSM   H13S12167   0.791   6.534   9.637  1.0864 -2.5613  1.5054
  116OSM   H13T12168   0.929   6.436   9.580  0.6710  0.5768  0.9717
  116OSM   C14S12169   0.906   6.637   9.489  0.0428 -0.1279 -0.5964
  116OSM   H14S12170   1.011   6.652   9.455 -0.3793  1.3078 -1.3502
  116OSM   H14T12171   0.850   6.731   9.509 -1.3757 -1.3604  1.3552
  116OSM   C15S12172   0.821   6.596   9.363  0.3949 -0.2083 -0.2881
  116OSM   H15S12173   0.721   6.568   9.404  0.6012  0.9310  1.0415
  116OSM   H15T12174   0.860   6.507   9.309 -0.8473 -1.1056  0.2627
  116OSM   C16S12175   0.804   6.711   9.266  0.0614 -0.1898 -0.2147
  116OSM   H16S12176   0.899   6.731   9.211  0.3428  2.1521  1.0378
  116OSM   H16T12177   0.792   6.804   9.325 -0.9136 -0.4959  0.0574
  116OSM   C17S12178   0.680   6.699   9.172 -0.6820  0.5689  0.5436
  116OSM   H17S12179   0.635   6.800   9.184 -1.4854  0.1165  1.4647
  116OSM   H17T12180   0.613   6.627   9.224  0.1672 -0.4884  0.2099
  116OSM   C18S12181   0.691   6.667   9.022 -0.2660  0.3573  0.8637
  116OSM   H18S12182   0.587   6.659   8.982  0.8522 -2.3327 -1.6103
  116OSM   H18T12183   0.748   6.575   8.999  2.5730  1.7306  2.1158
  116OSM   H18U12184   0.724   6.756   8.965 -1.8384  0.2770 -0.2120
  116OSM    C1F12185   0.952   5.923  10.525  0.3870 -0.5733 -0.4190
  116OSM     OF12186   0.853   5.878  10.583  0.1445  0.0270  0.1204
  116OSM    C2F12187   0.990   5.881  10.390  0.1784 -0.0837 -0.8166
  116OSM    H2F12188   0.992   5.772  10.369  1.6208 -0.2591  0.1310
  116OSM    H2G12189   1.089   5.919  10.356 -1.3800  2.3178 -2.7904
  116OSM    C3F12190   0.882   5.948  10.288 -0.3800  0.2360 -0.0769
  116OSM    H3F12191   0.780   5.928  10.326 -0.7785  1.1777 -0.6341
  116OSM    H3G12192   0.891   5.892  10.192  0.6376  0.3180 -0.0319
  116OSM    C4F12193   0.905   6.098  10.265  1.1564  0.0945 -0.4651
  116OSM    H4F12194   1.008   6.121  10.231  1.3400  1.7398  1.0827
  116OSM    H4G12195   0.878   6.158  10.355  1.7237 -1.3051  0.6493
  116OSM    C5F12196   0.822   6.155  10.151  0.5272  0.0673 -0.0434
  116OSM    H5F12197   0.832   6.265  10.159  1.4435 -0.1222  1.6197
  116OSM    H5G12198   0.718   6.132  10.182  0.3540  0.3453 -0.4164
  116OSM    C6F12199   0.864   6.113  10.014 -0.1749  0.1862  0.0605
  116OSM    H6F12200   0.872   6.003  10.000  3.4311  0.1865  1.6301
  116OSM    H6G12201   0.961   6.156   9.982  0.5768 -0.6184  1.2118
  116OSM    C7F12202   0.765   6.176   9.910 -0.0284  0.8476  0.0925
  116OSM    H7F12203   0.760   6.280   9.949 -3.0322  0.5836  0.5045
  116OSM    H7G12204   0.666   6.127   9.924  1.3287 -2.0810 -0.1956
  116OSM    C8F12205   0.812   6.157   9.768 -0.8624 -0.1719  0.0769
  116OSM    H8F12206   0.838   6.050   9.755 -1.3010 -0.2156 -0.4802
  116OSM    H8G12207   0.906   6.214   9.748 -0.2302 -2.0564 -2.6416
  116OSM    C9F12208   0.709   6.202   9.670  0.4104  0.4612 -0.4882
  116OSM    H9F12209   0.621   6.254   9.711 -0.0648 -0.0585 -0.8410
  116OSM   C10F12210   0.722   6.179   9.540  0.1991  0.1088  0.3774
  116OSM   H10F12211   0.653   6.225   9.468  1.0084  1.3848  0.3960
  116OSM   C11F12212   0.847   6.116   9.485  0.3131  0.2293 -0.4352
  116OSM   H11F12213   0.879   6.024   9.538 -0.6852  1.3545  2.2004
  116OSM   H11G12214   0.923   6.194   9.508  1.0512 -0.6366  0.1074
  116OSM   C12F12215   0.840   6.088   9.337 -0.3533 -0.0376 -0.3756
  116OSM   H12F12216   0.765   6.148   9.280  0.9887  1.5363 -0.5218
  116OSM   H12G12217   0.818   5.981   9.322  0.3501  0.0022 -1.8217
  116OSM   C13F12218   0.983   6.093   9.269 -0.5147 -0.0277  0.6280
  116OSM   H13F12219   1.004   5.998   9.215  0.8423 -0.8061  2.4503
  116OSM   H13G12220   1.063   6.114   9.344 -0.6624  0.7668  0.5596
  116OSM   C14F12221   0.982   6.198   9.161 -0.0768  0.2409 -0.2048
  116OSM   H14F12222   1.088   6.211   9.128 -1.2213  3.9099 -2.7824
  116OSM   H14G12223   0.955   6.296   9.206 -1.5466 -1.2274  2.2353
  116OSM   C15F12224   0.891   6.167   9.047  0.6327 -0.0806 -0.5695
  116OSM   H15F12225   0.898   6.258   8.984 -0.6029  1.2388  1.1618
  116OSM   H15G12226   0.786   6.164   9.082  1.0701 -0.1842  0.7627
  116OSM   C16F12227   0.942   6.049   8.963 -0.1700  0.0019 -0.6179
  116OSM   H16F12228   0.910   5.955   9.013  1.3180 -0.5945 -0.7371
  116OSM   H16G12229   1.053   6.043   8.975 -0.1246 -0.8497 -1.4282
  116OSM   C17F12230   0.890   6.058   8.817 -0.6803 -0.2739 -0.2567
  116OSM   H17F12231   0.946   6.144   8.775  0.9649 -1.3851 -0.4040
  116OSM   H17G12232   0.780   6.070   8.811 -0.5031  1.1396 -0.9177
  116OSM   C18F12233   0.926   5.924   8.745 -0.0575 -0.3803  0.1292
  116OSM   H18F12234   1.037   5.912   8.743 -0.1631 -1.4197 -2.9110
  116OSM   H18G12235   0.884   5.928   8.642  0.2042  1.1804  0.0719
  116OSM   H18H12236   0.888   5.841   8.808  0.7341 -1.1993 -0.4469
  117OSM      N12237   5.337   0.379  11.215 -0.3041  0.2817 -0.4824
  117OSM    C1512238   5.268   0.406  11.348 -1.0962  0.5861 -0.3518
  117OSM   H15A12239   5.217   0.318  11.385 -0.6323  0.9321  1.1460
  117OSM   H15B12240   5.186   0.473  11.326 -1.1522  0.0422 -1.8390
  117OSM   H15C12241   5.337   0.434  11.425  0.0489 -1.1243 -0.7272
  117OSM    C1412242   5.405   0.507  11.173  0.2069 -0.3119  0.8158
  117OSM   H14A12243   5.337   0.590  11.186  0.5393 -0.0124  0.6520
  117OSM   H14B12244   5.444   0.498  11.072 -2.5629  2.0281 -0.5526
  117OSM   H14C12245   5.486   0.524  11.242 -1.7458 -0.6883  3.2740
  117OSM    C1312246   5.437   0.269  11.237  0.0010 -0.1982 -0.2047
  117OSM   H13A12247   5.487   0.232  11.149  0.9819  1.1936 -0.2521
  117OSM   H13B12248   5.387   0.180  11.272 -1.7290  0.3826 -1.1254
  117OSM   H13C12249   5.511   0.282  11.314 -1.2001 -1.6891  1.2176
  117OSM    C1212250   5.232   0.334  11.109 -1.0104  0.4429 -0.0175
  117OSM   H12A12251   5.170   0.422  11.094 -0.8922  0.6810  0.8530
  117OSM   H12B12252   5.168   0.257  11.148 -1.2543 -0.3345 -1.9194
  117OSM    C1112253   5.289   0.296  10.973 -0.0491 -1.0818 -0.0330
  117OSM   H11A12254   5.352   0.377  10.931 -0.7335  0.3523  1.6457
  117OSM   H11B12255   5.217   0.282  10.890 -1.8358  2.2421  0.8728
  117OSM      P12256   5.318   0.036  10.947  0.1295 -0.5787 -0.5157
  117OSM    O1312257   5.401  -0.059  11.016 -0.3050  0.0068  0.5160
  117OSM    O1412258   5.174   0.044  10.978 -0.6722 -0.1394 -0.0549
  117OSM    O1112259   5.333   0.019  10.795  0.3748 -0.2341 -0.2865
  117OSM    O1212260   5.375   0.178  10.984  0.0134 -0.4737  0.2499
  117OSM    C1S12261   5.457   0.054  10.730  0.5128  0.4384 -0.1386
  117OSM    H1S12262   5.530  -0.028  10.747  0.6633  0.7911  0.9775
  117OSM    H1T12263   5.496   0.145  10.781  0.2615 -0.5463  1.8718
  117OSM     NF12264   5.548   0.094  10.510  0.2533 -0.2008 -0.2654
  117OSM    HNF12265   5.596   0.181  10.504 -0.7649  0.2708 -1.7230
  117OSM    C2S12266   5.426   0.075  10.585 -0.1086 -0.0529 -0.3392
  117OSM    H2S12267   5.371  -0.016  10.552  0.3518 -1.5629  2.8494
  117OSM    C3S12268   5.327   0.198  10.565 -1.0345  0.5059  0.5144
  117OSM    H3S12269   5.384   0.277  10.619 -0.3268 -0.4512  1.1665
  117OSM     O312270   5.198   0.179  10.626  0.3569 -0.2645 -0.2031
  117OSM    HO312271   5.219   0.095  10.669 -0.7331 -0.7991 -0.6903
  117OSM    C4S12272   5.319   0.249  10.423  0.2582  0.0394 -0.2829
  117OSM    H4S12273   5.379   0.339  10.403  1.1418 -0.1702  1.3560
  117OSM    C5S12274   5.245   0.202  10.323  0.1510 -0.1301  0.0434
  117OSM    H5S12275   5.168   0.129  10.351 -0.9414  0.2266 -1.9334
  117OSM    C6S12276   5.231   0.259  10.181 -0.4335 -0.4382 -0.2059
  117OSM    H6S12277   5.266   0.364  10.187  0.1694 -0.6734  0.6030
  117OSM    H6T12278   5.124   0.276  10.158 -0.6392 -0.4350  0.7221
  117OSM    C7S12279   5.314   0.176  10.083  0.5299 -0.1500  0.3313
  117OSM    H7S12280   5.274   0.073  10.071  0.0173  0.3858 -3.1017
  117OSM    H7T12281   5.422   0.171  10.106  0.9776  0.7454 -1.4463
  117OSM    C8S12282   5.318   0.243   9.940 -0.7070  0.0142  0.9928
  117OSM    H8S12283   5.340   0.352   9.940 -1.4981  0.1782 -0.2357
  117OSM    H8T12284   5.217   0.235   9.894  1.2857  1.4898 -3.9246
  117OSM    C9S12285   5.420   0.178   9.838  0.2320  0.2149  0.0312
  117OSM    H9S12286   5.404   0.068   9.837 -0.3846  0.2997  0.3792
  117OSM    H9T12287   5.520   0.193   9.884  0.8100  1.3047 -1.5444
  117OSM   C10S12288   5.404   0.227   9.692  0.2043  0.2499 -0.8307
  117OSM   H10S12289   5.434   0.334   9.690 -0.3076  0.3833 -1.4450
  117OSM   H10T12290   5.296   0.218   9.668 -0.5109 -0.4100  2.3546
  117OSM   C11S12291   5.490   0.144   9.596  0.2405  0.1744 -0.2050
  117OSM   H11S12292   5.491   0.041   9.640 -1.7845 -0.3416 -1.2801
  117OSM   H11T12293   5.595   0.179   9.590  0.7233 -1.2195 -0.0707
  117OSM   C12S12294   5.447   0.122   9.455 -0.0437  0.8551  0.4259
  117OSM   H12S12295   5.462   0.220   9.404  0.8822 -0.0951 -1.1480
  117OSM   H12T12296   5.342   0.086   9.453  0.0998  0.1203  3.2397
  117OSM   C13S12297   5.537   0.023   9.383 -0.0007  0.0090 -0.3685
  117OSM   H13S12298   5.513  -0.079   9.418  2.4758  0.0862  1.6674
  117OSM   H13T12299   5.644   0.042   9.407  0.3134 -1.1328 -0.7988
  117OSM   C14S12300   5.507   0.021   9.235 -1.1291 -0.6908 -0.0585
  117OSM   H14S12301   5.526   0.114   9.178 -2.0101 -0.2842  0.3080
  117OSM   H14T12302   5.396   0.014   9.232 -1.1014 -1.1430 -0.1546
  117OSM   C15S12303   5.575  -0.094   9.154 -0.2664 -0.0243  0.2128
  117OSM   H15S12304   5.513  -0.181   9.185 -1.4258  0.4772 -0.6568
  117OSM   H15T12305   5.683  -0.100   9.180  0.0327 -0.2163 -1.0471
  117OSM   C16S12306   5.551  -0.089   9.005 -0.6133  0.7646  0.0680
  117OSM   H16S12307   5.614  -0.015   8.951 -0.5547  0.8682  0.2798
  117OSM   H16T12308   5.447  -0.057   8.981 -1.2339  0.7780  2.6173
  117OSM   C17S12309   5.574  -0.215   8.932 -0.0585 -0.3235 -0.1202
  117OSM   H17S12310   5.670  -0.254   8.972  0.1048  0.5403  0.3472
  117OSM   H17T12311   5.588  -0.196   8.823  2.2533 -0.9132  0.0488
  117OSM   C18S12312   5.455  -0.317   8.940  0.0220 -0.6286 -0.1037
  117OSM   H18S12313   5.482  -0.417   8.902 -0.8637 -1.0470  0.3724
  117OSM   H18T12314   5.361  -0.277   8.897  0.0060 -1.2444 -0.6374
  117OSM   H18U12315   5.438  -0.322   9.050 -0.3022  0.3078 -0.1025
  117OSM    C1F12316   5.620  -0.017  10.482  0.2904  0.3697  0.1545
  117OSM     OF12317   5.582  -0.136  10.499 -0.0459  0.4373 -0.1185
  117OSM    C2F12318   5.762   0.002  10.442  1.1182 -0.3551  0.0953
  117OSM    H2F12319   5.830  -0.075  10.484  1.3248 -0.2356 -0.0155
  117OSM    H2G12320   5.790   0.106  10.468 -0.7502  0.8222 -2.3261
  117OSM    C3F12321   5.782  -0.012  10.291  0.3338 -0.5784  0.3236
  117OSM    H3F12322   5.761  -0.115  10.255 -1.8319 -0.9575  2.6115
  117OSM    H3G12323   5.889   0.002  10.262 -0.5391 -0.7016 -3.2418
  117OSM    C4F12324   5.693   0.084  10.208  0.3110  0.0967  0.0947
  117OSM    H4F12325   5.694   0.183  10.258 -1.6337  0.0704  0.2085
  117OSM    H4G12326   5.589   0.044  10.205  0.1717  0.4931 -0.4178
  117OSM    C5F12327   5.746   0.107  10.060  1.1674 -0.4321  0.1198
  117OSM    H5F12328   5.825   0.185  10.055 -0.2280  0.9136 -1.3945
  117OSM    H5G12329   5.671   0.156   9.994  0.9543 -1.3167 -0.2870
  117OSM    C6F12330   5.799  -0.024   9.992  0.2282  0.1090 -0.0034
  117OSM    H6F12331   5.716  -0.097   9.981  0.3494 -0.1313  0.6681
  117OSM    H6G12332   5.877  -0.074  10.053 -0.1143 -1.4034 -0.7768
  117OSM    C7F12333   5.847   0.003   9.851 -0.5937  0.4751 -0.4509
  117OSM    H7F12334   5.900   0.100   9.841 -1.5423  0.7898 -2.6481
  117OSM    H7G12335   5.759   0.014   9.784  0.4784  0.6557 -1.8361
  117OSM    C8F12336   5.944  -0.107   9.799 -0.3838  0.0058  0.5792
  117OSM    H8F12337   6.043  -0.109   9.849 -0.4642  1.3085  0.8206
  117OSM    H8G12338   5.979  -0.082   9.696  1.5433 -1.8537  0.7480
  117OSM    C9F12339   5.866  -0.239   9.797 -0.3275 -0.3686  1.0942
  117OSM    H9F12340   5.835  -0.283   9.893 -0.7516 -0.8269  0.7475
  117OSM   C10F12341   5.858  -0.307   9.685  0.2323  0.0842  0.4634
  117OSM   H10F12342   5.789  -0.393   9.687 -0.0215  0.2837  0.2221
  117OSM   C11F12343   5.920  -0.269   9.550  0.2636 -0.5572  0.8617
  117OSM   H11F12344   6.029  -0.277   9.536  0.3997  1.0724  0.8379
  117OSM   H11G12345   5.900  -0.160   9.538  2.4201 -0.0177  2.0002
  117OSM   C12F12346   5.860  -0.327   9.428 -0.7383  0.0715 -0.2145
  117OSM   H12F12347   5.751  -0.310   9.415 -1.0490 -3.2415 -2.4958
  117OSM   H12G12348   5.855  -0.437   9.445 -0.2841  0.2335  1.0290
  117OSM   C13F12349   5.932  -0.288   9.298 -0.1102  0.7655 -0.3858
  117OSM   H13F12350   6.042  -0.286   9.315 -0.0004  2.0492 -1.1774
  117OSM   H13G12351   5.908  -0.183   9.274  1.4175  0.8364 -1.7847
  117OSM   C14F12352   5.891  -0.382   9.182  0.3234 -0.2580 -0.2204
  117OSM   H14F12353   5.783  -0.366   9.166  0.3499 -0.0453 -0.1850
  117OSM   H14G12354   5.914  -0.488   9.205 -1.7146 -0.8364 -0.8125
  117OSM   C15F12355   5.971  -0.361   9.053  0.3448  0.5822  0.0637
  117OSM   H15F12356   6.077  -0.369   9.085 -0.5508  1.3511  3.5465
  117OSM   H15G12357   5.964  -0.255   9.020  0.3837  0.4954 -0.2178
  117OSM   C16F12358   5.920  -0.465   8.957 -0.8435  0.0783  0.3113
  117OSM   H16F12359   5.810  -0.480   8.959 -0.7135 -0.8901  0.6465
  117OSM   H16G12360   5.966  -0.565   8.975  0.3151  0.3747 -0.9774
  117OSM   C17F12361   5.958  -0.421   8.816 -0.9640  0.5950 -0.0499
  117OSM   H17F12362   6.069  -0.406   8.814 -1.2361  3.0806  1.6085
  117OSM   H17G12363   5.887  -0.339   8.795 -0.1106  1.1679 -0.7155
  117OSM   C18F12364   5.926  -0.531   8.712  0.3941  0.5166  0.6216
  117OSM   H18F12365   5.979  -0.511   8.616 -0.8599  0.6980 -0.0374
  117OSM   H18G12366   5.819  -0.555   8.698  1.3349 -2.8585 -1.2261
  117OSM   H18H12367   5.975  -0.623   8.749  1.6689  0.4501 -1.1587
  118OSM      N12368   5.684   1.600  11.188  0.2704  0.0681  0.1174
  118OSM    C1512369   5.685   1.621  11.338  0.9781  0.5529  0.3033
  118OSM   H15A12370   5.708   1.723  11.364  3.5952 -0.0973  0.6972
  118OSM   H15B12371   5.742   1.542  11.385 -0.9518 -1.4319 -0.5665
  118OSM   H15C12372   5.585   1.603  11.375  0.1455  1.7342 -1.3184
  118OSM    C1412373   5.697   1.460  11.157 -0.4868  0.5361 -0.0615
  118OSM   H14A12374   5.687   1.429  11.054  2.2502 -1.1368  0.1345
  118OSM   H14B12375   5.628   1.402  11.217  0.7835 -0.2728  0.6310
  118OSM   H14C12376   5.797   1.425  11.179 -0.4856  0.8611  0.4592
  118OSM    C1312377   5.554   1.655  11.130  0.0068  0.1733 -0.3747
  118OSM   H13A12378   5.549   1.628  11.026  2.4769 -1.6908 -0.0636
  118OSM   H13B12379   5.536   1.757  11.161 -0.8658 -0.2927  0.6868
  118OSM   H13C12380   5.476   1.593  11.172  0.7019 -1.2562 -1.1507
  118OSM    C1212381   5.793   1.680  11.130 -0.3769 -0.2217  0.3433
  118OSM   H12A12382   5.771   1.785  11.147 -1.7752 -0.9188  3.1641
  118OSM   H12B12383   5.801   1.670  11.023  0.8462  1.4626  0.2499
  118OSM    C1112384   5.936   1.659  11.178  0.4346  0.7493 -0.4350
  118OSM   H11A12385   5.952   1.687  11.285  1.6159  2.8062 -1.1105
  118OSM   H11B12386   6.001   1.738  11.135  1.5286  1.1431  1.8361
  118OSM      P12387   6.051   1.499  11.012 -0.0802 -0.3966 -0.0037
  118OSM    O1312388   6.171   1.585  11.001 -0.0532  0.0282 -0.1444
  118OSM    O1412389   6.068   1.353  11.000  0.2575  0.0108  0.3448
  118OSM    O1112390   5.944   1.547  10.902 -0.5051 -0.0808 -0.6679
  118OSM    O1212391   5.980   1.525  11.151  0.2310 -0.4984  0.1236
  118OSM    C1S12392   5.985   1.597  10.774  0.4481  0.8259 -0.1194
  118OSM    H1S12393   6.087   1.562  10.747 -0.9576 -1.6447 -2.4349
  118OSM    H1T12394   5.970   1.707  10.775 -3.6346  0.3737 -1.2326
  118OSM     NF12395   5.950   1.549  10.520 -0.1021  0.4091  0.6224
  118OSM    HNF12396   5.945   1.634  10.469  1.8742  1.3952  1.9803
  118OSM    C2S12397   5.887   1.547  10.654  0.0078 -0.3659  0.7914
  118OSM    H2S12398   5.863   1.439  10.665  0.0783 -0.6057 -1.2483
  118OSM    C3S12399   5.751   1.624  10.658  0.0998 -0.4595  0.7934
  118OSM    H3S12400   5.772   1.731  10.638 -1.6272  0.2294  2.5025
  118OSM     O312401   5.682   1.622  10.780 -0.3679  0.3060 -0.0949
  118OSM    HO312402   5.739   1.569  10.837 -2.5686 -1.2797  0.7210
  118OSM    C4S12403   5.667   1.566  10.545  0.4582  0.1746  0.5482
  118OSM    H4S12404   5.677   1.626  10.453 -3.7930  0.7411  0.3637
  118OSM    C5S12405   5.583   1.464  10.552 -0.1840 -0.1057  0.4131
  118OSM    H5S12406   5.571   1.399  10.640 -0.1247 -0.8566 -0.1327
  118OSM    C6S12407   5.513   1.419  10.426 -0.5678 -0.6100  0.3713
  118OSM    H6S12408   5.427   1.487  10.406  3.1799  4.0541 -0.9093
  118OSM    H6T12409   5.477   1.316  10.445  0.2049 -0.9572 -0.0292
  118OSM    C7S12410   5.599   1.422  10.294 -0.2361 -0.7403  0.3771
  118OSM    H7S12411   5.704   1.386  10.306 -0.2059 -0.7620  0.0578
  118OSM    H7T12412   5.616   1.527  10.262 -2.6087 -0.5097 -0.1495
  118OSM    C8S12413   5.530   1.344  10.181 -0.2404 -0.1009 -0.2665
  118OSM    H8S12414   5.425   1.378  10.167 -1.1395 -1.5860  2.6031
  118OSM    H8T12415   5.518   1.239  10.214 -3.4825  0.7981  1.6328
  118OSM    C9S12416   5.615   1.353  10.053 -0.3683  0.0938 -0.4282
  118OSM    H9S12417   5.724   1.354  10.075 -0.4630 -0.3317  0.0817
  118OSM    H9T12418   5.595   1.453  10.008 -1.2598  0.3378  0.4909
  118OSM   C10S12419   5.595   1.242   9.954  0.0724  0.3234  0.7033
  118OSM   H10S12420   5.490   1.221   9.924  0.5426  1.3161 -1.7733
  118OSM   H10T12421   5.623   1.147  10.004 -0.6056 -1.6475 -2.4812
  118OSM   C11S12422   5.681   1.272   9.827 -0.1589  0.3098 -1.1224
  118OSM   H11S12423   5.789   1.256   9.846 -0.0998  0.3390 -1.4315
  118OSM   H11T12424   5.645   1.373   9.798  3.5018  1.1031 -3.1400
  118OSM   C12S12425   5.647   1.167   9.714  0.2501  0.0843  0.3756
  118OSM   H12S12426   5.540   1.140   9.702  0.7834 -1.5879 -0.7797
  118OSM   H12T12427   5.695   1.069   9.736  1.5501  0.6848  0.2954
  118OSM   C13S12428   5.707   1.209   9.585 -0.4563  0.0232  0.4908
  118OSM   H13S12429   5.817   1.204   9.595 -0.4752 -1.4496  0.0875
  118OSM   H13T12430   5.671   1.310   9.556 -1.0682 -0.3323  0.0069
  118OSM   C14S12431   5.676   1.111   9.469 -0.3259 -0.3098  0.2135
  118OSM   H14S12432   5.570   1.123   9.438 -0.0496  0.4372 -0.4472
  118OSM   H14T12433   5.692   1.009   9.509  2.1140 -0.3023 -0.7032
  118OSM   C15S12434   5.762   1.127   9.348  0.2769 -0.2902 -0.5557
  118OSM   H15S12435   5.867   1.147   9.380 -0.1515  2.7581 -0.9758
  118OSM   H15T12436   5.730   1.213   9.286 -2.4896  0.5049  1.8812
  118OSM   C16S12437   5.769   1.001   9.261  0.1369 -0.1849  0.6181
  118OSM   H16S12438   5.668   0.971   9.227 -0.4738  1.7109  0.7095
  118OSM   H16T12439   5.804   0.921   9.330  0.7856  0.3075  0.8695
  118OSM   C17S12440   5.867   1.007   9.137 -0.4750 -0.5359 -0.0054
  118OSM   H17S12441   5.844   1.104   9.088 -1.1723  0.2111  1.7614
  118OSM   H17T12442   5.837   0.925   9.068 -4.9591  0.9691 -0.0167
  118OSM   C18S12443   6.020   1.007   9.162 -0.3284  0.5847  0.3610
  118OSM   H18S12444   6.048   0.939   9.245 -0.6870 -0.7811 -0.6197
  118OSM   H18T12445   6.057   1.103   9.203  2.4316 -1.0650  1.9003
  118OSM   H18U12446   6.078   0.984   9.070  0.5333  1.9353  0.5471
  118OSM    C1F12447   6.034   1.450  10.489  0.1403 -0.3028 -1.0119
  118OSM     OF12448   6.053   1.357  10.566 -0.4338 -0.1541  0.2627
  118OSM    C2F12449   6.107   1.452  10.358  0.5474  0.2072 -0.5359
  118OSM    H2F12450   6.145   1.555  10.343 -0.6341  0.7400  0.0658
  118OSM    H2G12451   6.029   1.431  10.283  0.1500  0.0694 -0.0869
  118OSM    C3F12452   6.220   1.351  10.362  0.9124 -0.3481  0.3069
  118OSM    H3F12453   6.186   1.245  10.369 -1.7453  0.5391  1.4237
  118OSM    H3G12454   6.277   1.383  10.452 -0.7243  2.3545  0.4287
  118OSM    C4F12455   6.303   1.346  10.238  0.9515 -0.1442 -0.5082
  118OSM    H4F12456   6.381   1.271  10.263  1.5887  0.3081 -1.1479
  118OSM    H4G12457   6.363   1.436  10.216  0.6112  0.5624  1.3462
  118OSM    C5F12458   6.226   1.288  10.114 -0.1441 -0.2522  0.2153
  118OSM    H5F12459   6.122   1.326  10.104  0.1413  0.6161  0.5325
  118OSM    H5G12460   6.230   1.178  10.127  1.4431 -0.1970  0.2802
  118OSM    C6F12461   6.300   1.328   9.984  0.8700  0.1280 -0.4194
  118OSM    H6F12462   6.402   1.288  10.003  0.4833 -1.3938 -1.4591
  118OSM    H6G12463   6.302   1.439   9.975 -0.9400  0.1854 -0.4322
  118OSM    C7F12464   6.241   1.270   9.853  0.1395  0.4044  0.0052
  118OSM    H7F12465   6.155   1.335   9.822 -0.5508 -0.3984  0.2126
  118OSM    H7G12466   6.212   1.170   9.893 -1.5088  1.0358  0.4430
  118OSM    C8F12467   6.330   1.274   9.734  0.0433  0.0194  0.1272
  118OSM    H8F12468   6.437   1.266   9.762  1.1411  1.4591 -3.4052
  118OSM    H8G12469   6.314   1.374   9.688  0.2146 -0.2322 -0.4806
  118OSM    C9F12470   6.294   1.168   9.635  0.4978  0.5093  0.2218
  118OSM    H9F12471   6.240   1.089   9.689  0.8950 -1.1534 -1.7157
  118OSM   C10F12472   6.304   1.166   9.499 -0.2640  0.0946  0.4328
  118OSM   H10F12473   6.266   1.081   9.440  0.3976 -0.5262  0.8894
  118OSM   C11F12474   6.378   1.267   9.417  0.7368  0.3920  0.2446
  118OSM   H11F12475   6.378   1.365   9.469 -1.5749 -0.3631  1.7470
  118OSM   H11G12476   6.300   1.297   9.343  0.3459  1.8918  1.2434
  118OSM   C12F12477   6.520   1.223   9.382 -0.2897  0.3545 -0.6499
  118OSM   H12F12478   6.523   1.115   9.353 -2.3825 -0.1969  1.0671
  118OSM   H12G12479   6.582   1.222   9.474  1.8143  1.3113 -2.0263
  118OSM   C13F12480   6.572   1.313   9.272  0.2954 -0.4289  0.0959
  118OSM   H13F12481   6.681   1.292   9.262 -0.0296 -1.3192 -1.9703
  118OSM   H13G12482   6.552   1.421   9.286 -0.0460 -0.3905 -0.6629
  118OSM   C14F12483   6.508   1.279   9.136 -0.7232 -0.4436  0.6351
  118OSM   H14F12484   6.397   1.279   9.142 -0.6466  1.0638  2.5735
  118OSM   H14G12485   6.536   1.180   9.093 -2.6048 -0.9090  0.4107
  118OSM   C15F12486   6.556   1.376   9.026 -0.3729 -0.4362 -0.1898
  118OSM   H15F12487   6.536   1.329   8.928  1.7290 -1.4024 -0.1932
  118OSM   H15G12488   6.666   1.387   9.036 -0.6288  2.7291 -0.2088
  118OSM   C16F12489   6.497   1.516   9.032 -0.2901  0.6281  0.3728
  118OSM   H16F12490   6.554   1.580   8.961 -1.0748 -0.0344 -0.8718
  118OSM   H16G12491   6.512   1.557   9.134  2.1624 -0.8732  0.6807
  118OSM   C17F12492   6.352   1.526   8.984  0.4712 -0.1745 -0.0688
  118OSM   H17F12493   6.322   1.629   9.010  3.7995  1.3910 -2.0678
  118OSM   H17G12494   6.287   1.454   9.039 -0.0124 -1.1304 -1.8540
  118OSM   C18F12495   6.332   1.500   8.839  0.2426  0.0323  0.3488
  118OSM   H18F12496   6.348   1.395   8.806 -0.9347  0.4312 -1.5285
  118OSM   H18G12497   6.412   1.550   8.781 -0.1033  0.5893  0.3537
  118OSM   H18H12498   6.236   1.525   8.790  0.7298  0.4139 -0.4134
  119OSM      N12499   6.115   0.841  11.284 -1.0906  0.9026 -0.6962
  119OSM    C1512500   5.960   0.860  11.280  0.5060 -0.9242 -0.8303
  119OSM   H15A12501   5.926   0.940  11.215  1.2436 -0.1811 -0.3225
  119OSM   H15B12502   5.918   0.882  11.377 -0.0893 -1.8267 -0.8831
  119OSM   H15C12503   5.923   0.764  11.248 -1.7771 -0.2726 -0.1915
  119OSM    C1412504   6.160   0.968  11.349  0.8133 -0.2893 -0.5848
  119OSM   H14A12505   6.139   1.051  11.282  1.4710  1.2333  1.0618
  119OSM   H14B12506   6.266   0.960  11.370 -0.0350 -1.5122  3.6497
  119OSM   H14C12507   6.107   0.979  11.442  0.9891 -1.5095 -0.3399
  119OSM    C1312508   6.158   0.713  11.361 -0.4196  0.4798 -0.3348
  119OSM   H13A12509   6.264   0.699  11.377 -0.5934  0.3178  0.7115
  119OSM   H13B12510   6.111   0.628  11.316  0.6964  0.6629 -1.8993
  119OSM   H13C12511   6.122   0.727  11.462 -0.3970 -2.8570  0.1696
  119OSM    C1212512   6.158   0.830  11.140 -0.4234  0.0462  0.2859
  119OSM   H12A12513   6.265   0.837  11.139 -0.4380  0.1874 -0.4546
  119OSM   H12B12514   6.110   0.909  11.084  0.5073  1.4825  1.4801
  119OSM    C1112515   6.129   0.700  11.062  0.1947 -0.0186 -0.3024
  119OSM   H11A12516   6.148   0.723  10.955  0.4929  0.4147 -0.1569
  119OSM   H11B12517   6.019   0.688  11.070  0.3078 -0.8915 -0.0322
  119OSM      P12518   6.348   0.549  11.091 -0.1928  0.0926  0.2983
  119OSM    O1312519   6.431   0.661  11.137 -0.3984 -0.3807  0.6955
  119OSM    O1412520   6.368   0.411  11.146  0.5416  0.1481 -0.7556
  119OSM    O1112521   6.375   0.537  10.942  0.5660 -0.2265 -0.0708
  119OSM    O1212522   6.192   0.581  11.104 -0.3678  0.1635  0.2581
  119OSM    C1S12523   6.315   0.438  10.859  0.5360 -0.5870 -0.4806
  119OSM    H1S12524   6.204   0.451  10.861  0.7004  0.8121  0.0336
  119OSM    H1T12525   6.338   0.340  10.906  1.8723 -0.1449 -0.2141
  119OSM     NF12526   6.309   0.328  10.646  0.0952 -0.1256 -0.3358
  119OSM    HNF12527   6.363   0.248  10.626 -1.0763 -1.1421  0.4724
  119OSM    C2S12528   6.370   0.441  10.718  0.5698  0.6237  0.5636
  119OSM    H2S12529   6.337   0.538  10.674  1.3849  1.5716  2.0194
  119OSM    C3S12530   6.519   0.428  10.700 -0.7266  0.0832  0.5604
  119OSM    H3S12531   6.552   0.323  10.714  1.7918  0.8432  0.4940
  119OSM     O312532   6.595   0.492  10.806  0.4612 -0.3316 -0.3418
  119OSM    HO312533   6.538   0.492  10.883  1.9547  0.7302  0.7866
  119OSM    C4S12534   6.554   0.462  10.556 -0.1763 -0.5731 -0.3387
  119OSM    H4S12535   6.557   0.373  10.492 -1.1492  0.2150 -1.5044
  119OSM    C5S12536   6.595   0.587  10.517 -0.3761 -0.1451  0.0057
  119OSM    H5S12537   6.589   0.672  10.586  2.1330  0.4961 -0.5195
  119OSM    C6S12538   6.651   0.630  10.384 -0.7010 -0.3658  0.9082
  119OSM    H6S12539   6.757   0.654  10.408 -0.8511  1.0672  0.1336
  119OSM    H6T12540   6.607   0.728  10.358 -0.1907 -0.0552  1.1990
  119OSM    C7S12541   6.640   0.535  10.270  0.2331  0.3875  0.8349
  119OSM    H7S12542   6.532   0.540  10.245 -0.0573  2.2146  2.3394
  119OSM    H7T12543   6.660   0.429  10.296 -2.1100 -0.2529  0.1601
  119OSM    C8S12544   6.715   0.570  10.142 -0.0250  0.2759 -0.2523
  119OSM    H8S12545   6.821   0.560  10.176 -0.3524 -0.8892  0.4307
  119OSM    H8T12546   6.708   0.675  10.105 -1.6823  1.0832  2.2520
  119OSM    C9S12547   6.703   0.466  10.029  0.3841 -0.2549 -0.2800
  119OSM    H9S12548   6.597   0.465   9.994 -0.2870  3.7758  1.3500
  119OSM    H9T12549   6.732   0.363  10.059  2.1233 -0.0411 -1.1650
  119OSM   C10S12550   6.785   0.511   9.911  1.3554  0.9492  0.2929
  119OSM   H10S12551   6.887   0.533   9.948  1.4372 -1.4489  1.5738
  119OSM   H10T12552   6.754   0.606   9.863 -0.1045  1.6092  2.4799
  119OSM   C11S12553   6.774   0.395   9.816  0.6927  0.0736 -0.0518
  119OSM   H11S12554   6.677   0.343   9.825  1.4077 -0.9482  1.9326
  119OSM   H11T12555   6.851   0.319   9.842 -0.5816 -0.1088  3.3695
  119OSM   C12S12556   6.807   0.434   9.668  0.1069 -0.0303 -0.6602
  119OSM   H12S12557   6.917   0.435   9.656  0.1293  0.8472 -0.4161
  119OSM   H12T12558   6.778   0.539   9.644 -1.8707  0.1449  2.2979
  119OSM   C13S12559   6.752   0.332   9.562  0.1513 -0.1501 -0.3040
  119OSM   H13S12560   6.643   0.311   9.570  0.7713 -3.0478  1.6472
  119OSM   H13T12561   6.797   0.231   9.576  0.5679  0.2518  1.2862
  119OSM   C14S12562   6.773   0.379   9.419  0.4497  0.1068  0.2545
  119OSM   H14S12563   6.864   0.442   9.412  0.7907 -0.0952  2.4673
  119OSM   H14T12564   6.691   0.443   9.380 -0.1260  0.1139  1.4564
  119OSM   C15S12565   6.779   0.264   9.319  0.1412 -0.1754  0.5825
  119OSM   H15S12566   6.687   0.203   9.334 -0.9430  0.6104 -2.3129
  119OSM   H15T12567   6.860   0.197   9.354 -0.2390 -0.5875  0.6761
  119OSM   C16S12568   6.796   0.310   9.176 -0.6494 -0.3573 -0.2987
  119OSM   H16S12569   6.899   0.334   9.144 -0.4876  1.4482  1.5026
  119OSM   H16T12570   6.732   0.399   9.154  0.8902  0.8376  0.0088
  119OSM   C17S12571   6.734   0.207   9.078 -0.8417  0.3884  0.0342
  119OSM   H17S12572   6.628   0.187   9.106 -0.0515  0.6485  3.4760
  119OSM   H17T12573   6.777   0.106   9.096 -1.7204 -0.1927 -1.0787
  119OSM   C18S12574   6.767   0.242   8.933 -0.5799  0.2501  0.2963
  119OSM   H18S12575   6.743   0.163   8.858 -2.0562 -0.6403  1.6632
  119OSM   H18T12576   6.876   0.260   8.928 -0.3108 -1.7968 -1.9619
  119OSM   H18U12577   6.726   0.343   8.911  1.0509  1.2166  1.6444
  119OSM    C1F12578   6.179   0.309  10.631  0.2951  0.7592  0.3380
  119OSM     OF12579   6.091   0.392  10.651 -0.7661  0.0074  0.6630
  119OSM    C2F12580   6.140   0.173  10.596  0.3097 -0.6428 -0.0287
  119OSM    H2F12581   6.062   0.149  10.671  0.3834  2.4391  1.0792
  119OSM    H2G12582   6.228   0.104  10.594  1.3155  0.6367 -1.4634
  119OSM    C3F12583   6.070   0.156  10.457  0.1323  0.1827 -0.2252
  119OSM    H3F12584   5.967   0.196  10.463  0.3381  0.4679  1.6127
  119OSM    H3G12585   6.057   0.046  10.449  1.5140 -0.0556  0.6950
  119OSM    C4F12586   6.130   0.214  10.326 -0.6521  1.0011  0.3985
  119OSM    H4F12587   6.188   0.307  10.347  0.9775 -0.1953  1.4193
  119OSM    H4G12588   6.049   0.245  10.257  0.0353 -0.0977 -0.9116
  119OSM    C5F12589   6.215   0.104  10.254  0.3922 -0.2796 -0.5214
  119OSM    H5F12590   6.163   0.005  10.249 -1.2749  0.5545  0.0022
  119OSM    H5G12591   6.310   0.098  10.310 -0.8023 -0.4098  1.5224
  119OSM    C6F12592   6.248   0.151  10.110  0.2612  0.2699  0.7398
  119OSM    H6F12593   6.320   0.236  10.113 -0.9567  1.3000  1.4137
  119OSM    H6G12594   6.164   0.192  10.050  0.7319 -1.1096 -0.8764
  119OSM    C7F12595   6.308   0.033  10.031  0.5343 -0.4706 -0.7074
  119OSM    H7F12596   6.248  -0.053  10.068 -2.6044 -0.1427 -4.7187
  119OSM    H7G12597   6.413   0.022  10.068  1.4256  0.1703 -2.9570
  119OSM    C8F12598   6.302   0.058   9.882 -0.4765  0.4511  0.2163
  119OSM    H8F12599   6.196   0.078   9.855  0.5975  2.2746 -3.0167
  119OSM    H8G12600   6.333  -0.036   9.832  2.3288  0.3660  2.0385
  119OSM    C9F12601   6.396   0.174   9.863  0.6779 -0.2499 -0.1309
  119OSM    H9F12602   6.500   0.154   9.890  1.0112  0.5185 -0.8213
  119OSM   C10F12603   6.363   0.296   9.833  0.1371  1.4310 -0.0457
  119OSM   H10F12604   6.448   0.364   9.815  0.9883 -0.0067 -1.5648
  119OSM   C11F12605   6.222   0.340   9.801  0.3605 -0.0679 -0.4398
  119OSM   H11F12606   6.189   0.396   9.891  2.1049 -0.6586  0.5749
  119OSM   H11G12607   6.155   0.252   9.787 -0.6121  0.2815  1.8851
  119OSM   C12F12608   6.207   0.437   9.687 -0.2878  0.3564 -0.8932
  119OSM   H12F12609   6.283   0.515   9.711  0.5816 -0.5696 -0.6372
  119OSM   H12G12610   6.100   0.467   9.696 -0.5981 -1.2007  0.8533
  119OSM   C13F12611   6.248   0.408   9.546  0.4305  0.1040 -0.1630
  119OSM   H13F12612   6.353   0.374   9.539 -0.4143 -2.2899 -1.7915
  119OSM   H13G12613   6.231   0.504   9.492 -2.2746 -1.8946 -3.1020
  119OSM   C14F12614   6.169   0.298   9.477  0.1372 -0.3061  0.3923
  119OSM   H14F12615   6.067   0.301   9.521 -0.5298  0.7388 -1.1717
  119OSM   H14G12616   6.205   0.198   9.508 -0.3780 -0.6417 -0.0845
  119OSM   C15F12617   6.184   0.297   9.321  0.2109  0.0319 -0.3892
  119OSM   H15F12618   6.146   0.399   9.299  0.0670 -0.2166 -1.2853
  119OSM   H15G12619   6.115   0.220   9.282 -0.5835  0.4952  0.1022
  119OSM   C16F12620   6.327   0.280   9.270 -0.0113 -0.5755  0.5886
  119OSM   H16F12621   6.370   0.196   9.328  0.0818 -0.0362  1.3178
  119OSM   H16G12622   6.382   0.373   9.297 -0.1554 -0.2580 -0.1878
  119OSM   C17F12623   6.350   0.273   9.119  0.5234 -0.2051  0.3759
  119OSM   H17F12624   6.456   0.298   9.098  0.9332  0.0409  2.5872
  119OSM   H17G12625   6.290   0.350   9.067 -2.1926 -2.2459  0.3480
  119OSM   C18F12626   6.325   0.136   9.060  0.8561  0.1489 -0.3516
  119OSM   H18F12627   6.334   0.148   8.950 -1.5295 -0.2448 -0.6154
  119OSM   H18G12628   6.226   0.091   9.083  0.9642  0.3290  0.5032
  119OSM   H18H12629   6.408   0.074   9.101 -0.3406 -1.0498  0.3269
  120OSM      N12630   5.752   3.945  11.191 -0.3460 -0.5152  0.4692
  120OSM    C1512631   5.778   3.989  11.334 -0.3257  0.1941  0.4222
  120OSM   H15A12632   5.802   4.094  11.338  2.1574 -0.3981  2.3383
  120OSM   H15B12633   5.855   3.931  11.382 -0.4048 -0.1727  0.1064
  120OSM   H15C12634   5.691   3.981  11.397 -0.3895  1.9760  0.5852
  120OSM    C1412635   5.879   3.969  11.122 -0.5132 -0.2134 -0.0230
  120OSM   H14A12636   5.958   3.905  11.159 -0.7765 -0.6363 -0.1972
  120OSM   H14B12637   5.922   4.066  11.145 -2.1304  0.5934 -0.3187
  120OSM   H14C12638   5.863   3.945  11.018  0.0273 -1.5404  0.1839
  120OSM    C1312639   5.708   3.797  11.182  0.6106 -0.2205  0.1319
  120OSM   H13A12640   5.788   3.732  11.212  0.3020 -0.9576 -0.6169
  120OSM   H13B12641   5.687   3.761  11.082 -1.2742  0.3770  0.2804
  120OSM   H13C12642   5.630   3.779  11.255 -0.0632  1.7251 -0.0733
  120OSM    C1212643   5.645   4.042  11.137  0.1443  0.0884  0.3307
  120OSM   H12A12644   5.682   4.143  11.150 -1.4013  0.6980  0.1655
  120OSM   H12B12645   5.566   4.045  11.211 -0.5299 -1.1067 -0.3277
  120OSM    C1112646   5.595   4.026  10.995 -0.8395 -0.2285  0.4996
  120OSM   H11A12647   5.511   4.098  10.983 -0.7861 -0.2021  0.2829
  120OSM   H11B12648   5.546   3.927  10.981 -4.1050  1.0371  2.3286
  120OSM      P12649   5.752   4.180  10.857  0.0562 -0.2133 -0.4830
  120OSM    O1312650   5.693   4.285  10.939  0.0163 -0.7723 -0.1816
  120OSM    O1412651   5.900   4.177  10.841  0.3654 -0.4479 -0.0267
  120OSM    O1112652   5.689   4.202  10.714 -0.1473  0.2545 -0.0735
  120OSM    O1212653   5.692   4.040  10.891  0.0895  0.3182  0.2931
  120OSM    C1S12654   5.680   4.323  10.641 -0.3274  0.2909 -0.4236
  120OSM    H1S12655   5.751   4.404  10.670 -1.1196  0.6245  0.6076
  120OSM    H1T12656   5.576   4.357  10.659  0.6216  1.9440  2.3678
  120OSM     NF12657   5.719   4.400  10.418  0.0629 -0.0392 -0.2919
  120OSM    HNF12658   5.650   4.430  10.352 -0.5282 -0.8495 -0.0357
  120OSM    C2S12659   5.703   4.280  10.496 -0.0694 -0.2779 -0.0393
  120OSM    H2S12660   5.796   4.219  10.501  0.2485  0.3878  2.4431
  120OSM    C3S12661   5.590   4.193  10.442 -0.0769  1.0294 -0.6131
  120OSM    H3S12662   5.493   4.246  10.455 -0.2992 -0.0203  2.2187
  120OSM     O312663   5.567   4.064  10.513 -0.6866  0.4289 -0.0679
  120OSM    HO312664   5.608   4.096  10.593 -1.0620 -2.3210  1.2837
  120OSM    C4S12665   5.607   4.165  10.292  0.0776  0.0915  0.2557
  120OSM    H4S12666   5.558   4.240  10.228 -3.1543 -2.2099 -0.0894
  120OSM    C5S12667   5.659   4.057  10.234 -0.0929  0.6581  0.0613
  120OSM    H5S12668   5.705   3.983  10.301  2.7407  0.7668 -1.6565
  120OSM    C6S12669   5.662   4.024  10.083 -0.3934  1.0049 -0.1970
  120OSM    H6S12670   5.613   3.930  10.050 -0.1197  0.9870 -0.5608
  120OSM    H6T12671   5.768   4.014  10.051 -0.2967 -0.8099  0.6353
  120OSM    C7S12672   5.615   4.146  10.002  0.1471 -0.0225  1.0759
  120OSM    H7S12673   5.685   4.228  10.028 -0.1913  0.8669 -0.7116
  120OSM    H7T12674   5.513   4.178  10.032 -0.2618 -0.4372  0.1326
  120OSM    C8S12675   5.610   4.120   9.853 -0.0888 -0.2476 -0.4442
  120OSM    H8S12676   5.535   4.039   9.837  0.8485 -1.2894  0.3501
  120OSM    H8T12677   5.708   4.080   9.822  0.7517 -0.4004  2.2769
  120OSM    C9S12678   5.577   4.253   9.776 -0.8260  0.5529 -0.1729
  120OSM    H9S12679   5.638   4.329   9.828 -0.5530  0.1271  0.1321
  120OSM    H9T12680   5.474   4.286   9.804 -1.3284  0.8834 -2.3098
  120OSM   C10S12681   5.603   4.251   9.623 -0.3856  0.5166  0.1091
  120OSM   H10S12682   5.705   4.214   9.597 -0.8417 -0.6482 -0.0277
  120OSM   H10T12683   5.604   4.355   9.585 -2.5653  0.9324  1.1237
  120OSM   C11S12684   5.492   4.167   9.549 -0.2273 -0.3223  0.1130
  120OSM   H11S12685   5.387   4.195   9.574 -0.3934 -2.2155  1.6227
  120OSM   H11T12686   5.509   4.062   9.578 -1.0156 -0.6677 -0.6612
  120OSM   C12S12687   5.510   4.189   9.402 -0.6262  0.3266  0.0106
  120OSM   H12S12688   5.609   4.146   9.376 -2.0627 -2.0561 -1.7929
  120OSM   H12T12689   5.490   4.294   9.372 -0.9215  0.2916  0.0859
  120OSM   C13S12690   5.419   4.105   9.313 -0.3672 -0.4715  0.1714
  120OSM   H13S12691   5.318   4.148   9.332 -0.2348 -0.7460  1.5615
  120OSM   H13T12692   5.422   4.004   9.358  2.3245 -1.1134 -1.3958
  120OSM   C14S12693   5.451   4.131   9.174  0.1468 -0.4236 -0.2894
  120OSM   H14S12694   5.556   4.098   9.159  0.2193 -0.4362  0.2432
  120OSM   H14T12695   5.444   4.237   9.143 -3.0513 -0.8356 -1.2066
  120OSM   C15S12696   5.369   4.041   9.076 -0.4997 -0.3693  0.0811
  120OSM   H15S12697   5.264   4.046   9.109 -1.0028 -0.8790 -1.3770
  120OSM   H15T12698   5.396   3.933   9.084  1.3296  0.1713  1.4971
  120OSM   C16S12699   5.377   4.077   8.924 -1.0055 -0.5447 -0.0655
  120OSM   H16S12700   5.293   4.021   8.878  0.0583 -0.9147 -1.5953
  120OSM   H16T12701   5.479   4.048   8.892 -0.0110  0.5385  1.9915
  120OSM   C17S12702   5.354   4.225   8.888  0.3980  0.0851 -0.1995
  120OSM   H17S12703   5.439   4.294   8.903 -0.3012  1.4271 -2.0961
  120OSM   H17T12704   5.266   4.268   8.941  0.4649  0.1619 -0.1499
  120OSM   C18S12705   5.330   4.238   8.738  0.2321  0.0964 -0.2632
  120OSM   H18S12706   5.412   4.185   8.686  1.0336  1.0714 -0.0046
  120OSM   H18T12707   5.334   4.344   8.706 -0.1518  0.4716  0.8915
  120OSM   H18U12708   5.238   4.193   8.696 -0.2455  1.2684 -0.4994
  120OSM    C1F12709   5.831   4.475  10.419 -0.3525  1.0309 -0.2596
  120OSM     OF12710   5.929   4.433  10.483 -0.1942 -0.0877 -0.0856
  120OSM    C2F12711   5.826   4.601  10.331  0.1818 -0.1167 -0.3386
  120OSM    H2F12712   5.852   4.683  10.400  0.1479 -1.0605  0.8136
  120OSM    H2G12713   5.724   4.618  10.292  0.7593  2.0057 -0.9579
  120OSM    C3F12714   5.917   4.603  10.214 -0.4656 -0.0062 -0.1635
  120OSM    H3F12715   6.023   4.612  10.244 -0.2459 -2.1149 -0.1723
  120OSM    H3G12716   5.898   4.686  10.143  2.8335 -0.5947 -1.8143
  120OSM    C4F12717   5.922   4.468  10.136 -0.0394 -0.4883 -0.1458
  120OSM    H4F12718   5.814   4.451  10.114 -0.5182  0.8816  1.0338
  120OSM    H4G12719   5.952   4.386  10.204  0.9687 -0.6602 -0.8016
  120OSM    C5F12720   6.010   4.479  10.019 -0.0008 -0.2716 -0.0314
  120OSM    H5F12721   6.109   4.515  10.053  0.0811 -1.9399  1.6029
  120OSM    H5G12722   5.982   4.551   9.939 -0.3283 -1.0881 -0.6661
  120OSM    C6F12723   6.042   4.342   9.955  0.0779  0.5692 -0.3785
  120OSM    H6F12724   5.948   4.308   9.907 -1.3245  1.0511  1.9525
  120OSM    H6G12725   6.070   4.271  10.035  0.9972  2.7349  1.2732
  120OSM    C7F12726   6.163   4.335   9.864  0.2315 -0.8010 -0.3130
  120OSM    H7F12727   6.225   4.244   9.880  0.2547 -1.0073 -1.5177
  120OSM    H7G12728   6.232   4.420   9.885 -2.3528  0.8354  1.7787
  120OSM    C8F12729   6.118   4.332   9.708  0.3047  0.0978 -0.2377
  120OSM    H8F12730   6.080   4.435   9.692  0.6200  0.8238  3.3765
  120OSM    H8G12731   6.028   4.268   9.699  0.4780 -0.1872  0.0401
  120OSM    C9F12732   6.223   4.296   9.611  0.2755 -0.3866 -0.0942
  120OSM    H9F12733   6.322   4.340   9.631  1.4252 -2.1451 -1.8516
  120OSM   C10F12734   6.205   4.211   9.506  0.2149  0.2327 -0.6019
  120OSM   H10F12735   6.286   4.200   9.433  0.0915  2.8662 -1.1870
  120OSM   C11F12736   6.085   4.129   9.456  0.6758  0.3626 -0.1439
  120OSM   H11F12737   6.000   4.167   9.516  0.3618  0.7170 -0.8055
  120OSM   H11G12738   6.095   4.025   9.493  0.8766  1.2919  2.5012
  120OSM   C12F12739   6.039   4.126   9.308  0.0253  0.0150 -1.0996
  120OSM   H12F12740   6.123   4.083   9.250 -1.4418 -2.4939 -1.4206
  120OSM   H12G12741   6.032   4.228   9.263  2.9991 -0.1038 -1.9227
  120OSM   C13F12742   5.911   4.034   9.293  0.1015 -0.0995  0.1144
  120OSM   H13F12743   5.812   4.080   9.315  0.5157  0.5328  0.6903
  120OSM   H13G12744   5.906   3.950   9.366  3.5437 -2.0035 -1.6962
  120OSM   C14F12745   5.889   3.978   9.153 -0.1470  0.5778 -0.0972
  120OSM   H14F12746   5.802   3.909   9.143  1.0982 -1.2239  1.2620
  120OSM   H14G12747   5.965   3.913   9.104  1.6865  1.9517  0.8647
  120OSM   C15F12748   5.860   4.090   9.052 -0.4114 -0.5519  0.1159
  120OSM   H15F12749   5.958   4.132   9.019 -1.1960  2.0232  0.9091
  120OSM   H15G12750   5.806   4.170   9.107  1.2429 -1.9553  3.9122
  120OSM   C16F12751   5.769   4.038   8.937  0.4743  0.3221 -0.3727
  120OSM   H16F12752   5.673   4.008   8.984  2.0745 -1.8536  1.7066
  120OSM   H16G12753   5.821   3.954   8.886 -0.8735 -0.8032  0.0775
  120OSM   C17F12754   5.757   4.151   8.827  0.2563  0.5568 -0.5353
  120OSM   H17F12755   5.740   4.251   8.872 -1.6031 -0.0886  0.2206
  120OSM   H17G12756   5.670   4.133   8.761 -0.9509  0.9494  0.9236
  120OSM   C18F12757   5.893   4.171   8.757 -1.1050 -0.1961 -0.0384
  120OSM   H18F12758   5.972   4.194   8.832  0.8147  1.7218 -2.5675
  120OSM   H18G12759   5.885   4.251   8.681  2.5214 -0.0864 -0.4231
  120OSM   H18H12760   5.915   4.075   8.704 -1.4416  0.5460 -1.5245
  121OSM      N12761   4.360   0.839  10.856 -0.3034 -0.6459 -0.2268
  121OSM    C1512762   4.338   0.988  10.867 -0.4108 -0.5874 -0.3335
  121OSM   H15A12763   4.237   0.999  10.904 -0.5604  2.2783 -1.5201
  121OSM   H15B12764   4.337   1.029  10.767  1.0083 -0.8275 -0.4551
  121OSM   H15C12765   4.394   1.044  10.940 -1.5923  0.0533  0.0854
  121OSM    C1412766   4.360   0.775  10.994  0.0155 -0.0414 -0.4961
  121OSM   H14A12767   4.402   0.676  10.979  0.6147  0.3358 -1.3475
  121OSM   H14B12768   4.260   0.776  11.034  0.4089  0.7860  0.4841
  121OSM   H14C12769   4.423   0.828  11.063  0.2843 -1.5866  0.4651
  121OSM    C1312770   4.269   0.757  10.773 -0.0006  0.0239 -0.2935
  121OSM   H13A12771   4.313   0.661  10.753 -0.5084 -0.4504  0.8814
  121OSM   H13B12772   4.247   0.791  10.673 -1.0290  1.4040  0.3785
  121OSM   H13C12773   4.177   0.755  10.828 -0.6182  0.5192 -1.2872
  121OSM    C1212774   4.496   0.824  10.791 -0.2305  0.5718  0.6849
  121OSM   H12A12775   4.570   0.885  10.841  0.7197 -0.4765  0.5752
  121OSM   H12B12776   4.490   0.866  10.692  0.1757  0.5366  0.6440
  121OSM    C1112777   4.560   0.686  10.774 -0.1140 -0.2322 -0.9502
  121OSM   H11A12778   4.646   0.694  10.704  1.1723 -1.4915  0.4415
  121OSM   H11B12779   4.493   0.627  10.707 -0.7656 -0.4715 -0.1005
  121OSM      P12780   4.736   0.685  10.976 -0.1998 -0.2674  0.0109
  121OSM    O1312781   4.721   0.828  11.014  0.3671  0.3425  0.3167
  121OSM    O1412782   4.771   0.593  11.084 -0.7922  0.3106  0.1793
  121OSM    O1112783   4.844   0.674  10.859  0.1848 -0.0899 -0.5132
  121OSM    O1212784   4.600   0.635  10.904 -0.4783 -0.2417  0.7238
  121OSM    C1S12785   4.885   0.553  10.808 -0.0792 -0.0572 -0.3534
  121OSM    H1S12786   4.799   0.495  10.768  0.7774 -0.9543 -0.9011
  121OSM    H1T12787   4.928   0.488  10.888 -0.9102 -2.2358 -1.6370
  121OSM     NF12788   5.006   0.446  10.627 -0.5151 -0.8040  0.1074
  121OSM    HNF12789   5.069   0.373  10.653  0.2434 -0.4692 -0.7376
  121OSM    C2S12790   4.991   0.576  10.695  0.2310  0.0682  0.4221
  121OSM    H2S12791   4.954   0.648  10.618  1.7669 -0.1788 -0.5539
  121OSM    C3S12792   5.126   0.637  10.745 -0.3655 -0.2500 -0.3190
  121OSM    H3S12793   5.171   0.568  10.820 -0.8382  1.0157  1.1651
  121OSM     O312794   5.110   0.753  10.823 -0.2779  0.7275 -0.7704
  121OSM    HO312795   5.014   0.754  10.825 -0.3820 -3.0547  0.6952
  121OSM    C4S12796   5.210   0.663  10.631 -0.5770  0.1477  0.5760
  121OSM    H4S12797   5.175   0.745  10.567  0.5512 -1.1062 -1.6895
  121OSM    C5S12798   5.328   0.595  10.608 -0.2403 -0.4225 -1.0582
  121OSM    H5S12799   5.363   0.512  10.670 -0.6008 -0.1321 -0.4550
  121OSM    C6S12800   5.417   0.629  10.496  0.5519 -0.7998  0.3690
  121OSM    H6S12801   5.459   0.533  10.459 -0.9820 -0.5279 -2.1593
  121OSM    H6T12802   5.496   0.687  10.548  1.0397  0.0984 -1.3165
  121OSM    C7S12803   5.358   0.718  10.391  0.1132  0.9737  0.3261
  121OSM    H7S12804   5.344   0.823  10.424 -1.4173  1.0865 -0.6438
  121OSM    H7T12805   5.260   0.685  10.351  0.8612  1.1270 -1.7299
  121OSM    C8S12806   5.450   0.708  10.269 -0.4447  0.3810 -0.4990
  121OSM    H8S12807   5.497   0.609  10.254 -0.4410  0.3512 -0.2865
  121OSM    H8T12808   5.544   0.767  10.279 -0.8749  1.1273 -0.7930
  121OSM    C9S12809   5.388   0.782  10.142  0.4229 -0.6321 -0.2154
  121OSM    H9S12810   5.377   0.886  10.179  1.5318 -1.2393  1.8789
  121OSM    H9T12811   5.290   0.735  10.117  0.0603  0.7456 -1.4367
  121OSM   C10S12812   5.474   0.770  10.018  0.2063 -0.1326 -0.2081
  121OSM   H10S12813   5.488   0.663   9.990  0.4292 -0.0373 -0.4650
  121OSM   H10T12814   5.575   0.809  10.044 -0.0226  0.9395 -0.8806
  121OSM   C11S12815   5.431   0.845   9.894 -1.0843 -0.6364 -0.1340
  121OSM   H11S12816   5.457   0.952   9.909 -1.8706 -0.4828  0.1141
  121OSM   H11T12817   5.321   0.843   9.878 -0.8469  0.2884 -2.0791
  121OSM   C12S12818   5.499   0.790   9.777 -0.8945  0.2079  0.0218
  121OSM   H12S12819   5.507   0.680   9.782 -0.3905  0.1533 -1.6178
  121OSM   H12T12820   5.601   0.834   9.787 -0.4766 -0.8070  0.2463
  121OSM   C13S12821   5.432   0.839   9.650 -0.8548  0.1948 -0.1054
  121OSM   H13S12822   5.469   0.941   9.627 -2.6794  0.1497 -3.5016
  121OSM   H13T12823   5.322   0.845   9.659 -1.1200  0.2233 -2.8944
  121OSM   C14S12824   5.480   0.758   9.528 -0.1352 -0.0228  0.1431
  121OSM   H14S12825   5.429   0.659   9.523  0.3627 -0.2054 -1.8624
  121OSM   H14T12826   5.590   0.744   9.534 -0.4711 -2.6225  0.6962
  121OSM   C15S12827   5.455   0.825   9.391  0.3947  0.1433 -0.1227
  121OSM   H15S12828   5.508   0.922   9.402  0.9183 -0.3187  1.6994
  121OSM   H15T12829   5.347   0.849   9.390  0.2342 -0.2819  2.6086
  121OSM   C16S12830   5.493   0.741   9.267 -0.2002  0.4189  0.3383
  121OSM   H16S12831   5.461   0.635   9.280  2.0432 -0.3627 -0.2376
  121OSM   H16T12832   5.603   0.732   9.252 -0.1583 -1.0865  1.4290
  121OSM   C17S12833   5.456   0.801   9.128  0.4929  0.3619  0.9364
  121OSM   H17S12834   5.491   0.901   9.095 -0.0078 -0.3416 -1.8738
  121OSM   H17T12835   5.346   0.805   9.117  0.4526 -1.9877 -0.0167
  121OSM   C18S12836   5.482   0.696   9.015 -0.0322  0.0251 -0.2329
  121OSM   H18S12837   5.463   0.735   8.912 -0.4233  1.7742  0.4859
  121OSM   H18T12838   5.409   0.613   9.028 -1.1671  0.9770 -0.4361
  121OSM   H18U12839   5.586   0.664   9.036  0.1417  1.4874  1.1818
  121OSM    C1F12840   4.910   0.413  10.545 -0.0266 -0.0690  0.6176
  121OSM     OF12841   4.834   0.504  10.508  0.1245  0.6129 -0.1757
  121OSM    C2F12842   4.885   0.265  10.534  0.9052  0.0191 -0.4314
  121OSM    H2F12843   4.786   0.239  10.576  1.3912 -0.9568  0.1393
  121OSM    H2G12844   4.955   0.204  10.596 -1.0987 -0.6635  1.2331
  121OSM    C3F12845   4.890   0.212  10.385  0.1250  0.0197  0.3432
  121OSM    H3F12846   4.988   0.220  10.332  0.1155 -1.3352  0.1181
  121OSM    H3G12847   4.816   0.265  10.321  0.2101  1.0473  1.0779
  121OSM    C4F12848   4.847   0.062  10.384 -0.5313  0.3625  0.3250
  121OSM    H4F12849   4.738   0.058  10.403 -0.6311  1.1724 -0.0416
  121OSM    H4G12850   4.899   0.027  10.475  1.4444  1.9679 -0.1473
  121OSM    C5F12851   4.896  -0.023  10.262 -0.3257  0.1015  0.2644
  121OSM    H5F12852   4.854  -0.125  10.279  1.8954 -0.8266  0.3126
  121OSM    H5G12853   5.007  -0.021  10.259 -0.3393 -0.6283 -0.8196
  121OSM    C6F12854   4.853   0.027  10.124 -0.1493 -0.7047 -0.3759
  121OSM    H6F12855   4.875   0.135  10.115  0.6780 -1.0027 -2.2994
  121OSM    H6G12856   4.745   0.007  10.107 -0.2684 -1.6601  1.4415
  121OSM    C7F12857   4.936  -0.047  10.013  0.3200  0.1779 -0.2488
  121OSM    H7F12858   4.941  -0.156  10.033 -2.9191  0.1880  0.8753
  121OSM    H7G12859   5.041  -0.010  10.021  0.3757 -0.3088  1.5398
  121OSM    C8F12860   4.883  -0.038   9.867 -0.3086  0.5243  0.2304
  121OSM    H8F12861   4.773  -0.028   9.861 -0.1528  2.6419  0.5506
  121OSM    H8G12862   4.906  -0.132   9.811  1.4506  0.4088  1.0886
  121OSM    C9F12863   4.930   0.084   9.797 -0.3082  0.4276  0.2056
  121OSM    H9F12864   4.936   0.176   9.857  3.4405 -1.6971  3.3541
  121OSM   C10F12865   4.956   0.094   9.667 -0.0853 -0.8292  0.1815
  121OSM   H10F12866   4.982   0.196   9.633 -0.5595 -0.9136 -0.4521
  121OSM   C11F12867   4.939  -0.012   9.564 -0.4117 -0.2230 -0.0326
  121OSM   H11F12868   4.850   0.012   9.503  0.4535  2.0333 -0.4638
  121OSM   H11G12869   4.936  -0.115   9.606 -0.5365  0.1890  0.9968
  121OSM   C12F12870   5.048  -0.025   9.459  0.3126 -0.3796  1.1023
  121OSM   H12F12871   5.146  -0.009   9.510  0.8955 -0.6079  0.0889
  121OSM   H12G12872   5.032   0.052   9.380  1.0488  0.3117  1.6156
  121OSM   C13F12873   5.060  -0.158   9.382  1.2428  0.2927 -0.6048
  121OSM   H13F12874   4.963  -0.160   9.327  0.2007  3.3332  1.0034
  121OSM   H13G12875   5.059  -0.238   9.460 -0.7762  0.3507 -0.5385
  121OSM   C14F12876   5.183  -0.163   9.282  0.2132 -0.1903 -1.0497
  121OSM   H14F12877   5.195  -0.266   9.242  0.4455  0.5468 -2.9779
  121OSM   H14G12878   5.272  -0.138   9.344 -3.6582 -0.0491  4.8577
  121OSM   C15F12879   5.175  -0.069   9.161 -0.1041 -0.1287 -0.1171
  121OSM   H15F12880   5.258  -0.086   9.088 -0.3898  1.1558 -0.7596
  121OSM   H15G12881   5.168   0.039   9.188 -1.2531 -0.0780 -0.6144
  121OSM   C16F12882   5.055  -0.095   9.067  0.0797  0.2838  0.1818
  121OSM   H16F12883   4.961  -0.078   9.123  0.2957 -1.3875  1.0749
  121OSM   H16G12884   5.050  -0.195   9.019  0.3360  0.4700 -0.2395
  121OSM   C17F12885   5.043   0.017   8.964  0.3162 -0.1012 -0.7854
  121OSM   H17F12886   5.085  -0.019   8.867 -0.1091 -0.5643 -0.8001
  121OSM   H17G12887   5.097   0.109   8.995  1.0486 -0.2717 -1.5321
  121OSM   C18F12888   4.901   0.065   8.946 -0.4936  0.7154 -0.1068
  121OSM   H18F12889   4.854   0.111   9.036 -0.0473  0.6051  0.1881
  121OSM   H18G12890   4.840  -0.021   8.913  1.8233 -1.4586  1.0664
  121OSM   H18H12891   4.895   0.134   8.859 -0.5415 -0.6630 -1.2058
  122OSM      N12892   6.025   4.541  10.911 -0.0643 -0.4295 -0.3521
  122OSM    C1512893   5.935   4.523  11.023  0.7094 -0.2040 -0.2460
  122OSM   H15A12894   5.885   4.615  11.048  0.1817 -0.3695 -0.6705
  122OSM   H15B12895   5.988   4.491  11.111 -1.0915 -0.4313  0.7907
  122OSM   H15C12896   5.865   4.443  10.999  0.8330 -0.3125 -0.2442
  122OSM    C1412897   6.127   4.651  10.940  0.4642 -0.0262  0.4719
  122OSM   H14A12898   6.070   4.741  10.954 -0.8555 -0.7787  0.0745
  122OSM   H14B12899   6.185   4.675  10.852 -0.1302 -0.6299 -0.0966
  122OSM   H14C12900   6.201   4.643  11.018  3.3444  0.9103 -2.0236
  122OSM    C1312901   6.107   4.423  10.882 -0.5641  0.4258  0.1875
  122OSM   H13A12902   6.054   4.330  10.875  1.9960 -1.1028  0.6631
  122OSM   H13B12903   6.183   4.410  10.957 -1.1292 -2.1921  0.3241
  122OSM   H13C12904   6.165   4.454  10.796  0.7468 -0.2447  0.8232
  122OSM    C1212905   5.951   4.575  10.787 -0.3242  0.3252  0.2006
  122OSM   H12A12906   5.870   4.506  10.769 -0.3450  0.4909 -0.3763
  122OSM   H12B12907   6.016   4.559  10.703 -0.4914  1.6038 -0.1888
  122OSM    C1112908   5.889   4.714  10.758 -0.0078  0.0093  0.2161
  122OSM   H11A12909   5.826   4.710  10.667  1.2561  1.9500 -0.7835
  122OSM   H11B12910   5.982   4.767  10.727  0.3905 -0.3554  0.7759
  122OSM      P12911   5.808   4.925  10.874  0.1786 -0.5945  0.0635
  122OSM    O1312912   5.681   4.963  10.935 -0.4598 -0.5412  0.1756
  122OSM    O1412913   5.929   4.982  10.936 -0.6585  0.0078 -0.3015
  122OSM    O1112914   5.806   4.971  10.725 -0.3343  0.5090  0.5479
  122OSM    O1212915   5.818   4.764  10.863  0.1384  0.6949  0.7834
  122OSM    C1S12916   5.925   5.016  10.658  0.0655  0.1698 -1.0858
  122OSM    H1S12917   6.014   4.954  10.683 -0.0141  0.6721  0.4853
  122OSM    H1T12918   5.953   5.122  10.674 -1.3423  0.0058  3.1907
  122OSM     NF12919   6.033   5.017  10.438  0.2039  0.3218  0.8664
  122OSM    HNF12920   6.066   5.093  10.382  0.8134  0.1627  1.0020
  122OSM    C2S12921   5.903   5.007  10.501 -0.0105  0.5563 -0.5524
  122OSM    H2S12922   5.862   4.905  10.481 -2.1076  1.0395  1.1176
  122OSM    C3S12923   5.798   5.105  10.449 -0.2720  0.5350  0.4242
  122OSM    H3S12924   5.832   5.207  10.475  0.5387  0.7333 -1.3408
  122OSM     O312925   5.683   5.077  10.528  0.0138 -0.0825 -0.4656
  122OSM    HO312926   5.721   5.026  10.599  0.5349  4.3486  2.6580
  122OSM    C4S12927   5.771   5.088  10.296  0.0812 -0.3011  0.5566
  122OSM    H4S12928   5.694   5.016  10.266  0.9938 -1.2100  0.3332
  122OSM    C5S12929   5.814   5.177  10.204 -0.2910  0.0629  0.2169
  122OSM    H5S12930   5.857   5.273  10.236 -1.9702  0.5200  1.1909
  122OSM    C6S12931   5.784   5.182  10.060  0.2008  0.0391  0.7004
  122OSM    H6S12932   5.756   5.285  10.031  2.2565  0.4391  0.0671
  122OSM    H6T12933   5.695   5.122  10.031 -0.1732  0.0684  1.7567
  122OSM    C7S12934   5.904   5.128   9.979  0.6516 -0.7912  0.0429
  122OSM    H7S12935   5.910   5.018   9.994 -0.8648 -0.7426  1.2329
  122OSM    H7T12936   6.003   5.169  10.008  0.0645  1.6641 -1.2993
  122OSM    C8S12937   5.883   5.150   9.828  0.5254  0.3477 -0.2241
  122OSM    H8S12938   5.865   5.259   9.811 -1.9113  0.1239  0.6149
  122OSM    H8T12939   5.780   5.113   9.811 -0.1784  2.1622 -0.0506
  122OSM    C9S12940   5.990   5.092   9.735  0.3383 -0.1294  0.1529
  122OSM    H9S12941   5.998   4.982   9.750 -0.8529 -0.2014  0.2511
  122OSM    H9T12942   6.091   5.130   9.761  0.7860 -0.1857 -1.4130
  122OSM   C10S12943   5.959   5.121   9.583  0.5280  0.5192 -0.4504
  122OSM   H10S12944   5.946   5.231   9.569 -1.7762  0.3259 -0.0942
  122OSM   H10T12945   5.859   5.073   9.577  0.5802  0.3864 -0.2901
  122OSM   C11S12946   6.051   5.064   9.474  0.3555 -0.5632  0.3103
  122OSM   H11S12947   6.080   4.962   9.507  1.8402 -0.5907 -1.0601
  122OSM   H11T12948   6.146   5.121   9.469  0.3002 -0.2548  2.3325
  122OSM   C12S12949   5.988   5.071   9.333 -0.9077  0.3049 -0.3291
  122OSM   H12S12950   5.955   5.175   9.314  0.8688  0.9897  0.2109
  122OSM   H12T12951   5.904   5.001   9.315 -1.4164  1.2148 -1.5742
  122OSM   C13S12952   6.092   5.022   9.224 -0.3350  0.4252  0.4931
  122OSM   H13S12953   6.120   4.917   9.247 -0.6473  0.3386  0.4733
  122OSM   H13T12954   6.190   5.074   9.212 -1.1958  1.6326 -1.4406
  122OSM   C14S12955   6.024   5.015   9.087  0.2311 -0.5658  0.0864
  122OSM   H14S12956   5.984   5.115   9.059  0.5935 -0.8487 -1.4567
  122OSM   H14T12957   5.933   4.952   9.101 -1.6599  2.1754  0.4867
  122OSM   C15S12958   6.111   4.950   8.980  0.1198  0.0575 -0.3117
  122OSM   H15S12959   6.169   4.875   9.037 -3.0227 -1.3063  1.2020
  122OSM   H15T12960   6.185   5.024   8.943  0.4216  0.2514  0.6752
  122OSM   C16S12961   6.055   4.866   8.869  0.0181  0.5677  0.4240
  122OSM   H16S12962   5.966   4.909   8.819  0.3785 -0.8252 -1.4744
  122OSM   H16T12963   6.031   4.774   8.927 -0.7375  0.7471  0.4066
  122OSM   C17S12964   6.151   4.837   8.750 -0.8818  0.0861  0.0901
  122OSM   H17S12965   6.230   4.773   8.794 -0.7771  0.2450  0.1336
  122OSM   H17T12966   6.192   4.928   8.701 -1.7598  0.7122  0.5045
  122OSM   C18S12967   6.079   4.770   8.638  0.2584  0.5312 -0.8983
  122OSM   H18S12968   6.157   4.744   8.563  0.0657  1.8368 -1.5770
  122OSM   H18T12969   6.006   4.840   8.593  0.9794  1.4957 -0.5925
  122OSM   H18U12970   6.029   4.677   8.671 -0.2539  1.6839  1.7030
  122OSM    C1F12971   6.125   4.923  10.445 -0.3621  0.3051 -0.3087
  122OSM     OF12972   6.108   4.816  10.498 -0.1098 -0.2703 -0.1280
  122OSM    C2F12973   6.261   4.946  10.384  0.2392 -0.1207  0.1674
  122OSM    H2F12974   6.346   4.905  10.442  1.1497 -0.9926 -1.7040
  122OSM    H2G12975   6.292   5.052  10.375  0.4220 -0.2818 -1.3910
  122OSM    C3F12976   6.272   4.875  10.251  0.0895  0.3436  0.4714
  122OSM    H3F12977   6.279   4.769  10.285 -0.5886 -0.8156 -2.8423
  122OSM    H3G12978   6.373   4.905  10.216  0.0502  2.0277  1.7308
  122OSM    C4F12979   6.154   4.889  10.156 -0.1157 -0.5448 -0.2305
  122OSM    H4F12980   6.140   4.997  10.134  0.3934 -0.3157  0.5448
  122OSM    H4G12981   6.054   4.859  10.192 -0.0616  0.9774  1.2263
  122OSM    C5F12982   6.172   4.810  10.032 -0.2705 -0.6667  0.4282
  122OSM    H5F12983   6.082   4.801   9.966  0.3650  1.6279 -0.7883
  122OSM    H5G12984   6.211   4.711  10.062  1.9588  0.3147  0.8404
  122OSM    C6F12985   6.289   4.870   9.949 -0.1628 -0.6263  0.4815
  122OSM    H6F12986   6.373   4.902  10.015  0.6640  0.5580 -1.1150
  122OSM    H6G12987   6.257   4.963   9.897 -0.1542 -0.1505  1.3022
  122OSM    C7F12988   6.359   4.763   9.860 -0.0347  0.3747 -0.3913
  122OSM    H7F12989   6.357   4.674   9.925  0.4354  1.1166  0.6592
  122OSM    H7G12990   6.463   4.797   9.841  0.5215  0.5899  2.6789
  122OSM    C8F12991   6.288   4.754   9.724 -0.2915 -0.6409 -0.7120
  122OSM    H8F12992   6.187   4.714   9.745  0.5925 -2.2123  0.6885
  122OSM    H8G12993   6.336   4.675   9.662  1.5740  0.8588 -1.2247
  122OSM    C9F12994   6.281   4.884   9.646 -0.1767  0.0671  0.4197
  122OSM    H9F12995   6.215   4.958   9.692  0.5591  1.0557 -0.0912
  122OSM   C10F12996   6.343   4.914   9.539 -0.4647  0.3510  0.6996
  122OSM   H10F12997   6.323   5.014   9.497  1.7154 -1.1172 -4.2983
  122OSM   C11F12998   6.432   4.829   9.451  0.3284 -0.5603  0.3091
  122OSM   H11F12999   6.472   4.752   9.521  0.4404  2.2005  3.4082
  122OSM   H11G13000   6.516   4.889   9.409 -0.7990  0.2684 -0.7764
  122OSM   C12F13001   6.353   4.774   9.336 -0.2598  0.2797  0.5978
  122OSM   H12F13002   6.330   4.848   9.257 -1.6386 -0.0128  0.7047
  122OSM   H12G13003   6.252   4.742   9.371 -1.0527  1.0568 -0.9397
  122OSM   C13F13004   6.427   4.663   9.265  0.1076 -0.6277 -0.3503
  122OSM   H13F13005   6.534   4.693   9.255 -0.2437  0.2824 -1.4119
  122OSM   H13G13006   6.386   4.637   9.165  0.2025 -0.3315 -0.4671
  122OSM   C14F13007   6.428   4.523   9.341 -0.9837 -0.1073 -0.2574
  122OSM   H14F13008   6.325   4.501   9.374 -1.3281  1.8677  0.0030
  122OSM   H14G13009   6.478   4.535   9.439 -1.1094 -2.9679  0.1876
  122OSM   C15F13010   6.476   4.397   9.264  0.1000  0.7301 -0.3358
  122OSM   H15F13011   6.395   4.356   9.201 -0.8378 -1.5494  2.2484
  122OSM   H15G13012   6.504   4.333   9.351 -0.5330 -1.0094 -1.4015
  122OSM   C16F13013   6.597   4.421   9.168  0.2983 -0.9855 -0.2687
  122OSM   H16F13014   6.567   4.504   9.100 -2.4855 -0.0529  1.9917
  122OSM   H16G13015   6.603   4.333   9.101 -1.5318  0.0107 -1.7902
  122OSM   C17F13016   6.723   4.453   9.243 -0.1295  0.6138  0.4627
  122OSM   H17F13017   6.757   4.353   9.277  0.5350  0.3180 -0.9850
  122OSM   H17G13018   6.705   4.525   9.326  0.7300 -1.2217  2.2815
  122OSM   C18F13019   6.830   4.518   9.157  0.5350  0.2520  0.0520
  122OSM   H18F13020   6.849   4.464   9.062  1.3545  1.5113 -0.5234
  122OSM   H18G13021   6.924   4.522   9.217  0.5041  0.3720  0.0930
  122OSM   H18H13022   6.802   4.621   9.126  2.5737  0.9801  0.5650
  123OSM      N13023   3.423   4.335   6.187  0.3573 -0.2482  0.0874
  123OSM    C1513024   3.358   4.308   6.321 -0.8948 -0.2192 -0.1025
  123OSM   H15A13025   3.326   4.401   6.366  1.1763 -0.2562  1.5001
  123OSM   H15B13026   3.439   4.270   6.382 -0.7099  1.2342  0.5803
  123OSM   H15C13027   3.278   4.236   6.320 -0.2829 -1.0295  3.2270
  123OSM    C1413028   3.316   4.361   6.086 -0.6031 -0.4811 -0.3715
  123OSM   H14A13029   3.240   4.284   6.089 -1.0769 -0.0595 -1.1450
  123OSM   H14B13030   3.366   4.365   5.990  1.4457 -2.8478  0.5579
  123OSM   H14C13031   3.265   4.456   6.091  0.1423  0.1023 -2.7939
  123OSM    C1313032   3.501   4.460   6.198 -0.5221 -0.4458  0.0951
  123OSM   H13A13033   3.570   4.450   6.280  0.7960  3.2333 -0.4570
  123OSM   H13B13034   3.439   4.547   6.215  3.7681  2.6970  0.4753
  123OSM   H13C13035   3.551   4.466   6.102 -0.3070  2.9236  0.3522
  123OSM    C1213036   3.502   4.215   6.142  0.1154 -0.2447 -0.2912
  123OSM   H12A13037   3.536   4.235   6.041 -0.1822 -0.7717 -0.4977
  123OSM   H12B13038   3.431   4.134   6.145  0.7429 -0.7366  2.0499
  123OSM    C1113039   3.634   4.168   6.210 -0.4015  0.2687 -0.1891
  123OSM   H11A13040   3.626   4.188   6.319  1.4928  1.5689 -0.2605
  123OSM   H11B13041   3.713   4.233   6.166  0.8951 -1.7469 -0.8812
  123OSM      P13042   3.570   3.915   6.235 -0.2802 -0.1666  0.0565
  123OSM    O1313043   3.424   3.932   6.229 -0.1530  0.5210  0.5106
  123OSM    O1413044   3.620   3.793   6.177  0.6070  0.5250  0.3045
  123OSM    O1113045   3.625   3.917   6.382 -0.3069  0.4937 -0.4740
  123OSM    O1213046   3.646   4.031   6.169  0.1047 -0.5071 -0.0525
  123OSM    C1S13047   3.539   3.941   6.496  0.4567 -0.4977 -1.3959
  123OSM    H1S13048   3.432   3.930   6.468  0.2356  0.7146 -1.0677
  123OSM    H1T13049   3.569   4.043   6.529 -0.5451 -0.5930 -0.1599
  123OSM     NF13050   3.468   3.852   6.715  0.3602  0.4451  0.5980
  123OSM    HNF13051   3.488   3.885   6.807  3.0926  0.6554 -0.0222
  123OSM    C2S13052   3.565   3.837   6.607 -0.0530 -0.8606 -0.1692
  123OSM    H2S13053   3.549   3.735   6.564  0.6413 -0.3756 -1.6227
  123OSM    C3S13054   3.709   3.847   6.652  0.3670  0.8952 -0.0584
  123OSM    H3S13055   3.729   3.955   6.672 -0.6134  0.9580  0.6617
  123OSM     O313056   3.797   3.794   6.547  0.2623  0.0413 -0.4227
  123OSM    HO313057   3.749   3.808   6.464  2.1654 -1.2183 -1.7704
  123OSM    C4S13058   3.737   3.775   6.789 -0.1569  0.0520 -0.0588
  123OSM    H4S13059   3.674   3.687   6.807 -0.0973  0.1050  0.4022
  123OSM    C5S13060   3.832   3.808   6.880 -0.0037 -0.3449 -0.4722
  123OSM    H5S13061   3.898   3.890   6.847  0.7631 -0.7196  0.1255
  123OSM    C6S13062   3.864   3.751   7.013  0.6059  0.1948  0.5812
  123OSM    H6S13063   3.919   3.818   7.083  1.3759  1.3768 -1.1355
  123OSM    H6T13064   3.926   3.660   7.003  0.2370  0.1338 -1.2625
  123OSM    C7S13065   3.742   3.716   7.100 -0.1381 -0.3175 -0.1207
  123OSM    H7S13066   3.676   3.645   7.045 -1.0247 -0.9740  1.7753
  123OSM    H7T13067   3.680   3.808   7.096 -1.3832 -1.0990  0.9442
  123OSM    C8S13068   3.774   3.662   7.239 -0.6394 -0.0054 -0.1931
  123OSM    H8S13069   3.858   3.727   7.270  0.0634 -0.4894 -1.0498
  123OSM    H8T13070   3.799   3.556   7.217  1.0209  0.4361 -0.5163
  123OSM    C9S13071   3.655   3.663   7.332  0.5972 -0.5413  0.2697
  123OSM    H9S13072   3.584   3.589   7.290  0.1029  0.5763 -0.9159
  123OSM    H9T13073   3.594   3.754   7.350 -0.7564 -1.4783  0.5315
  123OSM   C10S13074   3.693   3.618   7.474  0.6669  0.1698  0.6094
  123OSM   H10S13075   3.794   3.573   7.464 -0.3792 -1.8489 -1.3074
  123OSM   H10T13076   3.633   3.540   7.526 -1.3948  0.7265 -0.9065
  123OSM   C11S13077   3.693   3.739   7.562 -0.3892 -0.6043 -0.9068
  123OSM   H11S13078   3.603   3.804   7.556  0.4675  0.8203  1.1197
  123OSM   H11T13079   3.775   3.810   7.534  1.2622 -1.3259  1.9298
  123OSM   C12S13080   3.724   3.707   7.711 -0.1830 -0.1490 -0.2346
  123OSM   H12S13081   3.634   3.671   7.765 -0.6002  0.6678 -0.3699
  123OSM   H12T13082   3.760   3.795   7.770 -1.4198 -1.3003  2.3131
  123OSM   C13S13083   3.837   3.600   7.725  0.1787 -0.2537  0.3890
  123OSM   H13S13084   3.930   3.638   7.678 -0.1435 -1.1928 -1.0494
  123OSM   H13T13085   3.812   3.506   7.671 -1.9885  0.3103  0.3604
  123OSM   C14S13086   3.860   3.569   7.871  0.1679  0.1932  0.2475
  123OSM   H14S13087   3.769   3.568   7.935 -0.7843  0.9206 -1.0532
  123OSM   H14T13088   3.926   3.652   7.902 -1.7054  2.0350 -0.5205
  123OSM   C15S13089   3.928   3.429   7.888 -0.7402  0.1864  0.5846
  123OSM   H15S13090   4.013   3.421   7.817 -0.6987 -0.5467  0.7098
  123OSM   H15T13091   3.859   3.350   7.851 -0.3209  0.8283 -1.6508
  123OSM   C16S13092   3.982   3.418   8.033  0.3018 -0.2050 -0.0722
  123OSM   H16S13093   3.897   3.459   8.093  2.0764  1.1017  1.6310
  123OSM   H16T13094   4.073   3.480   8.042 -0.2026  0.3591  1.4451
  123OSM   C17S13095   4.026   3.277   8.073 -0.2824 -0.1485  0.2570
  123OSM   H17S13096   3.944   3.201   8.076  0.6270 -1.1845 -0.6525
  123OSM   H17T13097   4.060   3.285   8.178 -1.5729  0.8511  0.6096
  123OSM   C18S13098   4.145   3.224   7.998 -0.5688  0.4013  0.0819
  123OSM   H18S13099   4.237   3.285   8.012 -0.1088 -0.1097 -0.6832
  123OSM   H18T13100   4.125   3.234   7.889  3.1873  0.0555 -0.7165
  123OSM   H18U13101   4.173   3.118   8.015 -2.4684 -0.0806  0.2999
  123OSM    C1F13102   3.336   3.825   6.699  0.5860  0.4147  0.0612
  123OSM     OF13103   3.290   3.761   6.601  0.2049  0.1133  0.1821
  123OSM    C2F13104   3.242   3.897   6.798  0.1088  0.4673  0.4920
  123OSM    H2F13105   3.142   3.875   6.757  0.0871  0.6897  0.4244
  123OSM    H2G13106   3.267   4.005   6.787  0.7120  0.4859  1.8507
  123OSM    C3F13107   3.251   3.841   6.941  0.3890 -0.2482 -0.1099
  123OSM    H3F13108   3.346   3.866   6.992 -0.7761  2.4067  0.8390
  123OSM    H3G13109   3.247   3.730   6.931 -0.9567 -0.1729 -0.6003
  123OSM    C4F13110   3.125   3.883   7.024  0.3920 -0.3998  0.6077
  123OSM    H4F13111   3.029   3.878   6.969 -0.7147 -0.0069  2.4528
  123OSM    H4G13112   3.147   3.989   7.051 -0.0294  0.1995 -1.3007
  123OSM    C5F13113   3.094   3.802   7.148 -0.1478  0.2565 -0.4235
  123OSM    H5F13114   3.106   3.692   7.134 -0.7675  0.0162  0.8369
  123OSM    H5G13115   2.987   3.814   7.175  0.0315  3.4255 -0.9364
  123OSM    C6F13116   3.202   3.832   7.249 -0.2251 -0.3309 -0.2649
  123OSM    H6F13117   3.229   3.939   7.262  0.5336 -0.7365  1.5650
  123OSM    H6G13118   3.296   3.788   7.209 -1.2394 -3.7176  0.8902
  123OSM    C7F13119   3.188   3.752   7.380 -0.0105 -0.2331  0.3537
  123OSM    H7F13120   3.272   3.795   7.438  1.1301  0.6816 -1.9329
  123OSM    H7G13121   3.208   3.645   7.360 -0.7097  0.2446 -3.1837
  123OSM    C8F13122   3.046   3.770   7.450  0.0024 -0.2370 -0.8313
  123OSM    H8F13123   2.960   3.724   7.399 -0.7513  0.6370 -0.3723
  123OSM    H8G13124   3.023   3.879   7.447  1.8188  0.2048  0.0692
  123OSM    C9F13125   3.053   3.713   7.589  0.4615  0.0406  0.0430
  123OSM    H9F13126   3.020   3.608   7.592  0.0827  0.1215 -0.9112
  123OSM   C10F13127   3.072   3.785   7.701  0.1973  0.5985  0.0279
  123OSM   H10F13128   3.051   3.740   7.799 -3.0015 -1.3468 -1.4743
  123OSM   C11F13129   3.109   3.930   7.711 -0.3283  0.1488 -0.0165
  123OSM   H11F13130   3.016   3.991   7.712  0.6702  1.6989  0.4576
  123OSM   H11G13131   3.165   3.958   7.619  0.4854 -0.9736  0.1371
  123OSM   C12F13132   3.213   3.971   7.816  0.1264 -0.2239 -0.6197
  123OSM   H12F13133   3.261   4.068   7.793 -1.3334  0.6218 -0.2105
  123OSM   H12G13134   3.286   3.888   7.829  1.5091  1.1828  0.9524
  123OSM   C13F13135   3.149   4.002   7.950 -0.7728  0.5402  0.0415
  123OSM   H13F13136   3.109   3.907   7.990  0.6870  0.5518  1.5411
  123OSM   H13G13137   3.067   4.076   7.939 -0.7026  0.7402  0.8514
  123OSM   C14F13138   3.238   4.064   8.054  0.1886  0.2729  0.4995
  123OSM   H14F13139   3.291   4.145   7.999  0.2016 -0.7106 -0.9726
  123OSM   H14G13140   3.312   3.990   8.093 -0.3190 -0.4838  0.0216
  123OSM   C15F13141   3.171   4.121   8.184 -0.0512 -0.4415 -0.0249
  123OSM   H15F13142   3.124   4.030   8.227  0.0590 -0.3999  0.1829
  123OSM   H15G13143   3.084   4.185   8.159  3.3158  4.1378 -0.6948
  123OSM   C16F13144   3.269   4.181   8.291  0.0908  0.2144  0.1538
  123OSM   H16F13145   3.346   4.246   8.245  1.8141 -1.9862 -0.1918
  123OSM   H16G13146   3.312   4.089   8.337 -0.0649  0.3873  0.6476
  123OSM   C17F13147   3.201   4.262   8.400  0.1426 -0.2115 -0.7700
  123OSM   H17F13148   3.130   4.194   8.451 -0.7325  0.8357 -0.5687
  123OSM   H17G13149   3.145   4.346   8.354 -0.5435 -0.6790 -0.7925
  123OSM   C18F13150   3.303   4.327   8.495  0.0574  0.5752 -0.4911
  123OSM   H18F13151   3.389   4.261   8.523 -0.7543 -0.8289 -1.2700
  123OSM   H18G13152   3.247   4.356   8.587  0.8111 -0.2079  0.2364
  123OSM   H18H13153   3.330   4.421   8.443  0.9202  0.8005  0.3419
  124OSM      N13154   6.449   1.580   5.974  0.1854 -0.6135  0.2265
  124OSM    C1513155   6.542   1.696   5.968  0.0275  0.3684  0.3462
  124OSM   H15A13156   6.592   1.697   6.064  0.3789  0.1231  0.1634
  124OSM   H15B13157   6.481   1.783   5.945 -2.1204 -1.7799 -2.3442
  124OSM   H15C13158   6.615   1.686   5.890  0.4499 -1.9555  1.0190
  124OSM    C1413159   6.344   1.599   6.074 -0.4296  0.5872  0.3363
  124OSM   H14A13160   6.388   1.601   6.172  1.0619 -0.2960 -0.3063
  124OSM   H14B13161   6.270   1.520   6.074 -1.5627  1.6329 -0.2969
  124OSM   H14C13162   6.304   1.698   6.058 -1.9583 -0.2083 -0.9178
  124OSM    C1313163   6.381   1.564   5.842  0.3743  0.0943  0.3195
  124OSM   H13A13164   6.444   1.541   5.757  0.7419 -1.4720  1.0072
  124OSM   H13B13165   6.328   1.653   5.811  0.3685  0.6126  1.7774
  124OSM   H13C13166   6.295   1.500   5.852  0.3709 -0.1177 -0.9473
  124OSM    C1213167   6.535   1.452   6.005  0.2801  0.8184 -0.2985
  124OSM   H12A13168   6.602   1.436   5.921  2.1006 -0.2621  1.3195
  124OSM   H12B13169   6.474   1.363   5.996  2.9318 -1.0482 -0.2729
  124OSM    C1113170   6.604   1.439   6.142  0.4028 -0.5494 -0.3579
  124OSM   H11A13171   6.678   1.356   6.147  1.3894  0.4057  1.5221
  124OSM   H11B13172   6.528   1.417   6.220 -1.6422  2.2402 -1.5011
  124OSM      P13173   6.656   1.642   6.309 -0.3182 -0.2073  0.2757
  124OSM    O1313174   6.732   1.770   6.310 -0.5831 -0.5198  0.7898
  124OSM    O1413175   6.517   1.652   6.333  0.0863  0.1613  0.0006
  124OSM    O1113176   6.720   1.547   6.420  0.5032 -0.2873  0.2452
  124OSM    O1213177   6.676   1.565   6.174  0.2391  0.2688  0.4120
  124OSM    C1S13178   6.765   1.599   6.548 -0.0529 -0.1384 -0.1552
  124OSM    H1S13179   6.756   1.709   6.563  0.2785 -0.4878  2.8878
  124OSM    H1T13180   6.871   1.569   6.566 -0.7397 -0.9318  2.7620
  124OSM     NF13181   6.680   1.621   6.770  0.5533 -1.1488  0.1582
  124OSM    HNF13182   6.701   1.566   6.851  0.4517  2.9094  3.1311
  124OSM    C2S13183   6.661   1.552   6.649  0.1883 -0.2979 -0.1376
  124OSM    H2S13184   6.558   1.575   6.613 -1.5855 -1.7483  3.7397
  124OSM    C3S13185   6.675   1.395   6.666 -0.1296 -0.0110  0.1504
  124OSM    H3S13186   6.770   1.370   6.718 -0.5963  0.6613  1.3296
  124OSM     O313187   6.680   1.318   6.549 -0.8977  0.2077 -1.2076
  124OSM    HO313188   6.689   1.386   6.482 -2.6888 -0.0024 -1.6760
  124OSM    C4S13189   6.559   1.346   6.754  1.0463 -0.5951  0.8616
  124OSM    H4S13190   6.460   1.380   6.722  0.7378  0.1866  2.5776
  124OSM    C5S13191   6.572   1.265   6.858 -0.9689  0.2934  0.2808
  124OSM    H5S13192   6.672   1.222   6.871 -1.7200 -1.7585 -0.4820
  124OSM    C6S13193   6.454   1.208   6.937  0.2028 -0.3358  0.6941
  124OSM    H6S13194   6.467   1.098   6.943 -2.9589 -0.7446  0.7604
  124OSM    H6T13195   6.357   1.220   6.886  0.5378  0.6286  0.2627
  124OSM    C7S13196   6.435   1.258   7.075 -0.4620 -0.7412 -0.7346
  124OSM    H7S13197   6.397   1.363   7.077  2.0165  0.1567  1.5800
  124OSM    H7T13198   6.522   1.255   7.143 -0.8886  1.5203 -0.0507
  124OSM    C8S13199   6.319   1.178   7.138  0.7644  0.1011 -0.6259
  124OSM    H8S13200   6.354   1.073   7.152 -1.2910 -0.6413 -0.8050
  124OSM    H8T13201   6.228   1.183   7.074 -0.8685  0.0224  1.6277
  124OSM    C9S13202   6.285   1.230   7.278 -0.0482  0.2117 -0.0960
  124OSM    H9S13203   6.181   1.193   7.292  0.0635 -1.1923 -2.7546
  124OSM    H9T13204   6.276   1.340   7.282  0.5007  0.2785 -0.6548
  124OSM   C10S13205   6.385   1.197   7.394  0.4273 -0.3581 -0.3281
  124OSM   H10S13206   6.479   1.244   7.359  1.0353 -1.7803 -0.6581
  124OSM   H10T13207   6.409   1.088   7.400  2.7823  0.1004 -0.7116
  124OSM   C11S13208   6.337   1.241   7.535  0.2710  0.1496  0.0714
  124OSM   H11S13209   6.248   1.174   7.546  2.4039 -2.6801  0.5890
  124OSM   H11T13210   6.310   1.348   7.544 -3.3188 -0.7847  1.4166
  124OSM   C12S13211   6.449   1.218   7.647  0.1977  0.1252  0.1736
  124OSM   H12S13212   6.534   1.286   7.628 -1.3140  2.2916  0.9632
  124OSM   H12T13213   6.476   1.110   7.649 -2.5568 -0.5918  1.3070
  124OSM   C13S13214   6.406   1.268   7.783  0.5079  0.3864  0.1769
  124OSM   H13S13215   6.318   1.207   7.814 -0.7347  2.4815  0.8666
  124OSM   H13T13216   6.379   1.375   7.795  0.9723  0.3299  1.8590
  124OSM   C14S13217   6.511   1.247   7.889 -0.6487 -0.0502 -0.2000
  124OSM   H14S13218   6.607   1.299   7.867 -0.4205  0.1951  1.3392
  124OSM   H14T13219   6.543   1.141   7.898 -0.7629  0.0700  1.9372
  124OSM   C15S13220   6.474   1.290   8.033 -0.2815  0.6755 -0.0205
  124OSM   H15S13221   6.440   1.395   8.033 -1.2791  0.3685  2.6499
  124OSM   H15T13222   6.571   1.280   8.087 -1.6043 -1.4688  2.0417
  124OSM   C16S13223   6.356   1.210   8.089 -0.0604 -0.2918 -0.3981
  124OSM   H16S13224   6.384   1.108   8.123 -2.1530 -0.8211 -0.2579
  124OSM   H16T13225   6.285   1.197   8.005  0.0363  2.4477 -0.9536
  124OSM   C17S13226   6.282   1.276   8.190 -0.5969 -0.1552 -0.0111
  124OSM   H17S13227   6.190   1.217   8.209  0.4790 -1.5575  1.0184
  124OSM   H17T13228   6.245   1.378   8.168  0.2767  0.8389  2.9720
  124OSM   C18S13229   6.353   1.297   8.325  0.3947 -0.1602 -0.4750
  124OSM   H18S13230   6.290   1.365   8.385  1.9095 -0.4989  1.5570
  124OSM   H18T13231   6.455   1.339   8.308  0.3531  0.1752  0.1211
  124OSM   H18U13232   6.362   1.197   8.374  0.5176 -0.0204 -0.2102
  124OSM    C1F13233   6.660   1.753   6.792 -0.1289 -0.8741 -0.2039
  124OSM     OF13234   6.630   1.832   6.703 -0.2687 -0.7781  0.2254
  124OSM    C2F13235   6.675   1.803   6.930  0.6347 -0.0399  0.1953
  124OSM    H2F13236   6.781   1.811   6.960  0.3695  0.4925  0.9826
  124OSM    H2G13237   6.623   1.722   6.985 -1.9069  1.3027 -0.1116
  124OSM    C3F13238   6.600   1.929   6.966  0.3029 -0.4423  0.4629
  124OSM    H3F13239   6.489   1.918   6.959  0.2846 -0.9731  1.4723
  124OSM    H3G13240   6.644   2.016   6.913  0.0521  0.5774  1.8693
  124OSM    C4F13241   6.635   1.965   7.116  0.0905  0.5713 -0.0490
  124OSM    H4F13242   6.742   1.995   7.128 -0.5044  2.6695  0.2329
  124OSM    H4G13243   6.620   1.878   7.183  0.0259  1.8637  1.6503
  124OSM    C5F13244   6.547   2.074   7.171 -0.5401  0.1635 -0.2943
  124OSM    H5F13245   6.442   2.039   7.167 -0.5963  0.3789 -0.8887
  124OSM    H5G13246   6.555   2.162   7.102  2.4715 -0.0284 -0.2557
  124OSM    C6F13247   6.583   2.119   7.312 -0.0397  0.3385  0.1472
  124OSM    H6F13248   6.552   2.033   7.375 -3.1944  0.4154 -1.2008
  124OSM    H6G13249   6.519   2.200   7.355 -2.0228 -1.3356  0.4606
  124OSM    C7F13250   6.724   2.164   7.341 -0.2559 -0.7364 -0.2545
  124OSM    H7F13251   6.739   2.253   7.276 -2.6850 -0.0288  0.1309
  124OSM    H7G13252   6.803   2.092   7.310  0.4000 -0.6815  1.2712
  124OSM    C8F13253   6.745   2.204   7.489  0.5552 -0.5120  0.7020
  124OSM    H8F13254   6.673   2.286   7.506  1.3556  0.2055  0.6819
  124OSM    H8G13255   6.847   2.248   7.494  1.3177 -2.3459  1.8108
  124OSM    C9F13256   6.731   2.086   7.574 -1.0569 -0.1031 -0.3513
  124OSM    H9F13257   6.822   2.025   7.581  0.2345  1.9160  0.9777
  124OSM   C10F13258   6.624   2.055   7.652 -0.2050 -0.2485  0.1316
  124OSM   H10F13259   6.619   1.959   7.705  0.9725 -1.2487 -1.5083
  124OSM   C11F13260   6.498   2.132   7.671 -0.6492 -0.4167  0.3303
  124OSM   H11F13261   6.417   2.062   7.700 -1.5269 -0.5181 -2.2798
  124OSM   H11G13262   6.479   2.185   7.575  2.2007 -2.1965 -1.2909
  124OSM   C12F13263   6.492   2.224   7.793  0.5652 -0.2648  0.0098
  124OSM   H12F13264   6.386   2.243   7.819  0.1669 -3.5298  1.0694
  124OSM   H12G13265   6.551   2.318   7.786 -0.3724  0.3586  0.4381
  124OSM   C13F13266   6.558   2.152   7.920  0.1184  0.0866  0.8630
  124OSM   H13F13267   6.665   2.133   7.898 -0.1730 -1.5356  0.8050
  124OSM   H13G13268   6.511   2.057   7.954 -0.1229 -0.2018 -0.2737
  124OSM   C14F13269   6.546   2.256   8.037 -0.4815 -0.3025 -0.5498
  124OSM   H14F13270   6.456   2.321   8.042  0.3699  0.7833  0.8643
  124OSM   H14G13271   6.631   2.325   8.018  0.0124 -0.7543  0.0024
  124OSM   C15F13272   6.571   2.196   8.172 -0.1843  0.0114  0.2357
  124OSM   H15F13273   6.657   2.125   8.182 -0.1206 -0.0310 -0.6298
  124OSM   H15G13274   6.470   2.159   8.198  0.0405 -1.3468 -0.7539
  124OSM   C16F13275   6.610   2.300   8.270 -0.0124 -0.1073  0.2980
  124OSM   H16F13276   6.551   2.393   8.259  1.2737  0.8358  1.2308
  124OSM   H16G13277   6.715   2.335   8.257 -0.0240 -1.1083 -3.1312
  124OSM   C17F13278   6.596   2.258   8.417  0.3753  0.2256  0.5643
  124OSM   H17F13279   6.509   2.190   8.417  0.0658  0.5970 -0.8725
  124OSM   H17G13280   6.570   2.345   8.481 -1.9503  0.3549 -0.5017
  124OSM   C18F13281   6.715   2.179   8.473  0.6698 -0.8381 -0.5508
  124OSM   H18F13282   6.684   2.155   8.577 -0.9566 -0.4821 -0.9445
  124OSM   H18G13283   6.810   2.236   8.484  0.8972 -1.0635 -1.3035
  124OSM   H18H13284   6.729   2.085   8.417  1.5420  0.2378 -2.1927
  125OSM      N13285   5.790   2.608   6.089 -0.0892  0.2142  0.1752
  125OSM    C1513286   5.829   2.481   6.020  0.2220 -0.3527 -0.5646
  125OSM   H15A13287   5.877   2.503   5.926 -2.3308 -2.4474 -2.4185
  125OSM   H15B13288   5.740   2.438   5.977  0.2503  0.6178 -1.6142
  125OSM   H15C13289   5.886   2.409   6.077  0.7220  0.4546 -0.0350
  125OSM    C1413290   5.914   2.698   6.114 -0.1002 -0.0766 -0.5650
  125OSM   H14A13291   5.885   2.798   6.142 -0.6226 -0.8139  1.5946
  125OSM   H14B13292   5.971   2.718   6.025  1.8279 -2.7936  0.0262
  125OSM   H14C13293   5.971   2.649   6.191 -2.4879  1.0292  2.0390
  125OSM    C1313294   5.699   2.680   5.990  0.1340  0.2892 -0.6358
  125OSM   H13A13295   5.615   2.616   5.964 -0.0188 -0.6347  1.9002
  125OSM   H13B13296   5.753   2.683   5.897  0.9902 -0.8843 -0.1845
  125OSM   H13C13297   5.665   2.777   6.023 -2.4788 -0.9972  0.6826
  125OSM    C1213298   5.711   2.576   6.215 -0.7600  0.2071  0.6365
  125OSM   H12A13299   5.619   2.521   6.203 -0.2435 -0.6061  0.3709
  125OSM   H12B13300   5.673   2.671   6.251 -1.1618  0.1848  0.2756
  125OSM    C1113301   5.786   2.510   6.335 -0.1846  0.4535 -0.1654
  125OSM   H11A13302   5.707   2.489   6.410  1.1470  0.8671  1.3985
  125OSM   H11B13303   5.859   2.584   6.374 -1.5966  1.3995  0.7464
  125OSM      P13304   5.993   2.352   6.344 -0.3687  0.7039 -0.1975
  125OSM    O1313305   6.054   2.257   6.246 -0.1343  0.6095 -0.6172
  125OSM    O1413306   6.073   2.476   6.366 -0.4481 -0.4366 -0.2486
  125OSM    O1113307   5.973   2.269   6.476  0.0019  0.0326 -0.0326
  125OSM    O1213308   5.847   2.386   6.296  0.2231  0.0612  0.3878
  125OSM    C1S13309   5.867   2.309   6.561  0.0754  0.0569  0.1861
  125OSM    H1S13310   5.775   2.263   6.520  0.0459 -1.3579  1.8330
  125OSM    H1T13311   5.841   2.417   6.566  3.1606  0.7760  1.4442
  125OSM     NF13312   5.759   2.290   6.783  0.2993  0.5502 -0.0296
  125OSM    HNF13313   5.763   2.365   6.849 -1.9446  0.8574 -0.2275
  125OSM    C2S13314   5.889   2.274   6.708 -0.7806 -0.2653 -0.7377
  125OSM    H2S13315   5.917   2.167   6.715 -1.5008 -0.3803  0.5899
  125OSM    C3S13316   6.010   2.357   6.760  0.1974 -0.3970 -0.0122
  125OSM    H3S13317   6.000   2.466   6.740  0.7137 -0.4165 -0.3765
  125OSM     O313318   6.130   2.327   6.689  0.1994 -0.2986  0.3646
  125OSM    HO313319   6.102   2.298   6.602 -1.4924  2.2516  0.0127
  125OSM    C4S13320   6.029   2.332   6.905  0.2373  0.4633 -0.3317
  125OSM    H4S13321   5.956   2.395   6.957 -2.2873 -0.8125 -2.2120
  125OSM    C5S13322   6.089   2.223   6.965  0.0362 -0.1339 -0.0563
  125OSM    H5S13323   6.146   2.158   6.897  1.1434 -0.1188  0.8351
  125OSM    C6S13324   6.101   2.184   7.107  0.1225  0.7565  0.4373
  125OSM    H6S13325   6.143   2.081   7.110 -0.4720  0.4809 -0.6871
  125OSM    H6T13326   5.998   2.178   7.149 -0.1326 -0.6897 -0.3731
  125OSM    C7S13327   6.199   2.295   7.169 -0.3680  0.5878  0.0677
  125OSM    H7S13328   6.146   2.393   7.177  0.5757  1.2808 -1.9686
  125OSM    H7T13329   6.289   2.315   7.108  0.9029 -1.0200  1.3461
  125OSM    C8S13330   6.237   2.252   7.309  0.3213 -0.3757 -0.8981
  125OSM    H8S13331   6.316   2.317   7.353 -0.4040 -0.7610  1.0316
  125OSM    H8T13332   6.271   2.146   7.302  1.1171 -0.1162 -0.9735
  125OSM    C9S13333   6.118   2.241   7.419 -0.8485 -0.3472 -0.5429
  125OSM    H9S13334   6.050   2.160   7.384  2.6129 -2.6045 -2.3207
  125OSM    H9T13335   6.063   2.337   7.413 -0.7126 -0.2801 -0.6850
  125OSM   C10S13336   6.164   2.206   7.560 -0.5260  0.1067  0.8399
  125OSM   H10S13337   6.225   2.289   7.604 -0.6327  0.0499  1.0976
  125OSM   H10T13338   6.231   2.120   7.546 -1.6614 -0.4807 -1.1101
  125OSM   C11S13339   6.051   2.192   7.660 -0.3657  0.1410  0.0676
  125OSM   H11S13340   5.985   2.105   7.639  0.8252 -0.4967 -1.0920
  125OSM   H11T13341   5.985   2.280   7.640  0.2277  0.7396  0.7481
  125OSM   C12S13342   6.094   2.188   7.806  0.6379  0.1455 -0.4821
  125OSM   H12S13343   6.155   2.280   7.825  0.9226 -0.3078  0.8908
  125OSM   H12T13344   6.169   2.110   7.829  1.1581  1.1981  1.5469
  125OSM   C13S13345   5.987   2.161   7.907  0.1698  0.4426  0.9634
  125OSM   H13S13346   5.948   2.059   7.887 -1.6322  1.3220 -0.1968
  125OSM   H13T13347   5.894   2.216   7.883  0.0458  1.1592  3.0051
  125OSM   C14S13348   6.016   2.168   8.059  0.1938  0.2072 -0.1691
  125OSM   H14S13349   6.089   2.093   8.096  1.0133  0.6111 -0.9683
  125OSM   H14T13350   5.923   2.143   8.116 -0.7125 -0.5463 -1.9527
  125OSM   C15S13351   6.064   2.306   8.096  0.2460  0.1363 -0.1898
  125OSM   H15S13352   5.977   2.374   8.088  0.1631 -0.1019 -1.3148
  125OSM   H15T13353   6.139   2.330   8.017 -1.8998 -0.4740 -2.4526
  125OSM   C16S13354   6.114   2.300   8.240 -0.5229  0.2320  0.1240
  125OSM   H16S13355   6.188   2.380   8.263  1.7953 -1.6341 -0.6898
  125OSM   H16T13356   6.156   2.201   8.267  1.7668  0.5851 -1.9132
  125OSM   C17S13357   6.003   2.347   8.339 -0.1623 -0.3907  0.1918
  125OSM   H17S13358   5.932   2.262   8.330 -0.5306 -0.1535  0.7915
  125OSM   H17T13359   5.954   2.437   8.295  0.6736  0.5391  1.1161
  125OSM   C18S13360   6.064   2.365   8.479 -0.0210  0.5149 -0.0726
  125OSM   H18S13361   6.127   2.279   8.511 -0.6423 -0.4141 -1.3357
  125OSM   H18T13362   5.990   2.378   8.561  0.1729 -1.6736  0.4892
  125OSM   H18U13363   6.120   2.461   8.489 -0.5304  0.8126 -0.0493
  125OSM    C1F13364   5.643   2.233   6.765 -0.1660  0.2671 -0.4215
  125OSM     OF13365   5.635   2.129   6.707 -0.2398 -0.3487 -0.6244
  125OSM    C2F13366   5.530   2.299   6.833 -0.0714  0.8108  0.4756
  125OSM    H2F13367   5.471   2.348   6.753 -0.3449  1.9525  1.3606
  125OSM    H2G13368   5.565   2.379   6.902 -0.5532  0.1761  1.4662
  125OSM    C3F13369   5.445   2.188   6.905 -0.0309 -0.4574 -0.0374
  125OSM    H3F13370   5.526   2.146   6.968 -1.1978 -0.2800  1.6111
  125OSM    H3G13371   5.421   2.107   6.832  0.0195 -0.1733 -0.3737
  125OSM    C4F13372   5.336   2.224   6.998 -0.3268 -0.6074  0.3855
  125OSM    H4F13373   5.299   2.129   7.040  1.1361 -1.4854 -0.2698
  125OSM    H4G13374   5.263   2.280   6.936  0.9423  1.5261  0.7362
  125OSM    C5F13375   5.373   2.318   7.121 -0.7740  0.6180  0.1039
  125OSM    H5F13376   5.423   2.410   7.083  0.4817  0.2458  0.8017
  125OSM    H5G13377   5.445   2.262   7.185 -1.1061 -0.4003 -0.4107
  125OSM    C6F13378   5.248   2.358   7.200  0.2014 -0.4445 -0.1780
  125OSM    H6F13379   5.288   2.404   7.293 -0.9768  0.1419  0.0439
  125OSM    H6G13380   5.191   2.265   7.216 -1.7354  0.4983 -1.4139
  125OSM    C7F13381   5.155   2.457   7.123 -0.0193 -0.8034 -0.6420
  125OSM    H7F13382   5.106   2.396   7.044 -1.6445  1.8252 -1.7425
  125OSM    H7G13383   5.212   2.542   7.079 -1.3870  2.0387  2.8355
  125OSM    C8F13384   5.030   2.506   7.208 -0.0686  0.1708 -0.0207
  125OSM    H8F13385   4.987   2.412   7.248  0.4403 -0.6172 -1.2923
  125OSM    H8G13386   4.957   2.550   7.136  0.4270  0.8177 -0.1356
  125OSM    C9F13387   5.068   2.618   7.306 -0.1949  0.2578 -0.2729
  125OSM    H9F13388   5.049   2.718   7.264  0.7437  0.4312 -0.2757
  125OSM   C10F13389   5.090   2.600   7.439  0.1693 -0.1078 -0.0738
  125OSM   H10F13390   5.114   2.691   7.496 -0.5412 -1.1831  1.9914
  125OSM   C11F13391   5.098   2.474   7.515  0.3622  0.0361 -1.2967
  125OSM   H11F13392   5.097   2.381   7.455  1.6778 -0.3033 -0.8032
  125OSM   H11G13393   5.000   2.470   7.568  1.4803  0.7403  0.9166
  125OSM   C12F13394   5.210   2.462   7.619 -0.0549 -0.4799 -0.1870
  125OSM   H12F13395   5.197   2.364   7.670 -0.9507 -0.2235  0.0935
  125OSM   H12G13396   5.182   2.529   7.703  1.7211 -1.4032  1.1767
  125OSM   C13F13397   5.349   2.487   7.569 -0.4154 -0.4646  0.5747
  125OSM   H13F13398   5.399   2.557   7.639  0.0143  0.0228 -0.2036
  125OSM   H13G13399   5.335   2.534   7.469  1.1313  0.0054  0.5668
  125OSM   C14F13400   5.434   2.368   7.570  0.0485  0.8159  0.4913
  125OSM   H14F13401   5.391   2.289   7.505 -1.2408 -0.6432  3.0502
  125OSM   H14G13402   5.436   2.318   7.669  0.2508 -1.6092 -0.6987
  125OSM   C15F13403   5.583   2.403   7.544  0.2864  0.6256  1.0725
  125OSM   H15F13404   5.640   2.322   7.594  0.0457 -0.6500 -0.6671
  125OSM   H15G13405   5.626   2.492   7.593  0.9753  0.6931  0.3574
  125OSM   C16F13406   5.624   2.400   7.395  0.4159 -0.3509 -0.5792
  125OSM   H16F13407   5.578   2.489   7.346 -0.7302  1.2206  3.1348
  125OSM   H16G13408   5.595   2.305   7.346 -1.0660 -0.7897  1.0748
  125OSM   C17F13409   5.773   2.415   7.376 -0.0880  0.5192  0.4224
  125OSM   H17F13410   5.814   2.323   7.422 -2.0732 -0.3849  0.4179
  125OSM   H17G13411   5.813   2.509   7.420 -1.3249  0.8802  0.7882
  125OSM   C18F13412   5.804   2.412   7.221 -0.5313  0.5852 -0.5745
  125OSM   H18F13413   5.756   2.321   7.179  0.8238 -1.8700  2.9039
  125OSM   H18G13414   5.913   2.397   7.205 -0.6522 -1.3435  0.2177
  125OSM   H18H13415   5.772   2.504   7.169 -2.2598  0.4241  0.1598
  126OSM      N13416   3.271   2.827   6.463  0.0395  0.7150 -0.2244
  126OSM    C1513417   3.288   2.892   6.599  0.0238  0.1672  0.2220
  126OSM   H15A13418   3.198   2.878   6.657  0.5032  1.3983  1.2804
  126OSM   H15B13419   3.316   2.996   6.589  2.1169 -0.4113 -0.1737
  126OSM   H15C13420   3.378   2.851   6.644 -0.6077  1.4606  2.7785
  126OSM    C1413421   3.244   2.674   6.482  0.3398 -0.0775 -0.8260
  126OSM   H14A13422   3.161   2.665   6.550  1.2202 -1.0858  0.1466
  126OSM   H14B13423   3.331   2.627   6.527 -1.0383 -0.9828  0.9779
  126OSM   H14C13424   3.218   2.624   6.390  0.4086 -1.2053 -0.2488
  126OSM    C1313425   3.146   2.889   6.392  0.2767  0.2057 -0.1943
  126OSM   H13A13426   3.105   2.823   6.317  1.4694 -1.3064  0.4650
  126OSM   H13B13427   3.170   2.975   6.332  0.0656  1.0931  0.9642
  126OSM   H13C13428   3.069   2.913   6.464  0.5465 -1.2467  0.5908
  126OSM    C1213429   3.397   2.849   6.375 -0.0181 -0.4487  0.2552
  126OSM   H12A13430   3.398   2.946   6.328 -0.8879 -1.0915 -1.1199
  126OSM   H12B13431   3.382   2.770   6.303 -3.2108  0.9491 -0.6819
  126OSM    C1113432   3.535   2.821   6.438 -0.6186  0.2426 -0.4259
  126OSM   H11A13433   3.563   2.921   6.476  1.2487 -0.1178 -0.7886
  126OSM   H11B13434   3.611   2.797   6.360  1.3695 -1.9062  2.0660
  126OSM      P13435   3.596   2.576   6.513 -0.3450  0.7321 -0.1061
  126OSM    O1313436   3.507   2.496   6.427 -0.6813 -0.0584 -0.7343
  126OSM    O1413437   3.742   2.589   6.472  0.4207 -0.2452  0.1122
  126OSM    O1113438   3.594   2.518   6.659  0.0213 -0.1973 -0.0858
  126OSM    O1213439   3.535   2.718   6.540 -0.1495 -0.2472 -0.7531
  126OSM    C1S13440   3.701   2.544   6.745 -0.3282 -0.1734 -0.1277
  126OSM    H1S13441   3.752   2.639   6.719  1.5917 -0.8756  0.9380
  126OSM    H1T13442   3.782   2.468   6.740 -0.9229 -0.6836 -3.2447
  126OSM     NF13443   3.761   2.587   6.993 -0.0306 -0.6445 -0.0441
  126OSM    HNF13444   3.799   2.521   7.056 -2.4757 -2.2504 -0.2004
  126OSM    C2S13445   3.662   2.544   6.900  0.0793  0.1053  0.3456
  126OSM    H2S13446   3.568   2.603   6.909 -0.8683 -1.4655  0.9243
  126OSM    C3S13447   3.604   2.397   6.937 -0.3531  0.7722  0.3623
  126OSM    H3S13448   3.690   2.328   6.954  1.1438  2.8172  1.3182
  126OSM     O313449   3.516   2.345   6.839  0.1274 -0.0527  0.0517
  126OSM    HO313450   3.520   2.410   6.769  0.8935 -1.2975 -1.1022
  126OSM    C4S13451   3.542   2.400   7.073  0.5376  0.2968 -0.2566
  126OSM    H4S13452   3.439   2.438   7.071  0.3148 -0.3226 -0.9483
  126OSM    C5S13453   3.593   2.329   7.168 -0.0550 -0.2076 -0.5285
  126OSM    H5S13454   3.684   2.269   7.160  0.2759  0.3829 -1.2006
  126OSM    C6S13455   3.543   2.322   7.311 -0.1419  0.4800  0.4627
  126OSM    H6S13456   3.620   2.275   7.376  0.6504  1.0079 -0.0753
  126OSM    H6T13457   3.449   2.264   7.304  0.4969 -0.8922  2.8118
  126OSM    C7S13458   3.514   2.459   7.378 -1.1061 -0.7627  0.2649
  126OSM    H7S13459   3.447   2.508   7.303  0.1824 -1.5656 -1.4354
  126OSM    H7T13460   3.604   2.519   7.401 -1.0737 -0.9472  0.6144
  126OSM    C8S13461   3.439   2.451   7.509 -0.1389 -0.4871 -0.8097
  126OSM    H8S13462   3.330   2.439   7.495 -0.4956 -1.4992  2.4254
  126OSM    H8T13463   3.445   2.554   7.550  0.7225 -0.8206 -0.0755
  126OSM    C9S13464   3.497   2.355   7.614 -0.3359 -0.1698 -0.2304
  126OSM    H9S13465   3.477   2.249   7.586  1.7757 -0.6154 -0.1546
  126OSM    H9T13466   3.448   2.377   7.711  0.8686 -0.6117  0.4925
  126OSM   C10S13467   3.651   2.364   7.632  0.5289  0.0904  0.0856
  126OSM   H10S13468   3.686   2.467   7.612 -0.1893  0.3135 -0.0238
  126OSM   H10T13469   3.694   2.309   7.545 -1.5280 -0.8745 -0.3581
  126OSM   C11S13470   3.714   2.315   7.759 -0.4461  0.1489 -0.1649
  126OSM   H11S13471   3.677   2.373   7.847 -0.2517  0.3575 -0.2212
  126OSM   H11T13472   3.825   2.323   7.765 -0.5730  0.6009  2.3137
  126OSM   C12S13473   3.687   2.161   7.790 -0.1828 -0.7887 -0.0352
  126OSM   H12S13474   3.701   2.090   7.705 -0.6371 -0.5258 -0.3321
  126OSM   H12T13475   3.578   2.160   7.811  0.0164  0.9486  1.2178
  126OSM   C13S13476   3.770   2.106   7.905  0.0592 -0.3639 -0.1837
  126OSM   H13S13477   3.875   2.142   7.895 -0.2188  0.7890  0.9580
  126OSM   H13T13478   3.763   1.996   7.912 -1.1473 -0.2877 -0.0881
  126OSM   C14S13479   3.703   2.167   8.028  0.8077 -0.0906 -0.3471
  126OSM   H14S13480   3.606   2.118   8.052 -0.3063  3.1370  1.9901
  126OSM   H14T13481   3.674   2.273   8.014  0.2373  0.3571  3.7571
  126OSM   C15S13482   3.796   2.151   8.142 -0.3265 -0.3424 -0.4729
  126OSM   H15S13483   3.763   2.207   8.232 -0.3485 -2.5907  0.9516
  126OSM   H15T13484   3.888   2.205   8.110 -1.7273  1.8154 -0.9528
  126OSM   C16S13485   3.825   2.012   8.190  0.1458  0.2048  0.1045
  126OSM   H16S13486   3.881   2.008   8.286  0.3635  0.7852  0.0019
  126OSM   H16T13487   3.862   1.938   8.116 -1.6634 -0.0281 -0.6016
  126OSM   C17S13488   3.699   1.938   8.247  0.4049  0.3632  0.2634
  126OSM   H17S13489   3.652   1.890   8.158  2.8131 -2.0439  0.2343
  126OSM   H17T13490   3.635   2.024   8.277 -2.0955 -1.7335  1.1116
  126OSM   C18S13491   3.727   1.846   8.366  0.9772  0.2216  0.6127
  126OSM   H18S13492   3.735   1.911   8.455  2.4542  0.2811  0.4485
  126OSM   H18T13493   3.824   1.793   8.351  0.4970 -0.1293 -1.3821
  126OSM   H18U13494   3.640   1.778   8.380  1.0905 -0.7716 -2.9284
  126OSM    C1F13495   3.796   2.720   7.004 -0.4688 -0.5317 -0.1275
  126OSM     OF13496   3.756   2.804   6.929  0.2747  0.1045  0.0263
  126OSM    C2F13497   3.889   2.758   7.113 -0.1309  0.3024  0.3410
  126OSM    H2F13498   3.935   2.857   7.092 -0.5822  0.1985 -1.1504
  126OSM    H2G13499   3.962   2.675   7.118  2.6830  2.5186 -2.2005
  126OSM    C3F13500   3.822   2.757   7.252  0.7479 -0.2946 -0.5622
  126OSM    H3F13501   3.795   2.650   7.267 -1.8812  0.0134 -2.8097
  126OSM    H3G13502   3.726   2.807   7.275 -0.9742 -2.6871 -2.4031
  126OSM    C4F13503   3.917   2.793   7.367  0.0150 -0.4049  0.6100
  126OSM    H4F13504   3.962   2.893   7.353  2.1345 -1.5718 -1.2829
  126OSM    H4G13505   4.006   2.726   7.361  0.9942  0.7098  2.3494
  126OSM    C5F13506   3.864   2.777   7.510  0.0890  0.1186  0.3772
  126OSM    H5F13507   3.821   2.675   7.499 -2.2145  1.0786  0.2031
  126OSM    H5G13508   3.768   2.832   7.517 -1.1026 -1.7254 -0.9242
  126OSM    C6F13509   3.960   2.816   7.625  0.1097 -0.0379  0.0218
  126OSM    H6F13510   3.985   2.922   7.606 -0.2623 -0.1322 -1.0036
  126OSM    H6G13511   4.048   2.751   7.606  0.8646  1.0485 -0.2231
  126OSM    C7F13512   3.908   2.791   7.771 -0.1484  0.1389 -0.0806
  126OSM    H7F13513   3.891   2.682   7.779  1.4493 -0.0043  1.6579
  126OSM    H7G13514   3.806   2.836   7.774  0.6828  2.1060 -0.1997
  126OSM    C8F13515   4.001   2.834   7.885 -0.0001  0.1216 -0.3979
  126OSM    H8F13516   4.019   2.940   7.857  1.3473 -0.6575 -2.5038
  126OSM    H8G13517   4.096   2.777   7.882  0.5898  1.1627 -1.6259
  126OSM    C9F13518   3.934   2.825   8.024 -0.0862  0.7649 -0.2528
  126OSM    H9F13519   3.879   2.914   8.055  0.2559  0.8605  0.0837
  126OSM   C10F13520   3.919   2.717   8.104 -0.1016 -0.1347  0.3585
  126OSM   H10F13521   3.851   2.721   8.189  2.2133  2.5361  2.1898
  126OSM   C11F13522   3.963   2.578   8.072 -0.8326  0.7779 -0.1572
  126OSM   H11F13523   4.003   2.572   7.968  0.8438  1.6208  0.4074
  126OSM   H11G13524   3.878   2.507   8.077  0.4106 -0.7769 -0.5552
  126OSM   C12F13525   4.075   2.523   8.160 -0.0668  0.1640 -0.1145
  126OSM   H12F13526   4.103   2.421   8.127 -0.2510  0.6116 -1.7146
  126OSM   H12G13527   4.033   2.517   8.263 -0.0030 -0.6982 -0.1415
  126OSM   C13F13528   4.209   2.606   8.143  0.4204 -0.0219 -0.1247
  126OSM   H13F13529   4.208   2.699   8.203  0.4067  2.7964 -4.2601
  126OSM   H13G13530   4.211   2.642   8.037 -0.5834  0.5142  0.0325
  126OSM   C14F13531   4.335   2.532   8.171  0.2072  0.0381  0.5957
  126OSM   H14F13532   4.404   2.619   8.177  1.4908 -0.8289 -1.0808
  126OSM   H14G13533   4.371   2.459   8.094  2.4411  3.2496 -1.5339
  126OSM   C15F13534   4.327   2.458   8.311 -0.3685  0.0959 -0.1802
  126OSM   H15F13535   4.251   2.380   8.293 -3.1554  2.3491  1.4811
  126OSM   H15G13536   4.279   2.528   8.382  1.9112  0.6782  0.8529
  126OSM   C16F13537   4.462   2.404   8.368 -0.3994 -0.3636 -0.1813
  126OSM   H16F13538   4.549   2.472   8.357  0.7756 -1.3756  2.5687
  126OSM   H16G13539   4.490   2.318   8.305  1.9564 -0.5248  1.0509
  126OSM   C17F13540   4.468   2.365   8.520 -0.5876  0.2737  0.0492
  126OSM   H17F13541   4.521   2.268   8.523 -0.0790  0.4723 -1.6717
  126OSM   H17G13542   4.361   2.345   8.544 -1.2925  1.3476 -2.0611
  126OSM   C18F13543   4.540   2.471   8.604 -0.5112  0.0318 -0.8359
  126OSM   H18F13544   4.505   2.575   8.590  0.1165  0.4803  0.8317
  126OSM   H18G13545   4.650   2.458   8.601 -0.5917 -0.8704 -0.2088
  126OSM   H18H13546   4.510   2.436   8.705  0.2335 -0.4141 -0.7666
  127OSM      N13547   4.411   0.907   5.868  0.3710  0.1241 -0.1270
  127OSM    C1513548   4.388   1.050   5.826 -0.4652 -0.4130 -0.2810
  127OSM   H15A13549   4.481   1.107   5.826 -0.2438 -0.7727  0.3895
  127OSM   H15B13550   4.316   1.106   5.884 -0.3912 -0.6450  0.0351
  127OSM   H15C13551   4.359   1.051   5.722  2.6160  1.0119 -1.2127
  127OSM    C1413552   4.408   0.911   6.021  0.6559 -0.3226 -0.2634
  127OSM   H14A13553   4.307   0.936   6.051  1.2890 -0.3221  1.9838
  127OSM   H14B13554   4.468   0.996   6.047 -0.2938  0.2150  0.1977
  127OSM   H14C13555   4.448   0.827   6.077 -2.3788 -1.5906  0.1432
  127OSM    C1313556   4.289   0.822   5.824  0.6784  0.0913 -0.5026
  127OSM   H13A13557   4.209   0.894   5.814 -0.1983 -1.0366 -1.5713
  127OSM   H13B13558   4.263   0.734   5.880 -0.0024 -0.0327 -1.0145
  127OSM   H13C13559   4.319   0.787   5.726  0.2508  2.8416 -1.6604
  127OSM    C1213560   4.543   0.846   5.816 -0.2055 -0.4909  0.0592
  127OSM   H12A13561   4.629   0.905   5.844 -1.0410  1.5566 -1.5274
  127OSM   H12B13562   4.528   0.837   5.709  0.6552  0.4389 -0.1531
  127OSM    C1113563   4.572   0.701   5.869 -0.1630  0.6333 -0.3492
  127OSM   H11A13564   4.662   0.673   5.810 -0.6549 -1.0134 -0.3671
  127OSM   H11B13565   4.495   0.627   5.836 -0.4537  1.6319 -1.9552
  127OSM      P13566   4.713   0.746   6.094  0.0997  0.5306  0.0384
  127OSM    O1313567   4.838   0.689   6.034 -0.4879 -0.2891  0.1063
  127OSM    O1413568   4.708   0.892   6.095 -0.3351  0.2599 -0.1459
  127OSM    O1113569   4.689   0.685   6.247  0.5912  1.2526 -0.0825
  127OSM    O1213570   4.581   0.695   6.014 -0.4748  0.6536  0.5325
  127OSM    C1S13571   4.727   0.787   6.347 -0.2658  0.4491 -0.2355
  127OSM    H1S13572   4.653   0.869   6.348  2.5062  3.0518  0.5902
  127OSM    H1T13573   4.829   0.828   6.332 -0.3567  1.5062  1.9608
  127OSM     NF13574   4.733   0.819   6.584 -0.1524 -0.2205  0.3941
  127OSM    HNF13575   4.821   0.857   6.611 -0.7533  1.0589  0.5627
  127OSM    C2S13576   4.731   0.713   6.485 -0.9706 -0.1963 -0.1066
  127OSM    H2S13577   4.632   0.664   6.501 -0.0142 -1.4804  2.1667
  127OSM    C3S13578   4.853   0.608   6.486  0.1462 -0.0844 -0.2438
  127OSM    H3S13579   4.942   0.674   6.481  0.1243 -0.0988 -0.8581
  127OSM     O313580   4.850   0.509   6.380  0.2752 -0.4076  0.4836
  127OSM    HO313581   4.775   0.531   6.325  1.2003  0.7228 -0.3491
  127OSM    C4S13582   4.851   0.548   6.629 -0.3661  0.4761  0.3761
  127OSM    H4S13583   4.921   0.595   6.698  1.8218 -0.7758 -0.9384
  127OSM    C5S13584   4.772   0.449   6.664 -0.3980  0.4848 -0.1588
  127OSM    H5S13585   4.704   0.395   6.598  1.1790  0.0144 -1.4277
  127OSM    C6S13586   4.778   0.401   6.813  0.3443 -0.9093 -0.3027
  127OSM    H6S13587   4.791   0.291   6.811 -2.1531 -1.2261 -0.3342
  127OSM    H6T13588   4.686   0.440   6.862  1.4627  2.5985 -0.8822
  127OSM    C7S13589   4.888   0.455   6.907  0.1943  0.5000 -0.0727
  127OSM    H7S13590   4.876   0.560   6.940  1.2086  0.4934  0.3196
  127OSM    H7T13591   4.989   0.427   6.872  0.6623 -1.9012  3.0218
  127OSM    C8S13592   4.890   0.379   7.044 -0.0400  0.1047  0.5012
  127OSM    H8S13593   4.916   0.273   7.019 -1.0766 -0.0836  0.2239
  127OSM    H8T13594   4.788   0.388   7.087 -0.4776 -1.9190 -0.0444
  127OSM    C9S13595   4.999   0.436   7.143  0.8160  0.2034  0.1298
  127OSM    H9S13596   4.988   0.546   7.156  1.1248  0.1576  0.8377
  127OSM    H9T13597   5.101   0.425   7.101  0.7109  0.0018 -0.0738
  127OSM   C10S13598   4.991   0.368   7.279 -0.2094 -0.0736 -0.6789
  127OSM   H10S13599   5.009   0.259   7.272 -0.8372 -0.2171 -0.0640
  127OSM   H10T13600   4.888   0.382   7.318 -0.6711 -3.3427 -0.5537
  127OSM   C11S13601   5.088   0.422   7.388 -0.2024 -0.8154 -0.0160
  127OSM   H11S13602   5.087   0.533   7.395  0.2900 -0.8789  1.1377
  127OSM   H11T13603   5.192   0.385   7.373  0.9484  1.6464  1.5156
  127OSM   C12S13604   5.065   0.357   7.527  0.1795  0.0314  0.9319
  127OSM   H12S13605   5.056   0.248   7.511  1.0443  0.0950 -0.0683
  127OSM   H12T13606   4.967   0.391   7.568 -1.3411 -2.1453 -0.7680
  127OSM   C13S13607   5.176   0.371   7.635  0.2967  0.5506 -0.2995
  127OSM   H13S13608   5.189   0.479   7.656  0.8406  0.6024 -0.8849
  127OSM   H13T13609   5.273   0.324   7.607  0.2786  0.4372 -0.1676
  127OSM   C14S13610   5.126   0.324   7.777  0.4315  0.3137  0.1910
  127OSM   H14S13611   5.125   0.213   7.777 -0.6677  0.3016  2.2816
  127OSM   H14T13612   5.020   0.354   7.791 -0.9564 -2.9542 -2.5855
  127OSM   C15S13613   5.210   0.384   7.892  0.2108  0.1510 -0.1434
  127OSM   H15S13614   5.201   0.494   7.896  0.0789  0.1143  0.5626
  127OSM   H15T13615   5.317   0.366   7.866  0.9266  1.8558  1.5705
  127OSM   C16S13616   5.187   0.318   8.036  0.3871 -0.0877 -0.0467
  127OSM   H16S13617   5.189   0.207   8.039  1.7642 -0.1149 -1.6708
  127OSM   H16T13618   5.088   0.338   8.082 -1.9730  0.6928 -5.1856
  127OSM   C17S13619   5.282   0.374   8.134 -0.4495 -0.0351  0.7680
  127OSM   H17S13620   5.281   0.483   8.117  1.5801 -0.2995 -1.2649
  127OSM   H17T13621   5.389   0.348   8.117 -0.3141  1.0692 -0.0979
  127OSM   C18S13622   5.260   0.328   8.286 -0.2314  0.5210  0.2115
  127OSM   H18S13623   5.333   0.380   8.352  1.4553 -0.1875 -1.0423
  127OSM   H18T13624   5.261   0.218   8.299 -0.8227  0.5743  0.6939
  127OSM   H18U13625   5.157   0.356   8.317 -0.0267  1.3678  0.1605
  127OSM    C1F13626   4.624   0.885   6.622  0.0859 -0.8901  0.0729
  127OSM     OF13627   4.513   0.870   6.580  0.4960 -0.8677  0.1201
  127OSM    C2F13628   4.654   0.999   6.722 -0.3085 -0.3052  0.5085
  127OSM    H2F13629   4.589   1.087   6.702 -0.9801 -1.0234 -0.4815
  127OSM    H2G13630   4.760   1.032   6.720 -0.9984  2.0320  0.9010
  127OSM    C3F13631   4.615   0.966   6.868 -0.6436  0.3719  0.0943
  127OSM    H3F13632   4.511   0.926   6.868 -0.3366 -0.4734  2.0403
  127OSM    H3G13633   4.603   1.061   6.924 -2.5863 -0.7142  1.5703
  127OSM    C4F13634   4.716   0.870   6.940 -0.5018 -0.9143  0.6295
  127OSM    H4F13635   4.819   0.906   6.919 -0.1969 -1.2864  1.4448
  127OSM    H4G13636   4.722   0.766   6.903  0.9633 -0.6490  0.0813
  127OSM    C5F13637   4.685   0.875   7.093 -0.2788 -0.2748 -0.9149
  127OSM    H5F13638   4.575   0.871   7.108 -0.0357  1.6536  1.7803
  127OSM    H5G13639   4.721   0.965   7.148  1.1261  0.5962 -3.1572
  127OSM    C6F13640   4.751   0.755   7.163 -0.3190 -0.3811  0.1608
  127OSM    H6F13641   4.859   0.784   7.161 -1.3955  3.9792 -1.6678
  127OSM    H6G13642   4.747   0.662   7.103  1.2738 -0.6350  0.4197
  127OSM    C7F13643   4.684   0.724   7.296 -0.1677 -0.2521 -0.6089
  127OSM    H7F13644   4.695   0.615   7.312 -0.3968 -0.2996 -0.7776
  127OSM    H7G13645   4.578   0.755   7.288 -1.5794 -4.4412  0.8130
  127OSM    C8F13646   4.754   0.784   7.412 -0.4120  0.0433  0.0957
  127OSM    H8F13647   4.794   0.885   7.390 -0.4063  0.3926  1.7108
  127OSM    H8G13648   4.853   0.739   7.438  0.7627  2.4561 -0.0749
  127OSM    C9F13649   4.668   0.778   7.527  0.1882 -0.0302 -0.5020
  127OSM    H9F13650   4.564   0.810   7.512  0.2058 -0.3326 -1.2664
  127OSM   C10F13651   4.704   0.724   7.642  0.1900  0.3402  0.1439
  127OSM   H10F13652   4.636   0.739   7.727 -1.0507 -0.2038 -0.7391
  127OSM   C11F13653   4.828   0.655   7.668  0.9237  0.4269  0.1403
  127OSM   H11F13654   4.910   0.723   7.637  1.8579 -0.8044 -0.1602
  127OSM   H11G13655   4.836   0.569   7.599 -1.3645 -1.5100  2.1997
  127OSM   C12F13656   4.864   0.596   7.806 -0.3846  0.4492 -0.1719
  127OSM   H12F13657   4.967   0.555   7.800  0.2757  1.6497  2.4607
  127OSM   H12G13658   4.802   0.507   7.831  1.6680 -0.7633  0.7496
  127OSM   C13F13659   4.860   0.697   7.928 -0.3578 -0.3295  0.3975
  127OSM   H13F13660   4.756   0.728   7.953 -0.5438  0.0331 -0.7989
  127OSM   H13G13661   4.923   0.787   7.918 -0.0300 -0.6384 -0.3414
  127OSM   C14F13662   4.904   0.618   8.057  0.3898  1.0313  0.2305
  127OSM   H14F13663   5.013   0.602   8.067  0.6647  1.4184 -1.8554
  127OSM   H14G13664   4.856   0.519   8.048  0.1349  0.9571  2.2129
  127OSM   C15F13665   4.841   0.694   8.181  0.1949  0.0931  1.1664
  127OSM   H15F13666   4.732   0.675   8.170  0.8537 -2.0159 -2.8521
  127OSM   H15G13667   4.853   0.805   8.182  1.2721  0.0664 -1.9403
  127OSM   C16F13668   4.888   0.630   8.313  0.3466 -0.6258  0.5993
  127OSM   H16F13669   4.999   0.624   8.324  0.4829 -1.9578 -1.2541
  127OSM   H16G13670   4.864   0.522   8.310  0.3820 -0.6044 -1.6625
  127OSM   C17F13671   4.833   0.701   8.434  1.6968  0.4006 -0.4155
  127OSM   H17F13672   4.807   0.808   8.420 -2.7303 -0.4516  0.5278
  127OSM   H17G13673   4.908   0.683   8.514  1.4011 -0.1148 -0.2559
  127OSM   C18F13674   4.702   0.630   8.480  1.0208 -0.1893  0.7649
  127OSM   H18F13675   4.711   0.520   8.495 -0.4093 -0.1005  2.3741
  127OSM   H18G13676   4.624   0.633   8.401  0.3543  0.6376  1.4469
  127OSM   H18H13677   4.658   0.673   8.572 -1.5470  2.0378 -1.4084
  128OSM      N13678   0.703   4.380   6.085 -0.3765 -0.2438  0.4267
  128OSM    C1513679   0.848   4.400   6.046  0.1577 -0.1739 -0.4146
  128OSM   H15A13680   0.917   4.328   6.088  0.6803  2.1288  2.8322
  128OSM   H15B13681   0.878   4.491   6.096  1.2113 -0.5029 -0.4296
  128OSM   H15C13682   0.859   4.419   5.940 -1.2268  0.8144 -0.3915
  128OSM    C1413683   0.622   4.498   6.045 -0.2860 -0.3030 -1.0308
  128OSM   H14A13684   0.524   4.494   6.090  0.4165  0.7016  0.6378
  128OSM   H14B13685   0.626   4.504   5.937  0.3367 -1.1263 -1.0567
  128OSM   H14C13686   0.677   4.588   6.068 -0.2699  0.0220 -2.2915
  128OSM    C1313687   0.644   4.261   6.006 -0.1535 -0.5947  0.1880
  128OSM   H13A13688   0.641   4.282   5.900  0.8801  0.0125  0.2758
  128OSM   H13B13689   0.544   4.240   6.042 -0.2947 -1.6724 -0.7886
  128OSM   H13C13690   0.700   4.168   6.014 -2.4606 -1.9578  1.0880
  128OSM    C1213691   0.688   4.353   6.237  0.0287  0.5332  0.4185
  128OSM   H12A13692   0.729   4.438   6.288 -0.7796  1.4037 -0.3597
  128OSM   H12B13693   0.742   4.263   6.264 -0.1594 -0.3014 -1.7972
  128OSM    C1113694   0.546   4.331   6.292  0.2020 -0.5047  0.1992
  128OSM   H11A13695   0.482   4.412   6.251  1.1297  0.8746  1.4381
  128OSM   H11B13696   0.532   4.342   6.402  1.0765 -2.6837  0.5464
  128OSM      P13697   0.519   4.079   6.314  0.3433  0.0403 -0.4034
  128OSM    O1313698   0.544   3.980   6.207  0.5180 -0.3791 -0.7377
  128OSM    O1413699   0.621   4.096   6.422  0.4668 -0.6713  0.5446
  128OSM    O1113700   0.383   4.038   6.388 -0.3117  0.7943 -0.6775
  128OSM    O1213701   0.477   4.217   6.247  0.1210 -0.4999 -0.1844
  128OSM    C1S13702   0.387   3.960   6.508 -0.4792 -0.3196 -0.1995
  128OSM    H1S13703   0.461   3.878   6.498  0.0769  0.0884  0.5416
  128OSM    H1T13704   0.293   3.900   6.514 -1.8020  1.7228  0.1277
  128OSM     NF13705   0.421   3.966   6.762  0.5684  0.4851  0.5637
  128OSM    HNF13706   0.337   3.953   6.813  0.4164  0.1018  0.2226
  128OSM    C2S13707   0.409   4.046   6.642 -0.2238 -0.0693  0.4611
  128OSM    H2S13708   0.502   4.105   6.625  1.6677 -2.4513  2.1863
  128OSM    C3S13709   0.289   4.146   6.663  0.0589 -0.3094  0.7527
  128OSM    H3S13710   0.202   4.086   6.698 -1.3808  1.6100  0.5397
  128OSM     O313711   0.240   4.209   6.540  0.2001 -0.1239  0.0820
  128OSM    HO313712   0.275   4.153   6.470  1.9163  0.4302  0.5025
  128OSM    C4S13713   0.328   4.243   6.770 -0.2579 -0.3726 -1.1553
  128OSM    H4S13714   0.318   4.211   6.875  2.4863 -1.2858 -1.1397
  128OSM    C5S13715   0.380   4.368   6.756 -0.0410 -0.2221 -0.1766
  128OSM    H5S13716   0.379   4.403   6.652 -0.2397 -0.0674 -0.1234
  128OSM    C6S13717   0.424   4.470   6.871 -0.4692  0.2698  0.3489
  128OSM    H6S13718   0.365   4.564   6.860 -0.7307 -0.0297 -0.9617
  128OSM    H6T13719   0.530   4.503   6.865  0.0489 -1.6986 -2.1656
  128OSM    C7S13720   0.396   4.423   7.014  0.5244  0.2881 -0.9072
  128OSM    H7S13721   0.430   4.317   7.017 -2.9780 -0.8526  0.6079
  128OSM    H7T13722   0.287   4.413   7.032  0.8962  0.1119  1.4738
  128OSM    C8S13723   0.439   4.520   7.129 -0.1442  0.4750 -0.4224
  128OSM    H8S13724   0.398   4.621   7.109 -0.0905  0.2453 -1.7706
  128OSM    H8T13725   0.549   4.523   7.120 -0.2631 -0.8965 -2.7455
  128OSM    C9S13726   0.412   4.463   7.269 -0.0243  0.1333 -0.1907
  128OSM    H9S13727   0.479   4.378   7.291  0.0293 -0.1367 -1.3864
  128OSM    H9T13728   0.308   4.424   7.279  0.9247 -3.3930 -3.0188
  128OSM   C10S13729   0.433   4.578   7.380 -0.3139  0.4150 -0.7321
  128OSM   H10S13730   0.374   4.662   7.338  0.1827  1.6344  0.9502
  128OSM   H10T13731   0.540   4.607   7.388 -1.4562  4.2932  2.1808
  128OSM   C11S13732   0.392   4.545   7.524 -0.0868  0.1749 -0.6292
  128OSM   H11S13733   0.471   4.489   7.578  0.7643  0.1816 -1.8401
  128OSM   H11T13734   0.297   4.487   7.523 -0.8497  1.4174 -0.4566
  128OSM   C12S13735   0.367   4.675   7.602  0.2085  0.2244 -0.5460
  128OSM   H12S13736   0.303   4.750   7.550 -1.4296 -0.0909  0.9354
  128OSM   H12T13737   0.462   4.731   7.611  0.4463 -0.0187 -1.5679
  128OSM   C13S13738   0.310   4.644   7.742  0.8557  0.5349  0.0959
  128OSM   H13S13739   0.384   4.578   7.791  2.7809  1.7676 -1.1200
  128OSM   H13T13740   0.214   4.587   7.737  1.4057 -0.4238  0.3756
  128OSM   C14S13741   0.291   4.760   7.839  0.6193  0.9489  0.1415
  128OSM   H14S13742   0.386   4.817   7.849  1.2307  0.9649 -4.6160
  128OSM   H14T13743   0.268   4.726   7.942  0.7755  1.2644  0.2783
  128OSM   C15S13744   0.171   4.849   7.796 -0.0058  0.1205  0.4063
  128OSM   H15S13745   0.081   4.783   7.794  0.8432 -1.3577  4.5124
  128OSM   H15T13746   0.194   4.892   7.696 -1.5162 -0.0475 -0.0183
  128OSM   C16S13747   0.156   4.957   7.907 -0.0531  0.4009  0.3742
  128OSM   H16S13748   0.252   5.012   7.923  0.1067 -0.7322  3.8687
  128OSM   H16T13749   0.145   4.903   8.004  0.3890 -0.1350  0.1292
  128OSM   C17S13750   0.028   5.040   7.893 -0.1109 -1.0624  0.2934
  128OSM   H17S13751  -0.058   4.975   7.920 -0.8440  0.8321  2.5574
  128OSM   H17T13752   0.017   5.067   7.785  1.1156 -0.4530  0.3144
  128OSM   C18S13753   0.024   5.166   7.983  0.2199  0.3351 -0.0884
  128OSM   H18S13754   0.013   5.142   8.091  2.2484 -1.5647 -0.2838
  128OSM   H18T13755  -0.071   5.216   7.952 -0.8249 -0.3895  1.8695
  128OSM   H18U13756   0.117   5.224   7.967 -0.2152  1.3384  0.9602
  128OSM    C1F13757   0.533   3.891   6.777  0.3525 -0.1653 -0.2943
  128OSM     OF13758   0.635   3.937   6.733  0.2219  0.3607 -0.1228
  128OSM    C2F13759   0.505   3.768   6.838 -0.2050  0.2232 -0.0178
  128OSM    H2F13760   0.484   3.686   6.766  1.3559 -1.5353  1.4966
  128OSM    H2G13761   0.410   3.783   6.894 -0.4402 -1.3058  0.0339
  128OSM    C3F13762   0.608   3.717   6.942 -0.2220  0.4599  0.3954
  128OSM    H3F13763   0.646   3.804   6.999  0.4824  1.1034 -1.0476
  128OSM    H3G13764   0.692   3.666   6.891  1.4838  0.8871  2.7279
  128OSM    C4F13765   0.555   3.608   7.033 -0.2881  0.7001 -0.7692
  128OSM    H4F13766   0.646   3.563   7.076 -1.9454 -1.6061  0.4223
  128OSM    H4G13767   0.498   3.529   6.980  0.1201  0.9815 -1.6390
  128OSM    C5F13768   0.488   3.667   7.165  0.0486  0.0375 -0.4384
  128OSM    H5F13769   0.385   3.702   7.143  0.0036 -0.1440 -0.5114
  128OSM    H5G13770   0.552   3.748   7.207  0.0848 -0.9671  1.5035
  128OSM    C6F13771   0.486   3.571   7.285  0.1456  0.2026  0.2306
  128OSM    H6F13772   0.585   3.538   7.324 -0.3568 -2.3223 -0.5499
  128OSM    H6G13773   0.438   3.481   7.242  0.7561  0.4828 -1.0543
  128OSM    C7F13774   0.404   3.629   7.398 -1.1156 -0.2447  0.2070
  128OSM    H7F13775   0.357   3.552   7.463 -1.4839 -0.9262 -0.8460
  128OSM    H7G13776   0.319   3.683   7.350 -1.5174 -1.2547 -0.2463
  128OSM    C8F13777   0.478   3.725   7.495 -0.8938  0.2671 -0.4221
  128OSM    H8F13778   0.404   3.785   7.551 -0.6755 -0.9176  1.1416
  128OSM    H8G13779   0.547   3.784   7.430 -1.5316 -0.8548 -2.1615
  128OSM    C9F13780   0.565   3.651   7.591  0.5882  0.6831 -0.3729
  128OSM    H9F13781   0.645   3.593   7.543 -0.0622 -0.1151 -0.5106
  128OSM   C10F13782   0.542   3.641   7.722 -0.1620 -0.0516 -0.1683
  128OSM   H10F13783   0.606   3.577   7.784 -1.4732 -1.5823 -0.3528
  128OSM   C11F13784   0.438   3.713   7.797 -0.7027 -0.1419  0.1421
  128OSM   H11F13785   0.334   3.693   7.763 -0.0111 -2.5557 -0.6654
  128OSM   H11G13786   0.451   3.822   7.784  1.2121 -0.4768 -0.9265
  128OSM   C12F13787   0.432   3.669   7.950 -0.2427 -0.6472 -0.6460
  128OSM   H12F13788   0.532   3.691   7.992 -1.0038  0.1718  0.7541
  128OSM   H12G13789   0.405   3.561   7.953  0.5640 -0.8362 -0.0881
  128OSM   C13F13790   0.336   3.749   8.033  0.4133 -0.0016 -0.7439
  128OSM   H13F13791   0.234   3.734   7.991  0.7524 -0.5512 -1.3726
  128OSM   H13G13792   0.368   3.856   8.031  0.6817  0.0268  2.5811
  128OSM   C14F13793   0.346   3.721   8.186  0.4300 -0.1387 -0.3087
  128OSM   H14F13794   0.447   3.730   8.230 -0.3830 -1.2128  1.8493
  128OSM   H14G13795   0.312   3.618   8.212  1.7006  0.2887  3.3904
  128OSM   C15F13796   0.249   3.824   8.254 -0.6698 -0.2953 -0.3477
  128OSM   H15F13797   0.153   3.810   8.201 -1.6486 -0.2269  1.3829
  128OSM   H15G13798   0.299   3.922   8.237  2.0512 -1.4163  0.8983
  128OSM   C16F13799   0.233   3.813   8.403 -0.3164  0.5477 -0.3783
  128OSM   H16F13800   0.333   3.819   8.452 -1.2895 -0.0566  1.7415
  128OSM   H16G13801   0.190   3.713   8.424 -1.0784  0.8290 -0.5872
  128OSM   C17F13802   0.143   3.922   8.467 -0.2066  0.6954 -0.0057
  128OSM   H17F13803   0.135   3.902   8.576  0.2010 -0.8333 -0.2376
  128OSM   H17G13804   0.037   3.921   8.432 -0.1486 -0.0771 -0.1778
  128OSM   C18F13805   0.202   4.061   8.446  0.1175  0.4348  0.1919
  128OSM   H18F13806   0.313   4.072   8.454 -0.2133  3.4182  1.5773
  128OSM   H18G13807   0.165   4.141   8.515  0.2292  1.3710 -0.8279
  128OSM   H18H13808   0.184   4.098   8.343 -0.9750  2.1013  0.9582
  129OSM      N13809   3.690   0.621   6.419 -0.1362  0.9762 -0.4160
  129OSM    C1513810   3.657   0.747   6.486 -0.0956  0.3769 -0.1205
  129OSM   H15A13811   3.558   0.752   6.527  0.4714 -0.1847  1.3587
  129OSM   H15B13812   3.681   0.828   6.419 -0.1878 -0.3325 -1.0265
  129OSM   H15C13813   3.718   0.771   6.572 -1.9910  0.5848  1.1847
  129OSM    C1413814   3.636   0.516   6.519  0.4535 -0.1819 -0.2860
  129OSM   H14A13815   3.648   0.417   6.478 -0.3390 -0.3552 -0.1038
  129OSM   H14B13816   3.530   0.525   6.538  0.3681 -0.6032 -0.5499
  129OSM   H14C13817   3.699   0.515   6.607  1.7470 -1.4898 -1.2085
  129OSM    C1313818   3.619   0.606   6.288  0.3710  0.5215 -0.8204
  129OSM   H13A13819   3.647   0.688   6.224  0.9133  0.7119 -0.3365
  129OSM   H13B13820   3.511   0.604   6.297  0.5042 -0.4773  0.6983
  129OSM   H13C13821   3.636   0.511   6.240 -0.1126 -0.5677  1.0961
  129OSM    C1213822   3.844   0.616   6.391  0.4941 -0.4202 -0.5419
  129OSM   H12A13823   3.883   0.667   6.478 -2.6384 -0.7272  1.1380
  129OSM   H12B13824   3.872   0.675   6.306 -1.0117 -1.9743 -2.1524
  129OSM    C1113825   3.907   0.471   6.379 -0.3132  0.1680 -0.3079
  129OSM   H11A13826   3.832   0.394   6.406 -1.2526  1.9428  2.3239
  129OSM   H11B13827   3.992   0.464   6.450  1.3268 -2.6219 -2.4451
  129OSM      P13828   4.067   0.521   6.182  0.1506 -0.0069  0.0054
  129OSM    O1313829   4.127   0.438   6.076  0.1210 -1.0240  1.0849
  129OSM    O1413830   4.008   0.655   6.155  0.1108  0.3600  0.4080
  129OSM    O1113831   4.168   0.524   6.298 -0.0102  0.2789 -0.4111
  129OSM    O1213832   3.949   0.440   6.243  0.8003 -0.0939 -0.4137
  129OSM    C1S13833   4.222   0.651   6.359  0.3292 -0.5240 -0.3005
  129OSM    H1S13834   4.164   0.745   6.343 -0.6911 -1.0018  0.5182
  129OSM    H1T13835   4.326   0.671   6.328  0.9238 -2.1519  0.5861
  129OSM     NF13836   4.254   0.776   6.575 -0.2396 -0.0100 -0.2623
  129OSM    HNF13837   4.346   0.813   6.568 -0.2067  0.0570  0.4698
  129OSM    C2S13838   4.226   0.642   6.514 -0.2536 -0.0434 -0.0612
  129OSM    H2S13839   4.128   0.600   6.547 -0.8565  0.2679 -1.4366
  129OSM    C3S13840   4.341   0.545   6.552 -0.6656 -0.2865 -0.1873
  129OSM    H3S13841   4.437   0.594   6.525 -1.3759  2.1338  1.5084
  129OSM     O313842   4.344   0.427   6.480  0.0126 -0.1801 -0.4111
  129OSM    HO313843   4.290   0.447   6.403  0.9566 -0.7036 -1.2211
  129OSM    C4S13844   4.349   0.518   6.700  0.0076  0.0207  0.5639
  129OSM    H4S13845   4.279   0.447   6.747  0.4062 -0.8668 -0.1828
  129OSM    C5S13846   4.435   0.575   6.783 -0.2766 -0.2097  0.3607
  129OSM    H5S13847   4.514   0.645   6.750 -0.7974 -0.0677 -0.6220
  129OSM    C6S13848   4.451   0.537   6.926 -0.1448  0.6885  0.3489
  129OSM    H6S13849   4.398   0.607   6.994 -0.1441  4.1604 -3.0940
  129OSM    H6T13850   4.559   0.538   6.952  0.2553 -1.8288 -0.9967
  129OSM    C7S13851   4.388   0.405   6.962  0.2014  0.1678 -0.5299
  129OSM    H7S13852   4.389   0.331   6.879 -0.3086 -1.4084  0.8411
  129OSM    H7T13853   4.283   0.426   6.993  0.1592 -1.6239  0.6351
  129OSM    C8S13854   4.458   0.346   7.083  0.3500  0.0323 -0.3154
  129OSM    H8S13855   4.560   0.310   7.055  1.1478  0.3431  2.0975
  129OSM    H8T13856   4.404   0.253   7.110  1.6996 -1.3163 -2.1073
  129OSM    C9S13857   4.460   0.427   7.209  0.6057 -0.1055  0.7773
  129OSM    H9S13858   4.355   0.429   7.247  0.0602 -0.7440 -0.6880
  129OSM    H9T13859   4.490   0.534   7.202 -1.6874  0.5056 -0.2302
  129OSM   C10S13860   4.545   0.360   7.327  0.3858  0.6569  0.2175
  129OSM   H10S13861   4.654   0.367   7.312  0.4166  0.1726  0.2259
  129OSM   H10T13862   4.520   0.252   7.326  0.9556  0.5318 -0.7149
  129OSM   C11S13863   4.504   0.410   7.460  0.1429 -0.0045 -0.1469
  129OSM   H11S13864   4.393   0.410   7.464  0.0941  1.5453 -1.1104
  129OSM   H11T13865   4.531   0.517   7.472  2.3395 -0.4634 -0.7924
  129OSM   C12S13866   4.546   0.320   7.580 -0.3075  0.3003  0.2101
  129OSM   H12S13867   4.651   0.300   7.608 -1.1931 -3.5568  1.0651
  129OSM   H12T13868   4.499   0.220   7.564 -2.6360  0.9694  2.4223
  129OSM   C13S13869   4.483   0.376   7.706  0.1303 -0.7418  0.5798
  129OSM   H13S13870   4.380   0.336   7.710  0.4358 -1.5221  0.6951
  129OSM   H13T13871   4.476   0.487   7.705  1.0985 -0.6787  0.3639
  129OSM   C14S13872   4.539   0.340   7.834 -0.1928  0.2189  0.8040
  129OSM   H14S13873   4.637   0.391   7.840  0.4037 -0.8204  0.0782
  129OSM   H14T13874   4.569   0.233   7.842 -0.0943  0.2925  1.4923
  129OSM   C15S13875   4.439   0.362   7.946 -0.7629  0.3670  0.6273
  129OSM   H15S13876   4.356   0.288   7.945 -0.5958  0.1953 -0.2728
  129OSM   H15T13877   4.389   0.462   7.938 -0.5642  0.4418  0.3302
  129OSM   C16S13878   4.493   0.344   8.092 -0.6538 -0.8506 -0.8311
  129OSM   H16S13879   4.590   0.398   8.101 -0.4103 -1.3974 -0.1440
  129OSM   H16T13880   4.503   0.237   8.122  1.8739 -0.6075 -0.6746
  129OSM   C17S13881   4.390   0.396   8.187  0.6912  0.2956 -0.0633
  129OSM   H17S13882   4.293   0.348   8.164  0.5826  0.4129  0.1424
  129OSM   H17T13883   4.387   0.504   8.160 -0.0563  0.1068 -0.7408
  129OSM   C18S13884   4.428   0.379   8.335  0.2300 -0.0068 -0.1021
  129OSM   H18S13885   4.360   0.426   8.410 -0.5477  2.1220 -2.0760
  129OSM   H18T13886   4.534   0.407   8.353 -0.1559  1.0056  0.6556
  129OSM   H18U13887   4.427   0.271   8.360 -0.1908  0.1007  0.3568
  129OSM    C1F13888   4.159   0.856   6.620  0.1226  0.4004  0.4331
  129OSM     OF13889   4.040   0.819   6.612  0.1264  0.2029  0.2382
  129OSM    C2F13890   4.193   0.992   6.681  0.8516  0.5867 -0.0442
  129OSM    H2F13891   4.193   1.066   6.599 -0.3488  0.8041  0.1475
  129OSM    H2G13892   4.298   0.980   6.716  0.9552  0.9218 -0.2410
  129OSM    C3F13893   4.098   1.024   6.798  0.1934  0.1272  0.3350
  129OSM    H3F13894   4.086   0.945   6.875  2.4233  1.6681  2.3388
  129OSM    H3G13895   3.992   1.024   6.765  0.2987  0.6921 -0.0124
  129OSM    C4F13896   4.111   1.170   6.854  0.0485 -0.4998  0.1102
  129OSM    H4F13897   4.035   1.195   6.930  0.4688  0.2960  0.2706
  129OSM    H4G13898   4.082   1.239   6.773 -1.5812 -0.3019  0.8526
  129OSM    C5F13899   4.249   1.198   6.900 -0.0977  0.3322 -0.6615
  129OSM    H5F13900   4.326   1.226   6.824  0.8513  0.7931  0.4603
  129OSM    H5G13901   4.293   1.106   6.945 -0.9564  1.1738  1.9513
  129OSM    C6F13902   4.246   1.306   7.015 -0.8129 -0.7685 -0.5686
  129OSM    H6F13903   4.149   1.296   7.067 -2.3952 -0.4538 -3.3719
  129OSM    H6G13904   4.236   1.403   6.964  1.6384 -0.5341 -0.6667
  129OSM    C7F13905   4.359   1.288   7.114  0.6466 -0.1154  0.4245
  129OSM    H7F13906   4.389   1.381   7.166 -1.1500  0.6980  0.0622
  129OSM    H7G13907   4.446   1.255   7.054 -0.1392 -0.0736 -0.7616
  129OSM    C8F13908   4.333   1.188   7.231 -0.3272  0.8973 -0.1211
  129OSM    H8F13909   4.281   1.102   7.184 -0.7761  1.3130 -0.3983
  129OSM    H8G13910   4.272   1.247   7.303 -1.8374  1.5121 -1.8491
  129OSM    C9F13911   4.469   1.121   7.272 -0.2537  0.4907  0.4927
  129OSM    H9F13912   4.532   1.098   7.185 -2.5289 -0.2760 -0.9946
  129OSM   C10F13913   4.510   1.092   7.395 -0.3755 -0.8854 -0.2646
  129OSM   H10F13914   4.610   1.049   7.406 -1.6369 -3.7427  0.3379
  129OSM   C11F13915   4.424   1.114   7.522  0.1154  0.5217  0.5965
  129OSM   H11F13916   4.318   1.094   7.498 -0.6110  0.4434  3.7402
  129OSM   H11G13917   4.429   1.220   7.552  0.7089 -0.1495  2.9624
  129OSM   C12F13918   4.473   1.044   7.643 -0.4754 -0.5136  0.1840
  129OSM   H12F13919   4.584   1.036   7.640 -0.6194 -3.1463  0.8133
  129OSM   H12G13920   4.428   0.943   7.646  0.0860 -0.7510  0.8050
  129OSM   C13F13921   4.434   1.115   7.769  0.0129  0.1915 -0.2904
  129OSM   H13F13922   4.323   1.116   7.781  0.2453  1.4418  2.0688
  129OSM   H13G13923   4.473   1.219   7.780  0.0214  0.1898 -0.3095
  129OSM   C14F13924   4.508   1.041   7.891 -0.0232  0.1893  0.0471
  129OSM   H14F13925   4.614   1.075   7.896  0.3753 -0.5478 -2.3558
  129OSM   H14G13926   4.504   0.934   7.860 -1.2061  0.2750 -0.1236
  129OSM   C15F13927   4.431   1.043   8.023 -0.9248 -0.3488  0.6674
  129OSM   H15F13928   4.331   0.998   8.011 -1.0579  0.3287 -0.8268
  129OSM   H15G13929   4.415   1.153   8.034  0.2583 -0.1097  0.1255
  129OSM   C16F13930   4.510   0.983   8.140  0.8224 -0.2317 -0.3743
  129OSM   H16F13931   4.605   1.039   8.146  0.9259 -0.3665 -0.6985
  129OSM   H16G13932   4.522   0.876   8.109  2.4695  0.1138 -0.9959
  129OSM   C17F13933   4.431   0.996   8.265  0.0045 -0.0778 -0.6086
  129OSM   H17F13934   4.325   0.974   8.240 -0.1476  1.6705 -1.5993
  129OSM   H17G13935   4.426   1.097   8.309 -0.8391 -0.4548  0.1780
  129OSM   C18F13936   4.482   0.907   8.373  0.0327 -0.2628  0.9028
  129OSM   H18F13937   4.591   0.923   8.384 -0.1997  1.4013  0.9199
  129OSM   H18G13938   4.456   0.804   8.342 -1.6116  0.0968  1.0364
  129OSM   H18H13939   4.434   0.922   8.472  1.1491 -1.9597  1.7165
  130OSM      N13940   0.832   2.480   6.025 -0.9145 -0.1435 -0.4678
  130OSM    C1513941   0.948   2.576   6.037 -0.6588  0.4990  0.0867
  130OSM   H15A13942   1.042   2.523   6.037 -0.8752  0.0925 -1.6762
  130OSM   H15B13943   0.950   2.626   6.133 -0.1595 -3.5678  2.3139
  130OSM   H15C13944   0.952   2.654   5.963 -1.2758  2.0334  1.6235
  130OSM    C1413945   0.844   2.425   5.889 -0.3359  0.0957  0.1225
  130OSM   H14A13946   0.763   2.363   5.854 -0.1021  0.5399 -1.2548
  130OSM   H14B13947   0.940   2.378   5.874 -0.5756  0.0461 -1.3617
  130OSM   H14C13948   0.838   2.510   5.822  0.4555 -0.2616 -0.4063
  130OSM    C1313949   0.848   2.375   6.126  0.2084 -0.5181  0.2853
  130OSM   H13A13950   0.934   2.312   6.108 -0.1452 -0.4083 -1.9349
  130OSM   H13B13951   0.762   2.311   6.129  1.6750 -2.5325  0.7421
  130OSM   H13C13952   0.860   2.419   6.224  0.3579 -0.3505  0.1940
  130OSM    C1213953   0.706   2.560   6.043  0.1697 -0.3684 -0.0103
  130OSM   H12A13954   0.619   2.499   6.027  0.2227 -1.2078  2.5290
  130OSM   H12B13955   0.707   2.630   5.961  1.2242 -0.8729 -0.4384
  130OSM    C1113956   0.690   2.637   6.172  0.0634  0.3631 -0.2097
  130OSM   H11A13957   0.785   2.683   6.205  0.2764 -0.9263  1.0352
  130OSM   H11B13958   0.665   2.567   6.255  0.3934  3.6248  2.7522
  130OSM      P13959   0.559   2.843   6.066 -0.1483  0.2885  0.0251
  130OSM    O1313960   0.603   2.801   5.931 -0.5265 -0.2027  0.3023
  130OSM    O1413961   0.420   2.883   6.080  0.1151 -0.5434 -0.0911
  130OSM    O1113962   0.645   2.958   6.125  0.4504 -0.5681 -0.0656
  130OSM    O1213963   0.574   2.721   6.152 -0.4449 -0.4324 -0.1094
  130OSM    C1S13964   0.601   3.037   6.238  0.8258 -0.6575 -0.4962
  130OSM    H1S13965   0.490   3.034   6.250  1.1266 -1.8814  2.3279
  130OSM    H1T13966   0.626   3.144   6.224 -1.9645  0.3967  1.9292
  130OSM     NF13967   0.601   3.017   6.492 -0.3208  0.0580 -0.4336
  130OSM    HNF13968   0.643   3.080   6.557 -2.0523  0.1059  0.6704
  130OSM    C2S13969   0.667   2.983   6.368 -0.3917 -0.6122 -0.4075
  130OSM    H2S13970   0.649   2.874   6.364 -0.7675 -0.7037  2.8641
  130OSM    C3S13971   0.811   3.016   6.370  0.5392 -1.1834 -0.5251
  130OSM    H3S13972   0.811   3.126   6.386  2.8288 -1.4615  1.5317
  130OSM     O313973   0.879   3.004   6.239 -0.4102 -0.2736 -0.2800
  130OSM    HO313974   0.809   2.966   6.185 -2.7701  0.7940  1.9411
  130OSM    C4S13975   0.886   2.928   6.464 -0.8185  0.5331  0.4700
  130OSM    H4S13976   0.863   2.821   6.470  2.8691 -0.2482  1.5908
  130OSM    C5S13977   0.987   2.973   6.542 -0.0480  0.2820 -0.2124
  130OSM    H5S13978   0.999   3.082   6.557 -0.9046  0.5201 -1.1581
  130OSM    C6S13979   1.051   2.883   6.649  0.2477 -0.0341  0.4644
  130OSM    H6S13980   1.157   2.856   6.629 -0.5047 -3.8656  1.3188
  130OSM    H6T13981   0.996   2.787   6.657 -1.7705  0.7656 -2.8136
  130OSM    C7S13982   1.063   2.958   6.778 -0.3936 -0.0168  0.1205
  130OSM    H7S13983   0.960   2.993   6.799 -0.8619  0.1143 -2.3095
  130OSM    H7T13984   1.137   3.041   6.769 -1.6169  1.2288  1.1542
  130OSM    C8S13985   1.116   2.882   6.900  0.0241 -0.6318  0.1825
  130OSM    H8S13986   1.225   2.864   6.889  0.5247  1.1801  1.6988
  130OSM    H8T13987   1.054   2.790   6.907  0.6965 -1.1279 -0.3818
  130OSM    C9S13988   1.108   2.966   7.023 -0.3088 -0.6570  0.3041
  130OSM    H9S13989   1.006   3.004   7.041  0.3973  0.1581  2.8392
  130OSM    H9T13990   1.172   3.056   7.011  0.3525 -1.1338  0.2283
  130OSM   C10S13991   1.155   2.883   7.147 -1.0774  0.4933 -0.5611
  130OSM   H10S13992   1.247   2.828   7.115 -1.2517  0.8580 -1.7364
  130OSM   H10T13993   1.078   2.806   7.166 -0.1809  0.0489  1.3266
  130OSM   C11S13994   1.183   2.967   7.272 -0.2991  0.7354  0.0611
  130OSM   H11S13995   1.105   3.032   7.318 -0.4542  0.4866  0.1513
  130OSM   H11T13996   1.263   3.036   7.238  1.3646 -0.8443  0.6788
  130OSM   C12S13997   1.245   2.879   7.379  0.0347 -0.3376  0.3490
  130OSM   H12S13998   1.337   2.831   7.339  0.4223  1.9788 -1.6353
  130OSM   H12T13999   1.164   2.808   7.406  2.1165 -2.2475  1.7804
  130OSM   C13S14000   1.281   2.950   7.514  0.3441  0.2167  0.2616
  130OSM   H13S14001   1.327   3.050   7.500  0.7726 -0.0106  0.0091
  130OSM   H13T14002   1.360   2.895   7.569  1.0151 -0.1868 -1.0869
  130OSM   C14S14003   1.151   2.961   7.610  0.4439 -0.3587 -0.8135
  130OSM   H14S14004   1.108   2.861   7.630 -0.5817 -0.4429 -3.3631
  130OSM   H14T14005   1.074   3.023   7.559  1.7843  1.1568 -1.0418
  130OSM   C15S14006   1.191   3.025   7.745  0.2270 -0.0092  1.2844
  130OSM   H15S14007   1.213   3.133   7.734 -3.0078  0.8089  2.1971
  130OSM   H15T14008   1.276   2.974   7.794 -1.8799 -0.9549  4.1133
  130OSM   C16S14009   1.078   3.017   7.846 -0.4940 -0.0010 -0.6767
  130OSM   H16S14010   0.981   3.009   7.793 -0.4636  0.6127 -0.8250
  130OSM   H16T14011   1.065   3.097   7.922  0.0599  0.9518 -1.5711
  130OSM   C17S14012   1.070   2.894   7.942 -0.5354 -0.7394  0.2984
  130OSM   H17S14013   1.084   2.805   7.876  1.2182 -2.1055  2.4164
  130OSM   H17T14014   0.967   2.892   7.984 -0.4978 -3.4176  0.3864
  130OSM   C18S14015   1.173   2.904   8.056  1.0657  0.2502  1.1377
  130OSM   H18S14016   1.273   2.884   8.012  1.2147 -0.4308  1.7797
  130OSM   H18T14017   1.155   2.836   8.142 -3.5744  0.2311  0.2977
  130OSM   H18U14018   1.169   3.010   8.086 -0.4751  0.3372  0.6820
  130OSM    C1F14019   0.467   2.993   6.515 -0.5240 -0.1032 -0.4576
  130OSM     OF14020   0.398   2.961   6.425  0.5765  0.1007 -0.6325
  130OSM    C2F14021   0.414   3.023   6.646  0.3627  0.5513 -0.2719
  130OSM    H2F14022   0.367   3.123   6.640  0.9504  0.9102  1.0447
  130OSM    H2G14023   0.489   3.040   6.726  0.2828 -1.6494  0.3206
  130OSM    C3F14024   0.314   2.918   6.698  0.7109 -0.3526 -0.0545
  130OSM    H3F14025   0.345   2.819   6.659  0.3951 -0.2797 -0.4951
  130OSM    H3G14026   0.208   2.928   6.666  1.1346  1.8593 -0.8550
  130OSM    C4F14027   0.313   2.911   6.849  0.2828  0.0955 -0.3713
  130OSM    H4F14028   0.413   2.891   6.892 -0.4783 -1.2510  0.7893
  130OSM    H4G14029   0.257   2.820   6.879 -0.5560  0.0594 -1.9786
  130OSM    C5F14030   0.259   3.036   6.920 -0.2846 -0.2625 -0.3027
  130OSM    H5F14031   0.150   3.046   6.901 -0.1843 -0.8461 -1.2052
  130OSM    H5G14032   0.312   3.124   6.877  0.3473  0.9017  2.7398
  130OSM    C6F14033   0.287   3.041   7.071 -1.2496 -0.2059 -0.2308
  130OSM    H6F14034   0.319   3.136   7.119  3.6081 -1.7313 -0.1707
  130OSM    H6G14035   0.381   2.984   7.088 -0.7882  0.4719 -0.4968
  130OSM    C7F14036   0.158   3.005   7.155 -0.9207  0.2549  0.5448
  130OSM    H7F14037   0.115   2.904   7.138 -0.8648 -0.1676  2.8850
  130OSM    H7G14038   0.089   3.081   7.113 -1.3693  1.3962  3.2901
  130OSM    C8F14039   0.165   3.044   7.295  0.4480  0.4295 -0.4836
  130OSM    H8F14040   0.066   3.027   7.342  0.4496 -0.2509 -0.7192
  130OSM    H8G14041   0.178   3.154   7.304  0.6683  0.4289 -0.7710
  130OSM    C9F14042   0.265   2.956   7.365  0.5068  0.1857  0.1846
  130OSM    H9F14043   0.260   2.850   7.337  1.0199  0.4010 -0.7502
  130OSM   C10F14044   0.375   2.999   7.427  0.2753 -0.3734 -0.0856
  130OSM   H10F14045   0.454   2.929   7.457 -1.6230 -1.7642  1.8382
  130OSM   C11F14046   0.408   3.150   7.438  0.0755 -0.5311 -0.5211
  130OSM   H11F14047   0.361   3.210   7.358  1.8170  3.1858  1.1115
  130OSM   H11G14048   0.516   3.178   7.431  0.0290 -0.0993  0.3261
  130OSM   C12F14049   0.346   3.217   7.557 -0.2801  0.0103 -0.5960
  130OSM   H12F14050   0.237   3.228   7.538 -0.6451 -1.1635  0.7579
  130OSM   H12G14051   0.392   3.316   7.575  2.0464 -1.1655  0.1623
  130OSM   C13F14052   0.354   3.131   7.680  0.3122 -0.3675 -0.3711
  130OSM   H13F14053   0.457   3.102   7.708  0.1024 -1.7983 -1.0705
  130OSM   H13G14054   0.308   3.030   7.674 -0.7308  0.0688  0.1689
  130OSM   C14F14055   0.280   3.204   7.796  0.1908  0.5525 -0.5059
  130OSM   H14F14056   0.177   3.231   7.764  0.4911  0.0600 -1.9385
  130OSM   H14G14057   0.347   3.289   7.818  0.2130 -0.1790  2.4810
  130OSM   C15F14058   0.278   3.113   7.922  1.0928 -1.2471 -0.4193
  130OSM   H15F14059   0.381   3.084   7.951  1.5672  1.5082  0.8519
  130OSM   H15G14060   0.230   3.014   7.905  4.7076 -2.8791 -1.5997
  130OSM   C16F14061   0.212   3.196   8.036  0.4904  0.4744 -0.1350
  130OSM   H16F14062   0.110   3.219   7.998  0.1448 -0.1165  0.4202
  130OSM   H16G14063   0.255   3.298   8.035 -0.6608  0.9617 -1.6016
  130OSM   C17F14064   0.210   3.150   8.178 -0.1235  0.6129 -0.3624
  130OSM   H17F14065   0.313   3.145   8.220 -0.3933  3.6634  0.8651
  130OSM   H17G14066   0.162   3.051   8.194 -0.8365  1.0529  0.2735
  130OSM   C18F14067   0.125   3.242   8.265  0.2119 -0.0532  0.0335
  130OSM   H18F14068   0.169   3.344   8.265 -0.0119  0.0607  1.5343
  130OSM   H18G14069   0.122   3.202   8.369 -1.6071  1.5825  0.6437
  130OSM   H18H14070   0.023   3.234   8.220  1.0283 -2.4786 -1.5003
  131OSM      N14071   4.831   5.778   5.810 -0.5514  0.0239 -0.5679
  131OSM    C1514072   4.943   5.736   5.738 -0.2394 -0.2207  0.5809
  131OSM   H15A14073   5.034   5.769   5.785  2.0050 -1.4655 -2.7108
  131OSM   H15B14074   4.949   5.775   5.637 -0.6557 -1.1921  0.1783
  131OSM   H15C14075   4.949   5.630   5.754  0.6736  0.1752  3.1193
  131OSM    C1414076   4.813   5.927   5.795 -0.3634  0.3521  0.7708
  131OSM   H14A14077   4.894   5.984   5.839 -0.1228 -1.9068  3.3874
  131OSM   H14B14078   4.732   5.945   5.864 -0.6358 -0.3996  0.6513
  131OSM   H14C14079   4.791   5.960   5.695  0.1592 -1.8250 -0.0824
  131OSM    C1314080   4.701   5.723   5.745 -0.4959  0.5947 -0.4190
  131OSM   H13A14081   4.725   5.727   5.640  0.8099 -1.1170 -0.2060
  131OSM   H13B14082   4.615   5.781   5.773 -1.0444 -0.8948  1.0950
  131OSM   H13C14083   4.690   5.619   5.774 -1.0816  0.8342  0.2233
  131OSM    C1214084   4.836   5.732   5.956  0.0395 -0.7582  0.4609
  131OSM   H12A14085   4.834   5.625   5.954 -0.3179 -0.7697  1.3021
  131OSM   H12B14086   4.746   5.771   6.002 -0.6480 -0.0899 -1.4215
  131OSM    C1114087   4.962   5.781   6.037  0.1327 -0.0394  0.1364
  131OSM   H11A14088   5.042   5.730   5.979 -0.3504 -2.9861  1.9710
  131OSM   H11B14089   4.950   5.724   6.131 -2.6766  0.7258  0.2869
  131OSM      P14090   4.942   6.011   6.158 -0.2294 -0.0808  0.0331
  131OSM    O1314091   5.044   6.120   6.164  0.6723 -0.1542 -0.5164
  131OSM    O1414092   4.803   6.046   6.129  0.4132  0.0270 -0.0319
  131OSM    O1114093   4.943   5.919   6.291  0.0758  0.2777  0.1184
  131OSM    O1214094   4.988   5.919   6.042  0.0773  1.1673 -0.6282
  131OSM    C1S14095   5.003   5.985   6.406 -0.1542 -0.1421 -0.2220
  131OSM    H1S14096   4.926   6.036   6.468  0.5801  0.5584  0.1182
  131OSM    H1T14097   5.090   6.047   6.378  1.1232 -1.4690  0.7486
  131OSM     NF14098   5.120   5.955   6.630 -0.1403 -0.0032  0.1638
  131OSM    HNF14099   5.215   5.984   6.623 -0.1832  0.1837  0.3244
  131OSM    C2S14100   5.069   5.882   6.518 -0.0938  0.6319  0.0978
  131OSM    H2S14101   4.983   5.821   6.553 -1.7971  2.8100 -0.1778
  131OSM    C3S14102   5.173   5.784   6.450  0.3901  0.7924  0.1617
  131OSM    H3S14103   5.264   5.837   6.416  0.3403  1.3181  0.8471
  131OSM     O314104   5.121   5.714   6.337 -0.3197  0.1693  0.2753
  131OSM    HO314105   5.034   5.754   6.326 -0.7654 -0.5183  1.2364
  131OSM    C4S14106   5.228   5.677   6.555  0.3176 -0.3099  0.0610
  131OSM    H4S14107   5.319   5.708   6.608 -0.2659  0.8903  0.3727
  131OSM    C5S14108   5.181   5.554   6.594  0.6144 -0.6257  0.7972
  131OSM    H5S14109   5.081   5.534   6.552  1.5232 -0.0406 -1.7375
  131OSM    C6S14110   5.234   5.473   6.707  0.2789 -0.3085  0.0699
  131OSM    H6S14111   5.322   5.514   6.759 -0.2570 -0.9575  1.5039
  131OSM    H6T14112   5.280   5.385   6.657  0.2016  0.5993 -1.6505
  131OSM    C7S14113   5.131   5.447   6.812  0.0245  0.0678 -0.1510
  131OSM    H7S14114   5.177   5.377   6.886  1.8578  0.8600 -0.5437
  131OSM    H7T14115   5.044   5.396   6.766 -0.3208  0.9132 -0.4389
  131OSM    C8S14116   5.073   5.570   6.885  0.1271  0.6602  0.1522
  131OSM    H8S14117   4.982   5.553   6.946 -1.3171 -0.7805 -2.3074
  131OSM    H8T14118   5.042   5.641   6.805  2.4785  1.1380 -0.3751
  131OSM    C9S14119   5.172   5.629   6.979  0.2081 -0.3000  0.6860
  131OSM    H9S14120   5.256   5.663   6.915 -1.4775  2.1046 -0.3602
  131OSM    H9T14121   5.210   5.556   7.053 -0.0273 -0.6194  0.4905
  131OSM   C10S14122   5.116   5.754   7.045 -0.0397  0.6130  0.2988
  131OSM   H10S14123   5.027   5.723   7.104  1.2878  0.6208  2.3727
  131OSM   H10T14124   5.087   5.827   6.967 -0.1195  1.3478  1.0066
  131OSM   C11S14125   5.210   5.833   7.144  0.2161 -0.4298  0.1833
  131OSM   H11S14126   5.158   5.928   7.170  1.3801  0.2580  0.0215
  131OSM   H11T14127   5.297   5.864   7.082  1.1096 -0.5584  1.3691
  131OSM   C12S14128   5.258   5.751   7.264  0.0482  0.1486  0.2733
  131OSM   H12S14129   5.349   5.694   7.235  0.9066  1.4105  0.4091
  131OSM   H12T14130   5.174   5.688   7.300  0.4242 -1.8390 -2.2474
  131OSM   C13S14131   5.304   5.836   7.387  1.0317  0.0696 -0.3634
  131OSM   H13S14132   5.229   5.913   7.418  1.0774 -0.1770  0.3690
  131OSM   H13T14133   5.385   5.902   7.350 -1.3966  1.8967 -2.6631
  131OSM   C14S14134   5.342   5.743   7.513  0.0864  0.8087 -0.2292
  131OSM   H14S14135   5.380   5.646   7.475 -1.4863  0.0575  0.0673
  131OSM   H14T14136   5.246   5.729   7.567 -0.4292  1.1146 -1.0478
  131OSM   C15S14137   5.445   5.802   7.611 -0.8005  0.3794 -0.9568
  131OSM   H15S14138   5.415   5.908   7.616 -1.8070  0.0688 -0.2438
  131OSM   H15T14139   5.550   5.813   7.577 -0.4281  0.5920  0.2537
  131OSM   C16S14140   5.436   5.752   7.758  0.4295 -0.3116 -0.0449
  131OSM   H16S14141   5.328   5.739   7.780  0.1106  0.6596 -1.0101
  131OSM   H16T14142   5.471   5.830   7.829  0.2479 -0.5176  0.2726
  131OSM   C17S14143   5.524   5.626   7.778  0.2295  0.2451  0.5250
  131OSM   H17S14144   5.616   5.641   7.718  0.2078 -1.9356 -0.0930
  131OSM   H17T14145   5.475   5.536   7.735  1.7026 -0.7237  0.8201
  131OSM   C18S14146   5.570   5.613   7.925 -0.5603  0.5023  0.1774
  131OSM   H18S14147   5.634   5.524   7.941 -0.1610  1.1168  2.0714
  131OSM   H18T14148   5.483   5.602   7.994 -0.4802  0.8499  0.3352
  131OSM   H18U14149   5.637   5.692   7.965  0.9457  0.3150 -1.8861
  131OSM    C1F14150   5.038   6.014   6.720  0.5047 -0.1987  0.1416
  131OSM     OF14151   4.919   5.997   6.714  0.1618 -0.0687  0.0632
  131OSM    C2F14152   5.105   6.104   6.817 -0.1334 -0.0252  0.0524
  131OSM    H2F14153   5.131   6.195   6.758  0.4611 -0.1807  0.0699
  131OSM    H2G14154   5.200   6.060   6.853  0.8048  0.7788 -1.3860
  131OSM    C3F14155   5.019   6.143   6.938 -0.0167  0.1641  0.0074
  131OSM    H3F14156   4.986   6.053   6.993 -1.1520  0.0147 -0.8812
  131OSM    H3G14157   4.933   6.185   6.881  0.7364 -1.0645 -2.0955
  131OSM    C4F14158   5.073   6.245   7.038  0.0192 -0.0735 -0.5865
  131OSM    H4F14159   5.102   6.330   6.973 -0.5273 -0.8598 -1.8710
  131OSM    H4G14160   5.162   6.206   7.093 -0.2584  2.4241  1.7506
  131OSM    C5F14161   4.957   6.278   7.131  0.2708  0.6133 -0.4457
  131OSM    H5F14162   4.909   6.188   7.173 -1.0435  0.9295 -1.2343
  131OSM    H5G14163   4.869   6.333   7.092 -1.1233 -2.9301 -2.5525
  131OSM    C6F14164   5.013   6.351   7.257  0.5812 -0.5337 -0.3638
  131OSM    H6F14165   5.048   6.453   7.228  4.3653 -1.9932 -1.3231
  131OSM    H6G14166   5.093   6.283   7.294 -0.5688 -1.8210 -0.2597
  131OSM    C7F14167   4.913   6.376   7.370  1.0537 -0.2820  0.5095
  131OSM    H7F14168   4.864   6.282   7.403 -1.7094  0.2424 -1.9510
  131OSM    H7G14169   4.843   6.452   7.331  2.2658  0.7483  0.2943
  131OSM    C8F14170   4.976   6.440   7.494  0.2861  0.4444  0.1861
  131OSM    H8F14171   4.890   6.485   7.548 -0.3460  1.3626 -1.5740
  131OSM    H8G14172   5.049   6.511   7.451 -0.3220 -0.3805 -2.2600
  131OSM    C9F14173   5.047   6.343   7.584  0.6971  0.0950 -0.1712
  131OSM    H9F14174   5.088   6.259   7.526  2.3421  1.8970 -1.7123
  131OSM   C10F14175   5.058   6.352   7.713 -0.3099  0.4987 -0.3503
  131OSM   H10F14176   5.116   6.276   7.769 -0.4645  0.4361 -0.2742
  131OSM   C11F14177   5.001   6.455   7.806  0.6826  0.3770 -0.3043
  131OSM   H11F14178   4.899   6.483   7.771  1.2492  2.5373 -0.2601
  131OSM   H11G14179   5.055   6.552   7.809  2.9289 -0.8473 -0.1970
  131OSM   C12F14180   4.989   6.407   7.953 -0.2486  0.5668 -0.4604
  131OSM   H12F14181   5.081   6.378   8.010  0.4104  0.1799 -1.7003
  131OSM   H12G14182   4.932   6.312   7.960 -1.0963  1.1273  0.3099
  131OSM   C13F14183   4.915   6.501   8.052 -0.0679 -0.4658  0.8007
  131OSM   H13F14184   4.810   6.505   8.015 -0.4419  0.2801  1.9315
  131OSM   H13G14185   4.966   6.599   8.041  0.9883 -1.1107 -0.1843
  131OSM   C14F14186   4.911   6.454   8.193 -0.0665  0.3692 -0.4879
  131OSM   H14F14187   4.902   6.343   8.199  0.0087  0.4058  0.2937
  131OSM   H14G14188   4.824   6.494   8.249  0.1921  0.3212 -0.0468
  131OSM   C15F14189   5.048   6.501   8.259 -0.8325 -0.2987  0.8322
  131OSM   H15F14190   5.039   6.611   8.247 -1.2059 -0.6254 -2.3238
  131OSM   H15G14191   5.136   6.466   8.200 -1.2662  0.7181 -0.4509
  131OSM   C16F14192   5.057   6.462   8.405 -0.2261 -0.0964  0.0744
  131OSM   H16F14193   5.054   6.351   8.412  0.1026 -0.1139 -0.0662
  131OSM   H16G14194   4.973   6.491   8.472  0.1907 -0.3412  0.7132
  131OSM   C17F14195   5.187   6.512   8.478  0.9663  0.7056 -0.8474
  131OSM   H17F14196   5.190   6.622   8.470 -0.0689  1.0240  2.2833
  131OSM   H17G14197   5.274   6.453   8.442  0.2789  0.7572 -2.6119
  131OSM   C18F14198   5.187   6.477   8.632  0.3529 -0.2285 -0.4689
  131OSM   H18F14199   5.139   6.552   8.699  0.5465 -0.1734 -0.3878
  131OSM   H18G14200   5.294   6.488   8.661 -0.0497  4.6503 -0.4327
  131OSM   H18H14201   5.161   6.370   8.647 -1.7384  0.3034 -0.2509
  132OSM      N14202   0.051   0.224   6.397 -0.8547  0.1314  0.1141
  132OSM    C1514203   0.120   0.145   6.497 -0.7035  0.2377  0.2573
  132OSM   H15A14204   0.227   0.151   6.495 -0.7747  1.7000  0.1113
  132OSM   H15B14205   0.114   0.039   6.478  3.9142  0.3298 -2.2328
  132OSM   H15C14206   0.092   0.177   6.596  0.4079  0.3262  0.5391
  132OSM    C1414207   0.114   0.196   6.268 -0.0295 -0.6531 -0.4824
  132OSM   H14A14208   0.076   0.102   6.228 -0.0133 -0.7553 -0.2556
  132OSM   H14B14209   0.221   0.180   6.278 -0.1258 -0.3881  1.0548
  132OSM   H14C14210   0.104   0.280   6.201  0.3039 -0.1352  0.1141
  132OSM    C1314211  -0.090   0.183   6.392 -0.3203 -0.1105 -0.1417
  132OSM   H13A14212  -0.139   0.204   6.486 -0.5597  1.4258 -0.5879
  132OSM   H13B14213  -0.109   0.077   6.397 -1.1910  0.0111 -0.8722
  132OSM   H13C14214  -0.151   0.222   6.312 -1.9644  0.7185  1.4764
  132OSM    C1214215   0.066   0.372   6.431 -0.2108 -0.5135 -0.3220
  132OSM   H12A14216   0.164   0.378   6.476  0.0809 -4.2007 -0.3058
  132OSM   H12B14217   0.000   0.393   6.514 -0.3344 -1.2761 -0.2246
  132OSM    C1114218   0.058   0.482   6.330  0.0459  0.1453  0.7934
  132OSM   H11A14219   0.041   0.585   6.367  0.4864  0.4760  0.0863
  132OSM   H11B14220  -0.037   0.476   6.273  0.5365 -0.5296  0.0325
  132OSM      P14221   0.316   0.512   6.293 -0.1979  0.3003 -0.1442
  132OSM    O1314222   0.351   0.423   6.409 -0.1673 -0.5762 -0.1510
  132OSM    O1414223   0.400   0.507   6.173 -0.3336 -0.0866 -0.1292
  132OSM    O1114224   0.299   0.652   6.347 -0.1843  0.2516 -0.2420
  132OSM    O1214225   0.166   0.479   6.243  0.3764  0.4105  0.8897
  132OSM    C1S14226   0.252   0.685   6.480  0.0103 -0.0663  0.1253
  132OSM    H1S14227   0.234   0.593   6.539  0.5230 -0.3448 -0.1486
  132OSM    H1T14228   0.164   0.752   6.470  0.4832  0.0592 -4.2834
  132OSM     NF14229   0.336   0.749   6.697 -0.0920  1.0208 -0.0316
  132OSM    HNF14230   0.313   0.835   6.741  0.5056  1.0834  0.1602
  132OSM    C2S14231   0.361   0.757   6.560 -0.3998 -0.6109 -0.0967
  132OSM    H2S14232   0.459   0.711   6.538 -0.6701 -0.9197 -0.6872
  132OSM    C3S14233   0.366   0.905   6.506  0.3788 -0.0844 -0.4815
  132OSM    H3S14234   0.266   0.954   6.510  0.6695  0.5480 -0.8652
  132OSM     O314235   0.407   0.910   6.369 -0.3935 -1.0245  0.3693
  132OSM    HO314236   0.413   0.815   6.354  0.5802 -1.1933  1.7102
  132OSM    C4S14237   0.447   0.997   6.595 -0.4368  0.0424 -0.5912
  132OSM    H4S14238   0.386   1.044   6.675  0.0709 -1.7383  0.8665
  132OSM    C5S14239   0.575   1.026   6.585 -0.2161  0.3254 -0.0460
  132OSM    H5S14240   0.634   0.998   6.496  1.3897  1.6523  0.5667
  132OSM    C6S14241   0.642   1.121   6.679  0.1883 -0.1447  0.7005
  132OSM    H6S14242   0.678   1.203   6.613 -1.7751  1.4468  1.5489
  132OSM    H6T14243   0.726   1.079   6.737  2.5910  3.2848 -0.1470
  132OSM    C7S14244   0.555   1.196   6.784  0.0160 -0.3399  0.1162
  132OSM    H7S14245   0.464   1.233   6.732 -0.0306  2.0820  1.8492
  132OSM    H7T14246   0.613   1.283   6.821 -0.5731  0.8524 -1.6455
  132OSM    C8S14247   0.529   1.116   6.914 -0.3445  0.2984 -0.4607
  132OSM    H8S14248   0.628   1.078   6.946 -0.1447  1.0920 -0.1213
  132OSM    H8T14249   0.467   1.029   6.884  0.1705 -0.3499  0.3814
  132OSM    C9S14250   0.464   1.196   7.020  1.0900 -0.7793 -0.3992
  132OSM    H9S14251   0.360   1.225   6.991  0.9739  2.1326  2.6870
  132OSM    H9T14252   0.533   1.281   7.035  0.4814 -0.3220 -0.1717
  132OSM   C10S14253   0.467   1.133   7.164 -0.2118 -0.0961 -0.6058
  132OSM   H10S14254   0.569   1.099   7.194 -0.3791 -0.2457 -0.2150
  132OSM   H10T14255   0.406   1.041   7.158 -2.4706  1.3681 -0.5997
  132OSM   C11S14256   0.391   1.216   7.269 -0.0593 -0.1088 -0.3747
  132OSM   H11S14257   0.286   1.245   7.247 -0.7302 -1.3440  1.1182
  132OSM   H11T14258   0.441   1.316   7.269 -0.8718  0.3089 -1.6410
  132OSM   C12S14259   0.392   1.155   7.409 -0.8697 -0.2671  0.0522
  132OSM   H12S14260   0.500   1.148   7.437 -1.2727  2.0546  2.3487
  132OSM   H12T14261   0.343   1.056   7.426 -0.6532 -0.5966 -1.1682
  132OSM   C13S14262   0.337   1.243   7.515  0.7305  0.1843 -0.2812
  132OSM   H13S14263   0.232   1.258   7.483  0.9155  0.5126 -0.7518
  132OSM   H13T14264   0.395   1.337   7.505  0.0206  0.4961 -1.6717
  132OSM   C14S14265   0.359   1.180   7.651  0.1389  0.2551  0.1112
  132OSM   H14S14266   0.466   1.156   7.671 -0.3431 -1.2518  1.0087
  132OSM   H14T14267   0.310   1.081   7.644  0.1349  0.2438  0.2926
  132OSM   C15S14268   0.307   1.262   7.769  0.2009 -0.5542  0.5711
  132OSM   H15S14269   0.200   1.286   7.749  0.5245  1.8992  1.5696
  132OSM   H15T14270   0.366   1.356   7.776 -1.2009  0.2458  2.0208
  132OSM   C16S14271   0.352   1.192   7.901  0.3116 -0.5834 -0.5806
  132OSM   H16S14272   0.462   1.182   7.899  0.5305  1.7266 -1.6375
  132OSM   H16T14273   0.296   1.096   7.909 -1.8059  0.7384  1.2551
  132OSM   C17S14274   0.311   1.279   8.018  0.4282 -0.2093  0.9208
  132OSM   H17S14275   0.339   1.381   7.985 -2.6042 -0.4913 -2.7718
  132OSM   H17T14276   0.373   1.257   8.108  0.9854 -1.6823  0.2077
  132OSM   C18S14277   0.160   1.267   8.053  0.2011  0.2748  0.9234
  132OSM   H18S14278   0.133   1.320   8.146 -1.1365 -0.2488  0.8403
  132OSM   H18T14279   0.129   1.160   8.061 -0.5375  0.4584  0.5618
  132OSM   H18U14280   0.099   1.308   7.970 -1.7089 -1.9693  1.1531
  132OSM    C1F14281   0.372   0.653   6.781  0.1382  0.3571  0.0170
  132OSM     OF14282   0.464   0.580   6.751  0.2454 -0.0816 -0.1706
  132OSM    C2F14283   0.305   0.649   6.916  0.0873  0.1064  0.1404
  132OSM    H2F14284   0.198   0.661   6.888 -0.2591 -0.7123  1.0759
  132OSM    H2G14285   0.333   0.746   6.963 -0.8720  0.4761 -0.0359
  132OSM    C3F14286   0.337   0.517   7.003 -0.2568 -0.3277 -0.1838
  132OSM    H3F14287   0.446   0.507   7.022  0.1549  0.8557 -1.8852
  132OSM    H3G14288   0.295   0.425   6.956 -1.1654  1.3549 -2.7774
  132OSM    C4F14289   0.304   0.546   7.151 -0.7386  0.6895  0.1340
  132OSM    H4F14290   0.337   0.641   7.198 -0.4333  0.1516  1.0381
  132OSM    H4G14291   0.350   0.467   7.215 -1.2881  0.0598 -0.2476
  132OSM    C5F14292   0.153   0.539   7.175  0.0656 -0.0171  0.4152
  132OSM    H5F14293   0.113   0.441   7.141  0.1481 -0.1748  0.7634
  132OSM    H5G14294   0.098   0.619   7.121  0.5449 -1.1128 -1.7443
  132OSM    C6F14295   0.124   0.549   7.326  0.8614  0.1087  0.2028
  132OSM    H6F14296   0.014   0.539   7.327  0.7900  0.5445 -1.8338
  132OSM    H6G14297   0.148   0.647   7.373  2.3819 -1.5412  2.9876
  132OSM    C7F14298   0.193   0.448   7.426  0.0893  0.4931  0.6985
  132OSM    H7F14299   0.301   0.470   7.433  0.0590  0.1756  2.4885
  132OSM    H7G14300   0.176   0.345   7.388 -0.8210  0.8340  0.1576
  132OSM    C8F14301   0.164   0.450   7.578  0.8790 -0.1001 -0.0858
  132OSM    H8F14302   0.120   0.546   7.614  2.5028  0.1059  1.4316
  132OSM    H8G14303   0.261   0.438   7.631  0.3360  0.7845  1.1415
  132OSM    C9F14304   0.070   0.341   7.631  0.1097 -0.5208 -0.3018
  132OSM    H9F14305   0.031   0.274   7.553  2.1132 -1.4089 -0.5911
  132OSM   C10F14306   0.044   0.334   7.765 -0.9622  0.3224  0.9285
  132OSM   H10F14307  -0.020   0.256   7.808  0.2002 -1.9185 -1.2453
  132OSM   C11F14308   0.091   0.424   7.874  0.5956 -0.1001  0.8239
  132OSM   H11F14309   0.188   0.466   7.839 -0.6957  0.1635 -2.5584
  132OSM   H11G14310   0.118   0.358   7.960  1.9276 -0.3517  0.2237
  132OSM   C12F14311  -0.002   0.537   7.918  0.1894  0.8818  0.1479
  132OSM   H12F14312  -0.007   0.598   7.826 -0.5955 -0.2798 -0.5748
  132OSM   H12G14313   0.054   0.595   7.995 -0.7688  1.0230  0.7375
  132OSM   C13F14314  -0.141   0.487   7.964  0.4689  0.0270 -0.2680
  132OSM   H13F14315  -0.179   0.410   7.893 -1.4357  0.7731 -0.0836
  132OSM   H13G14316  -0.212   0.573   7.971 -3.3672 -3.2060  2.9077
  132OSM   C14F14317  -0.130   0.415   8.098  0.2976 -0.6732  0.2003
  132OSM   H14F14318  -0.065   0.325   8.086 -0.2935 -1.0766 -0.0043
  132OSM   H14G14319  -0.230   0.369   8.112 -0.8082  1.8412  0.8622
  132OSM   C15F14320  -0.098   0.497   8.224  0.3735 -0.9121  0.4089
  132OSM   H15F14321  -0.180   0.564   8.257  0.2087 -0.1571 -1.4994
  132OSM   H15G14322   0.001   0.544   8.205  0.1071  0.1569  1.5984
  132OSM   C16F14323  -0.074   0.401   8.346  0.5042 -0.7876  0.0066
  132OSM   H16F14324   0.025   0.353   8.328 -0.0279 -1.2554 -1.7786
  132OSM   H16G14325  -0.152   0.323   8.357 -0.0360 -0.1627  0.6763
  132OSM   C17F14326  -0.063   0.479   8.477 -0.4228 -0.0425  0.2156
  132OSM   H17F14327  -0.157   0.529   8.508  0.8656  1.5396  1.6806
  132OSM   H17G14328   0.012   0.560   8.463 -0.9603  0.1736 -1.4756
  132OSM   C18F14329  -0.019   0.376   8.592 -0.6985  0.1617 -0.9810
  132OSM   H18F14330  -0.001   0.438   8.682 -0.1089 -2.9083  1.0930
  132OSM   H18G14331   0.065   0.310   8.562 -0.5899 -0.1226 -0.0397
  132OSM   H18H14332  -0.106   0.311   8.615 -1.2454  1.2247  0.0138
  133OSM      N14333   0.709   0.240   5.832  0.1745  0.5355 -0.1139
  133OSM    C1514334   0.847   0.172   5.857 -0.2957  0.4133 -1.2675
  133OSM   H15A14335   0.847   0.128   5.955  1.2346  0.9132 -1.0209
  133OSM   H15B14336   0.924   0.248   5.855  3.0616 -2.8012 -0.5875
  133OSM   H15C14337   0.875   0.101   5.781  2.2533  1.7225 -1.6056
  133OSM    C1414338   0.711   0.314   5.703 -0.0727  0.6134 -0.2034
  133OSM   H14A14339   0.781   0.395   5.716 -1.4960  1.7081  0.8443
  133OSM   H14B14340   0.615   0.356   5.677  0.1235  0.1662 -1.6672
  133OSM   H14C14341   0.746   0.245   5.628  2.8668 -0.4932  2.1007
  133OSM    C1314342   0.614   0.129   5.825 -0.7210  0.2056  0.0383
  133OSM   H13A14343   0.633   0.059   5.745  0.0658 -0.5046  0.8265
  133OSM   H13B14344   0.511   0.160   5.818 -0.4966  0.9271 -0.0469
  133OSM   H13C14345   0.622   0.059   5.908 -1.1230 -0.3381 -0.3736
  133OSM    C1214346   0.679   0.346   5.933 -0.2370 -0.0964 -0.5073
  133OSM   H12A14347   0.593   0.402   5.902 -0.7638  0.0135  1.0903
  133OSM   H12B14348   0.759   0.418   5.929  0.6346 -1.0504 -0.7259
  133OSM    C1114349   0.657   0.316   6.086 -0.2633 -0.3644  0.1466
  133OSM   H11A14350   0.563   0.260   6.105 -0.1326 -0.2698  1.0979
  133OSM   H11B14351   0.632   0.410   6.139  1.0874  0.7406 -1.1260
  133OSM      P14352   0.875   0.312   6.230  0.2249  0.3489 -0.1313
  133OSM    O1314353   0.956   0.211   6.311  0.1223 -0.7408  0.1406
  133OSM    O1414354   0.949   0.399   6.139 -0.3114  0.2842 -0.6837
  133OSM    O1114355   0.796   0.404   6.333  0.0260 -0.4917 -0.3289
  133OSM    O1214356   0.762   0.237   6.140 -0.3394 -0.1412  0.1192
  133OSM    C1S14357   0.728   0.361   6.446 -0.0974  0.1851 -0.0437
  133OSM    H1S14358   0.736   0.252   6.466  2.7961  0.6641  1.6559
  133OSM    H1T14359   0.620   0.375   6.424 -0.7666 -1.2684  2.1656
  133OSM     NF14360   0.670   0.398   6.677  0.2307 -0.2615  0.4420
  133OSM    HNF14361   0.600   0.463   6.706  0.8456  0.2304  0.8404
  133OSM    C2S14362   0.757   0.447   6.574 -0.8375 -0.4562 -0.4766
  133OSM    H2S14363   0.862   0.436   6.608 -1.4873 -0.4168  1.5645
  133OSM    C3S14364   0.742   0.595   6.531  1.0562 -0.0901  0.3926
  133OSM    H3S14365   0.642   0.606   6.483  1.3085 -0.1136 -0.1367
  133OSM     O314366   0.833   0.652   6.442  0.5452  0.4718 -0.6944
  133OSM    HO314367   0.869   0.570   6.405 -1.5321 -1.0197  0.5182
  133OSM    C4S14368   0.756   0.673   6.659  0.1779 -0.0917 -0.1770
  133OSM    H4S14369   0.658   0.706   6.697 -0.2928 -1.2073 -0.3884
  133OSM    C5S14370   0.867   0.714   6.720 -0.2785 -0.1530  0.1813
  133OSM    H5S14371   0.965   0.703   6.671 -0.6090  3.1543 -1.3517
  133OSM    C6S14372   0.868   0.803   6.847  0.1272 -0.3721  0.1159
  133OSM    H6S14373   0.871   0.908   6.809  0.0453 -0.3799  0.0876
  133OSM    H6T14374   0.963   0.770   6.894  0.3776  2.7575  1.9154
  133OSM    C7S14375   0.753   0.776   6.940 -0.1827 -0.3219  0.5860
  133OSM    H7S14376   0.736   0.666   6.941  0.1305 -0.4001 -0.7698
  133OSM    H7T14377   0.661   0.822   6.897  0.4724  0.2702 -0.1958
  133OSM    C8S14378   0.787   0.823   7.081 -0.4627  0.0454  0.9785
  133OSM    H8S14379   0.806   0.932   7.090  0.0917 -0.0750  1.2714
  133OSM    H8T14380   0.879   0.770   7.113  0.1985  0.4043 -0.3015
  133OSM    C9S14381   0.672   0.775   7.183 -0.2567 -0.4992 -0.2898
  133OSM    H9S14382   0.647   0.667   7.175 -1.8431 -0.0252 -2.1450
  133OSM    H9T14383   0.574   0.821   7.158  0.0227  1.3927  1.8679
  133OSM   C10S14384   0.700   0.828   7.320  0.8885  0.0727  0.1916
  133OSM   H10S14385   0.742   0.931   7.324 -1.1203  0.9630 -0.6670
  133OSM   H10T14386   0.766   0.753   7.368  1.4688  1.0976  1.0232
  133OSM   C11S14387   0.569   0.824   7.410  0.6487 -0.2966 -0.4916
  133OSM   H11S14388   0.514   0.731   7.384 -1.0151  0.4904  0.1495
  133OSM   H11T14389   0.503   0.901   7.364  0.1636 -0.8369 -0.7047
  133OSM   C12S14390   0.582   0.842   7.560 -0.1229  0.2637 -0.1884
  133OSM   H12S14391   0.613   0.946   7.584  0.2936  0.7703 -2.7708
  133OSM   H12T14392   0.676   0.788   7.586 -0.6578 -0.9134 -0.6574
  133OSM   C13S14393   0.470   0.789   7.651 -0.8839 -0.5037 -0.7483
  133OSM   H13S14394   0.452   0.682   7.625 -0.9535 -0.7215  0.1819
  133OSM   H13T14395   0.369   0.833   7.638 -1.9686 -2.0681  1.8973
  133OSM   C14S14396   0.516   0.796   7.796  0.6736  0.2497 -0.1858
  133OSM   H14S14397   0.563   0.896   7.799  1.7690 -0.2740  0.1899
  133OSM   H14T14398   0.588   0.713   7.812  3.3957  2.5162 -0.2799
  133OSM   C15S14399   0.399   0.792   7.900 -0.0651 -0.1136 -0.6353
  133OSM   H15S14400   0.357   0.691   7.916 -0.3772 -0.0266 -0.8786
  133OSM   H15T14401   0.321   0.868   7.876 -0.5772 -0.0034  1.2937
  133OSM   C16S14402   0.444   0.842   8.038 -0.4442 -0.4690  0.5190
  133OSM   H16S14403   0.502   0.936   8.022 -2.2246  1.2947  3.9537
  133OSM   H16T14404   0.506   0.767   8.092 -1.1469 -1.7084 -0.3939
  133OSM   C17S14405   0.333   0.890   8.126 -0.2502 -0.2955  0.1770
  133OSM   H17S14406   0.262   0.806   8.141 -0.5914 -0.0554 -0.0929
  133OSM   H17T14407   0.277   0.969   8.071 -1.5566 -1.5701 -0.3388
  133OSM   C18S14408   0.376   0.952   8.254  0.2051  0.3527  0.5945
  133OSM   H18S14409   0.470   0.917   8.301  0.6305  2.0696  1.0495
  133OSM   H18T14410   0.294   0.935   8.327 -1.8220  0.3966 -1.6213
  133OSM   H18U14411   0.391   1.062   8.250  0.1229  0.3845  1.1915
  133OSM    C1F14412   0.685   0.281   6.735 -0.3139  0.6366  0.8830
  133OSM     OF14413   0.779   0.211   6.710 -0.8500  0.0593 -0.3340
  133OSM    C2F14414   0.575   0.243   6.828 -0.5501 -0.9641 -0.8498
  133OSM    H2F14415   0.498   0.193   6.765 -1.1620 -0.5890 -0.4052
  133OSM    H2G14416   0.536   0.332   6.882 -1.6882 -2.0036  0.0638
  133OSM    C3F14417   0.633   0.129   6.919  0.2067 -0.7851  0.1720
  133OSM    H3F14418   0.711   0.174   6.984  0.2283  0.0100 -0.4013
  133OSM    H3G14419   0.671   0.041   6.863 -0.1214 -2.0396  1.8721
  133OSM    C4F14420   0.534   0.058   7.018  0.2080 -0.3932  0.7106
  133OSM    H4F14421   0.600   0.012   7.095 -0.0209 -0.4555  0.8721
  133OSM    H4G14422   0.466  -0.017   6.971 -0.2598 -0.0384  0.8122
  133OSM    C5F14423   0.440   0.160   7.092  1.0280  0.2199 -0.9172
  133OSM    H5F14424   0.383   0.215   7.014  0.4868  0.3245 -0.4469
  133OSM    H5G14425   0.488   0.249   7.138 -3.9480  2.5384  0.1140
  133OSM    C6F14426   0.358   0.101   7.201 -0.0457 -0.2398 -0.3396
  133OSM    H6F14427   0.291   0.020   7.164  0.8432 -0.8751 -0.5708
  133OSM    H6G14428   0.295   0.186   7.234 -1.9577 -2.5074  2.0627
  133OSM    C7F14429   0.440   0.047   7.323 -0.1304 -0.1356 -0.2350
  133OSM    H7F14430   0.485   0.137   7.369  1.3008 -1.5780  1.2366
  133OSM    H7G14431   0.524  -0.015   7.285 -0.1542  0.2345 -0.9109
  133OSM    C8F14432   0.351  -0.022   7.425  0.1649 -0.2012  0.6497
  133OSM    H8F14433   0.311  -0.113   7.376  0.7462 -0.1780  0.1288
  133OSM    H8G14434   0.266   0.044   7.451  0.1525 -0.7666  2.0615
  133OSM    C9F14435   0.427  -0.070   7.550  0.1199  0.0698  0.2633
  133OSM    H9F14436   0.525  -0.116   7.530  0.5716  1.6609 -1.3408
  133OSM   C10F14437   0.393  -0.050   7.675 -0.3507 -0.5520 -0.1079
  133OSM   H10F14438   0.467  -0.090   7.746 -2.7679 -3.5903  0.8190
  133OSM   C11F14439   0.277   0.026   7.728  0.7083 -0.4976  0.3268
  133OSM   H11F14440   0.201   0.034   7.648  0.2365  0.7264  0.8878
  133OSM   H11G14441   0.305   0.130   7.757  0.9657 -0.6543  0.6408
  133OSM   C12F14442   0.211  -0.044   7.846  0.3794 -0.1127 -0.5372
  133OSM   H12F14443   0.137   0.030   7.882  0.0279 -1.4847  1.6256
  133OSM   H12G14444   0.280  -0.052   7.933 -0.8410  0.4387  0.4878
  133OSM   C13F14445   0.147  -0.181   7.816  0.0686  0.0564 -0.6855
  133OSM   H13F14446   0.237  -0.243   7.800 -0.6046 -0.8290 -1.0875
  133OSM   H13G14447   0.093  -0.186   7.718 -2.3093 -0.3216  0.5955
  133OSM   C14F14448   0.070  -0.240   7.940  0.3293 -0.4064  0.6757
  133OSM   H14F14449  -0.004  -0.169   7.983 -0.6045  0.8766 -2.9221
  133OSM   H14G14450   0.140  -0.266   8.022 -1.3175  0.4952  2.4253
  133OSM   C15F14451  -0.002  -0.362   7.899  0.2886  0.5780  0.1976
  133OSM   H15F14452   0.076  -0.436   7.876 -2.1619 -1.8389 -0.6031
  133OSM   H15G14453  -0.055  -0.349   7.802  2.6504  1.2430 -1.0210
  133OSM   C16F14454  -0.095  -0.409   8.007 -0.7770  0.0045 -0.0631
  133OSM   H16F14455  -0.169  -0.331   8.032 -0.8151 -1.2535  4.0005
  133OSM   H16G14456  -0.038  -0.431   8.100 -1.7318  0.7019  0.6933
  133OSM   C17F14457  -0.168  -0.544   7.967 -0.6587 -0.0463 -0.0003
  133OSM   H17F14458  -0.230  -0.584   8.050  0.1448  0.5908  0.9193
  133OSM   H17G14459  -0.080  -0.611   7.956  0.7341  1.2024  2.9702
  133OSM   C18F14460  -0.250  -0.537   7.841 -0.3737 -0.3312  0.2741
  133OSM   H18F14461  -0.326  -0.456   7.846 -0.7081 -0.6298  0.0157
  133OSM   H18G14462  -0.305  -0.633   7.827 -1.0615  0.1012 -0.0326
  133OSM   H18H14463  -0.191  -0.516   7.749 -0.0936 -0.8512  0.3323
  134OSM      N14464   1.457   3.969   6.487 -0.1780  0.2033  0.2045
  134OSM    C1514465   1.488   4.108   6.519 -0.0942 -0.0359 -0.4243
  134OSM   H15A14466   1.502   4.127   6.624  0.3443  0.0926 -0.5042
  134OSM   H15B14467   1.409   4.174   6.486  0.3060  1.0816  0.8521
  134OSM   H15C14468   1.576   4.135   6.462 -0.7525  1.7881 -0.5810
  134OSM    C1414469   1.446   3.962   6.337  0.2440  0.0218  0.5274
  134OSM   H14A14470   1.533   3.997   6.284 -2.0016  3.8123 -0.8543
  134OSM   H14B14471   1.364   4.020   6.297  1.5092  1.7882  0.4564
  134OSM   H14C14472   1.432   3.856   6.321 -1.7025  0.4506 -0.7568
  134OSM    C1314473   1.571   3.883   6.537  0.0933  0.2204  0.0579
  134OSM   H13A14474   1.546   3.779   6.522 -0.7706  0.3371  0.6850
  134OSM   H13B14475   1.586   3.896   6.643  1.2577  1.8458 -0.2778
  134OSM   H13C14476   1.671   3.908   6.504  0.0291  0.2526 -0.1126
  134OSM    C1214477   1.331   3.922   6.557  0.9011  0.3526 -0.4436
  134OSM   H12A14478   1.242   3.962   6.511 -0.6735 -0.3391  1.8970
  134OSM   H12B14479   1.334   3.957   6.659 -0.9261 -1.4541  0.2642
  134OSM    C1114480   1.301   3.763   6.560  0.0027 -0.4409  0.1045
  134OSM   H11A14481   1.200   3.763   6.607 -0.5326 -0.7557 -1.0139
  134OSM   H11B14482   1.371   3.702   6.621  2.3291  0.9508 -1.0989
  134OSM      P14483   1.364   3.594   6.364  0.0034  0.1093  0.1118
  134OSM    O1314484   1.331   3.584   6.221 -0.1858 -0.3564  0.2229
  134OSM    O1414485   1.502   3.616   6.395  0.4183 -0.3697  0.0699
  134OSM    O1114486   1.318   3.466   6.436 -0.0609 -0.0581 -0.8225
  134OSM    O1214487   1.283   3.707   6.428 -0.0102  0.2374  0.3583
  134OSM    C1S14488   1.337   3.434   6.575  0.6377  0.2702  0.7543
  134OSM    H1S14489   1.249   3.468   6.634  0.6618 -0.6375  1.3260
  134OSM    H1T14490   1.436   3.473   6.606  0.6244  0.2268  0.8513
  134OSM     NF14491   1.383   3.260   6.745 -0.6445  0.4010 -0.0795
  134OSM    HNF14492   1.471   3.213   6.754 -0.9720  0.1454  2.1427
  134OSM    C2S14493   1.336   3.283   6.604  0.3862  0.2338 -0.5674
  134OSM    H2S14494   1.228   3.255   6.603  0.3872  0.1626  0.5589
  134OSM    C3S14495   1.401   3.199   6.504  0.5637 -0.8689  0.3552
  134OSM    H3S14496   1.505   3.233   6.485  0.6220 -1.3459 -0.2075
  134OSM     O314497   1.329   3.206   6.383  0.8486  0.5825  0.8596
  134OSM    HO314498   1.275   3.283   6.402  0.4634  0.7470 -0.8240
  134OSM    C4S14499   1.409   3.057   6.557  0.0191  0.1770  0.5033
  134OSM    H4S14500   1.313   3.005   6.565  0.3225 -0.5073 -0.3016
  134OSM    C5S14501   1.520   2.993   6.596 -0.5842 -0.3083  0.7416
  134OSM    H5S14502   1.613   3.052   6.605 -0.5992 -0.5169  2.4213
  134OSM    C6S14503   1.516   2.858   6.664  0.8138 -0.4427  0.2769
  134OSM    H6S14504   1.564   2.788   6.593  1.9645  1.4270 -0.8439
  134OSM    H6T14505   1.417   2.820   6.698 -0.3214  0.9225 -1.3909
  134OSM    C7S14506   1.604   2.881   6.786  0.6459  0.4378 -0.2823
  134OSM    H7S14507   1.699   2.936   6.771  0.2112  1.0088 -0.9691
  134OSM    H7T14508   1.637   2.782   6.826  0.1023 -0.7226 -2.6539
  134OSM    C8S14509   1.541   2.950   6.905  0.3536  0.8270 -0.4622
  134OSM    H8S14510   1.443   2.902   6.929  0.9829 -0.2077  0.0409
  134OSM    H8T14511   1.510   3.050   6.866 -0.8046 -0.0453 -1.8857
  134OSM    C9S14512   1.624   2.943   7.029 -0.2773  1.1225 -0.7360
  134OSM    H9S14513   1.730   2.970   7.010 -0.5738 -0.4775 -5.3728
  134OSM    H9T14514   1.635   2.836   7.055 -2.7279  0.7486 -1.0660
  134OSM   C10S14515   1.593   3.037   7.151  0.1140  0.4923  0.4838
  134OSM   H10S14516   1.492   3.014   7.192  1.4473 -0.0721  3.5936
  134OSM   H10T14517   1.594   3.143   7.117 -1.4084  0.7223  1.1009
  134OSM   C11S14518   1.692   3.017   7.264 -0.0482  0.8065 -0.1154
  134OSM   H11S14519   1.793   3.048   7.229  0.7088  0.4560  1.7202
  134OSM   H11T14520   1.706   2.907   7.275  1.9952  1.3377  3.4019
  134OSM   C12S14521   1.636   3.096   7.384 -0.4361  0.1391  0.0510
  134OSM   H12S14522   1.527   3.075   7.387 -0.1703 -1.4248 -0.5693
  134OSM   H12T14523   1.654   3.206   7.379 -2.7078  0.5484  0.2110
  134OSM   C13S14524   1.691   3.033   7.515  0.5122  0.0548  0.4012
  134OSM   H13S14525   1.800   3.051   7.528  0.5808 -0.2165  0.2081
  134OSM   H13T14526   1.693   2.922   7.510 -2.0801  0.0248 -0.6672
  134OSM   C14S14527   1.611   3.082   7.635 -0.2537  0.6613  0.0820
  134OSM   H14S14528   1.506   3.052   7.619 -0.3487  1.6524 -1.1903
  134OSM   H14T14529   1.612   3.193   7.647  1.2804  0.5841  0.9158
  134OSM   C15S14530   1.679   3.044   7.769  0.2314 -0.6922  0.1261
  134OSM   H15S14531   1.780   3.088   7.782 -0.9605  2.1405 -0.0308
  134OSM   H15T14532   1.680   2.933   7.775  1.3080 -0.6442  1.0931
  134OSM   C16S14533   1.593   3.072   7.897 -1.2224  0.2551  0.1877
  134OSM   H16S14534   1.492   3.032   7.871 -1.3734  0.9367 -0.2847
  134OSM   H16T14535   1.579   3.181   7.915 -0.9219  0.2142  0.6777
  134OSM   C17S14536   1.650   3.014   8.027 -0.1022 -0.4508  0.9821
  134OSM   H17S14537   1.735   3.077   8.061  0.1911 -0.6607  0.6324
  134OSM   H17T14538   1.678   2.908   8.018  0.1025 -0.5616  2.6906
  134OSM   C18S14539   1.542   3.025   8.144  0.5270 -0.0450 -0.2145
  134OSM   H18S14540   1.444   2.976   8.122 -0.5792  0.3800  3.4936
  134OSM   H18T14541   1.519   3.133   8.149  0.2641 -0.0526 -1.1800
  134OSM   H18U14542   1.593   2.992   8.237  0.6731  0.8093  0.0052
  134OSM    C1F14543   1.318   3.291   6.856  1.0045  0.2065  0.3027
  134OSM     OF14544   1.195   3.303   6.845 -0.0618  0.3975  0.1951
  134OSM    C2F14545   1.396   3.315   6.983  0.1020 -0.6471 -0.1514
  134OSM    H2F14546   1.478   3.389   6.967  0.2647 -0.1827  2.6386
  134OSM    H2G14547   1.439   3.215   7.009  1.9161  0.3374  0.7368
  134OSM    C3F14548   1.314   3.347   7.112 -0.4210 -0.2159  0.0836
  134OSM    H3F14549   1.259   3.255   7.143  0.9620 -1.4074 -0.8995
  134OSM    H3G14550   1.246   3.431   7.086  1.2067  1.0031 -0.3204
  134OSM    C4F14551   1.412   3.390   7.226  0.7772 -0.3676  1.0533
  134OSM    H4F14552   1.491   3.462   7.196  2.4683 -2.6085  0.0468
  134OSM    H4G14553   1.470   3.303   7.262 -0.1542 -0.9174  1.2391
  134OSM    C5F14554   1.332   3.447   7.340  0.5070 -0.2742 -0.4595
  134OSM    H5F14555   1.254   3.371   7.363  0.7121 -0.0124  1.2034
  134OSM    H5G14556   1.278   3.540   7.314  1.0812 -0.1861 -1.3376
  134OSM    C6F14557   1.411   3.458   7.475  0.2216 -0.1912 -0.2967
  134OSM    H6F14558   1.506   3.512   7.459  0.7763 -1.5060 -1.6250
  134OSM    H6G14559   1.442   3.357   7.510  1.6741 -0.7676 -3.0854
  134OSM    C7F14560   1.331   3.518   7.597 -0.2024  0.7455  0.6418
  134OSM    H7F14561   1.225   3.494   7.577  0.1410  2.5096 -3.8828
  134OSM    H7G14562   1.341   3.629   7.593 -3.7763  1.1093  0.5484
  134OSM    C8F14563   1.376   3.462   7.731 -0.4553  0.6197 -0.0933
  134OSM    H8F14564   1.485   3.440   7.727 -1.1032 -2.8621 -0.5460
  134OSM    H8G14565   1.331   3.362   7.748 -1.5491  1.0345 -0.5489
  134OSM    C9F14566   1.336   3.547   7.848 -0.4516 -0.1230  0.2631
  134OSM    H9F14567   1.394   3.640   7.863  2.0496 -1.6669  0.3850
  134OSM   C10F14568   1.249   3.523   7.949  0.5927  0.0055  0.6299
  134OSM   H10F14569   1.214   3.598   8.021  0.6452 -0.3098  0.9871
  134OSM   C11F14570   1.173   3.393   7.958  0.0252  0.3869 -0.4146
  134OSM   H11F14571   1.249   3.315   7.936  0.7464  1.1365 -0.6416
  134OSM   H11G14572   1.098   3.391   7.877  1.2004 -1.6442 -1.4668
  134OSM   C12F14573   1.125   3.351   8.102 -0.0089  0.1090  0.8743
  134OSM   H12F14574   1.050   3.269   8.104 -1.0335  0.9272 -1.5674
  134OSM   H12G14575   1.084   3.440   8.153 -1.5560  0.2432 -0.5745
  134OSM   C13F14576   1.237   3.298   8.197  0.0371  0.2108  1.0054
  134OSM   H13F14577   1.309   3.383   8.200 -1.6070  1.6851 -0.4378
  134OSM   H13G14578   1.280   3.205   8.156 -1.2026 -2.1493  4.8138
  134OSM   C14F14579   1.183   3.260   8.332  0.5280 -0.0141  0.3255
  134OSM   H14F14580   1.134   3.161   8.329 -1.1590  0.7982  0.2380
  134OSM   H14G14581   1.095   3.321   8.361  1.4008  1.7404 -0.6062
  134OSM   C15F14582   1.278   3.270   8.446 -0.6727  0.0289  0.9043
  134OSM   H15F14583   1.228   3.298   8.541  2.4998  1.9857  2.0981
  134OSM   H15G14584   1.350   3.352   8.426  0.7003 -1.2849  0.2660
  134OSM   C16F14585   1.358   3.141   8.447  0.8269 -0.2710 -0.7732
  134OSM   H16F14586   1.381   3.101   8.346  0.1398  0.2659 -1.1586
  134OSM   H16G14587   1.289   3.068   8.494  1.2568  0.3020  0.7594
  134OSM   C17F14588   1.480   3.162   8.535 -0.1894  0.1945  0.5651
  134OSM   H17F14589   1.441   3.191   8.635  1.5000  0.3945  1.1868
  134OSM   H17G14590   1.534   3.248   8.490  0.4065  0.2510  1.3734
  134OSM   C18F14591   1.561   3.033   8.539 -0.4743  0.3682 -0.0592
  134OSM   H18F14592   1.661   3.064   8.575  0.2347  0.4526 -2.0370
  134OSM   H18G14593   1.588   2.993   8.440 -1.7567  2.6710 -1.3957
  134OSM   H18H14594   1.509   2.965   8.609 -0.1808 -0.9737 -1.1346
  135OSM      N14595   0.892   3.366   5.947  0.0323 -0.4968 -0.2178
  135OSM    C1514596   0.849   3.506   5.963  0.3664 -0.1312 -0.5143
  135OSM   H15A14597   0.901   3.546   6.048 -0.6149  0.0554  0.0114
  135OSM   H15B14598   0.742   3.504   5.982  0.4649 -0.7671 -0.0055
  135OSM   H15C14599   0.852   3.568   5.874 -0.3611 -1.0576 -1.1955
  135OSM    C1414600   0.793   3.296   5.857 -0.0448  0.7749  0.1648
  135OSM   H14A14601   0.829   3.195   5.843 -0.7165  0.5318  0.1796
  135OSM   H14B14602   0.779   3.346   5.762 -1.5769  0.8467  0.4279
  135OSM   H14C14603   0.698   3.279   5.905 -0.4152  0.8016 -0.5518
  135OSM    C1314604   1.024   3.351   5.875  0.5323 -0.0199  0.2584
  135OSM   H13A14605   1.110   3.397   5.922  1.2677 -0.3056 -0.7788
  135OSM   H13B14606   1.008   3.401   5.780  0.2422  1.7778  1.2367
  135OSM   H13C14607   1.051   3.248   5.860 -0.8341 -0.4729  0.8856
  135OSM    C1214608   0.886   3.295   6.076  0.4339 -0.3127  0.1855
  135OSM   H12A14609   0.919   3.192   6.072  1.2249 -0.1152  1.4654
  135OSM   H12B14610   0.780   3.286   6.099  0.1313 -1.0421 -1.4322
  135OSM    C1114611   0.960   3.366   6.193 -0.4669 -0.3174 -0.1943
  135OSM   H11A14612   1.062   3.395   6.160 -1.0488  1.4759 -0.4507
  135OSM   H11B14613   0.978   3.290   6.272  0.2106  0.9305  0.8804
  135OSM      P14614   0.762   3.462   6.331 -0.6016  0.0023 -0.0202
  135OSM    O1314615   0.708   3.598   6.366 -0.2010  0.4266  0.6591
  135OSM    O1414616   0.670   3.367   6.267 -0.3167 -0.0199 -0.2071
  135OSM    O1114617   0.817   3.387   6.456 -0.0199 -0.1459  0.0731
  135OSM    O1214618   0.894   3.481   6.242  0.1298 -0.0680  0.4222
  135OSM    C1S14619   0.917   3.444   6.541 -0.1923 -0.6780 -0.1893
  135OSM    H1S14620   0.934   3.552   6.518 -3.7832 -0.1761 -0.7924
  135OSM    H1T14621   1.004   3.378   6.524  0.0488 -0.5672  0.5983
  135OSM     NF14622   0.992   3.501   6.774  0.3121 -0.4795 -0.3432
  135OSM    HNF14623   1.062   3.443   6.815 -1.8911 -3.6868 -0.9580
  135OSM    C2S14624   0.887   3.431   6.694  0.3781  0.2249  0.0438
  135OSM    H2S14625   0.791   3.486   6.706  0.5830  0.5714  0.0949
  135OSM    C3S14626   0.869   3.284   6.731  0.6756  0.7376  0.0294
  135OSM    H3S14627   0.969   3.237   6.722  1.0596  1.6273 -0.4194
  135OSM     O314628   0.787   3.203   6.648  0.2080  0.0624 -0.0420
  135OSM    HO314629   0.801   3.234   6.558 -0.4773 -1.3794 -0.6668
  135OSM    C4S14630   0.831   3.267   6.870 -0.0967 -0.0319 -0.0826
  135OSM    H4S14631   0.923   3.255   6.930 -0.1784  0.1245  0.0721
  135OSM    C5S14632   0.711   3.258   6.929  0.0807  0.2402  0.3002
  135OSM    H5S14633   0.617   3.261   6.873  0.4500  0.7918 -0.2970
  135OSM    C6S14634   0.692   3.238   7.081 -0.1648 -0.6107 -0.2830
  135OSM    H6S14635   0.634   3.147   7.109 -1.4517  0.3383  0.2069
  135OSM    H6T14636   0.634   3.324   7.121 -0.7638 -0.3103 -1.7631
  135OSM    C7S14637   0.827   3.224   7.175  0.4595  1.1149 -0.2617
  135OSM    H7S14638   0.897   3.297   7.129 -1.0863  3.1327  0.4891
  135OSM    H7T14639   0.858   3.118   7.178 -0.8753  0.6265 -2.4838
  135OSM    C8S14640   0.801   3.272   7.315 -0.2089  0.2873 -0.2508
  135OSM    H8S14641   0.711   3.212   7.339  1.1132 -2.8134 -2.6722
  135OSM    H8T14642   0.777   3.380   7.303  2.5860  1.3597  3.1271
  135OSM    C9S14643   0.930   3.253   7.397 -0.3825 -0.0598 -0.4370
  135OSM    H9S14644   1.016   3.306   7.350 -0.1744 -0.0276 -0.0275
  135OSM    H9T14645   0.953   3.145   7.407 -0.6217  0.0063  0.9752
  135OSM   C10S14646   0.929   3.308   7.550  0.0092 -0.1652  0.0076
  135OSM   H10S14647   0.953   3.416   7.559  0.5676 -0.0423 -2.4270
  135OSM   H10T14648   1.015   3.252   7.594 -0.5423 -1.7848 -0.9380
  135OSM   C11S14649   0.798   3.278   7.617 -0.0720  0.9392  0.3354
  135OSM   H11S14650   0.782   3.168   7.612  0.6334  0.7961  1.0366
  135OSM   H11T14651   0.711   3.324   7.567 -0.9771 -0.3278  0.7260
  135OSM   C12S14652   0.804   3.317   7.767  0.5274 -0.7315 -0.1628
  135OSM   H12S14653   0.815   3.427   7.774  0.3485 -0.7084 -0.2621
  135OSM   H12T14654   0.888   3.265   7.818  1.3047  2.3633  1.8622
  135OSM   C13S14655   0.679   3.272   7.844  0.5291 -0.4576 -0.2239
  135OSM   H13S14656   0.657   3.174   7.797  2.4587 -0.3995 -1.2835
  135OSM   H13T14657   0.587   3.335   7.833 -1.2535 -2.5913  1.8373
  135OSM   C14S14658   0.703   3.258   7.999 -0.2340  0.7410  0.5108
  135OSM   H14S14659   0.760   3.167   8.027 -0.3489 -0.2202 -2.2131
  135OSM   H14T14660   0.601   3.240   8.039 -1.3451  1.4584 -1.8880
  135OSM   C15S14661   0.748   3.389   8.054 -0.2004 -0.4889  0.1376
  135OSM   H15S14662   0.716   3.475   7.991 -1.3350  0.2133  1.6166
  135OSM   H15T14663   0.858   3.385   8.066 -0.0975  0.5360 -0.3838
  135OSM   C16S14664   0.690   3.412   8.199  0.3498 -0.3428 -0.0347
  135OSM   H16S14665   0.738   3.338   8.267  1.8068  0.7812  0.1792
  135OSM   H16T14666   0.580   3.397   8.200  0.7331 -3.5433  1.4083
  135OSM   C17S14667   0.726   3.552   8.252  0.2791  0.6749 -0.5058
  135OSM   H17S14668   0.705   3.631   8.177 -0.5992  0.8782 -0.0491
  135OSM   H17T14669   0.835   3.556   8.272  0.7012  2.2251 -2.8481
  135OSM   C18S14670   0.651   3.587   8.381 -0.3074  0.6094 -0.5122
  135OSM   H18S14671   0.690   3.688   8.404  1.6650 -0.2078 -0.2141
  135OSM   H18T14672   0.669   3.517   8.465  0.0325  0.8048 -0.4224
  135OSM   H18U14673   0.540   3.591   8.375 -0.3746  0.8831  0.8343
  135OSM    C1F14674   1.006   3.638   6.779  0.0695 -0.2241  0.9413
  135OSM     OF14675   0.937   3.716   6.704  0.4211  0.3529 -0.8625
  135OSM    C2F14676   1.107   3.692   6.871 -0.4098 -0.8015  0.4768
  135OSM    H2F14677   1.139   3.786   6.822  0.4854 -0.4391  1.7474
  135OSM    H2G14678   1.204   3.639   6.877  0.3596  0.7914  2.3099
  135OSM    C3F14679   1.032   3.738   7.003  1.1375  0.5783  0.0395
  135OSM    H3F14680   0.959   3.817   6.977 -0.2575 -0.6676  0.0809
  135OSM    H3G14681   1.113   3.786   7.062  0.8965  1.8829 -0.6848
  135OSM    C4F14682   0.961   3.629   7.076 -0.0162 -0.4946  0.3934
  135OSM    H4F14683   1.027   3.554   7.126 -0.7000 -1.0949  0.4062
  135OSM    H4G14684   0.889   3.585   7.004  1.0469 -1.2636 -0.2113
  135OSM    C5F14685   0.872   3.684   7.196  0.0006  0.1686  0.5962
  135OSM    H5F14686   0.816   3.601   7.246  0.1238 -2.6920 -3.7433
  135OSM    H5G14687   0.803   3.753   7.143  4.1876  2.7122 -1.7167
  135OSM    C6F14688   0.948   3.763   7.301 -0.2838 -0.1657  0.0475
  135OSM    H6F14689   1.001   3.844   7.246 -0.0071 -0.4389 -0.0940
  135OSM    H6G14690   1.023   3.691   7.341  1.7699 -0.1351 -3.4773
  135OSM    C7F14691   0.852   3.811   7.414  0.1148 -0.1597  0.1984
  135OSM    H7F14692   0.801   3.719   7.450  0.3299 -0.1129  0.6304
  135OSM    H7G14693   0.776   3.874   7.364  0.6890  2.1736  2.2072
  135OSM    C8F14694   0.932   3.882   7.528 -0.8484 -0.0056 -0.1870
  135OSM    H8F14695   0.858   3.931   7.595 -0.5970  0.7338 -0.4443
  135OSM    H8G14696   0.991   3.967   7.488  0.3797 -1.4100 -1.4023
  135OSM    C9F14697   1.031   3.791   7.604 -0.7645 -0.7292  0.0646
  135OSM    H9F14698   1.120   3.772   7.543 -1.6306  1.5246 -1.9822
  135OSM   C10F14699   1.022   3.747   7.729  0.0486 -0.2430 -0.3226
  135OSM   H10F14700   1.101   3.684   7.771 -0.2080  1.6809  3.2349
  135OSM   C11F14701   0.907   3.767   7.824 -0.0348 -0.0761 -0.7095
  135OSM   H11F14702   0.906   3.684   7.897 -0.7338 -0.1608 -0.8162
  135OSM   H11G14703   0.813   3.755   7.766 -0.6162  0.1902  0.1643
  135OSM   C12F14704   0.915   3.902   7.894  0.0290 -0.2648 -0.2553
  135OSM   H12F14705   0.920   3.992   7.829 -1.4185 -0.2474 -0.3657
  135OSM   H12G14706   1.017   3.910   7.936 -0.2498  0.6038  0.2730
  135OSM   C13F14707   0.799   3.915   7.998  0.3942 -0.7509 -0.1172
  135OSM   H13F14708   0.822   3.843   8.079 -2.9720 -1.9134 -0.0784
  135OSM   H13G14709   0.697   3.893   7.958  0.2102 -1.2398  0.6201
  135OSM   C14F14710   0.782   4.053   8.060 -0.7850 -0.0399 -0.0175
  135OSM   H14F14711   0.751   4.122   7.979 -0.7647 -0.2221 -0.1794
  135OSM   H14G14712   0.886   4.087   8.080 -0.4920  0.7396 -2.6444
  135OSM   C15F14713   0.694   4.062   8.184 -0.1871  0.3331 -0.0331
  135OSM   H15F14714   0.728   3.999   8.269 -0.2773 -0.9125 -0.9063
  135OSM   H15G14715   0.597   4.017   8.155  0.1384  0.2350 -0.9795
  135OSM   C16F14716   0.688   4.211   8.238  0.5593 -0.4452 -0.3690
  135OSM   H16F14717   0.672   4.273   8.147 -2.2820 -1.1359 -0.3840
  135OSM   H16G14718   0.789   4.220   8.284  0.1912 -0.0702  0.3611
  135OSM   C17F14719   0.595   4.240   8.354 -0.2803 -0.3692  0.0384
  135OSM   H17F14720   0.493   4.216   8.316 -1.0943  1.7494  0.8336
  135OSM   H17G14721   0.608   4.346   8.384 -0.1550 -0.9206  1.9582
  135OSM   C18F14722   0.617   4.149   8.476  0.1870  0.0243 -0.4310
  135OSM   H18F14723   0.726   4.138   8.498 -0.0884 -0.0754  0.9068
  135OSM   H18G14724   0.573   4.048   8.463  1.0516 -0.7842  2.4925
  135OSM   H18H14725   0.570   4.190   8.568  2.8437  0.7253  0.6850
  136OSM      N14726   5.638   4.537   5.768 -0.4503 -0.1472 -0.4514
  136OSM    C1514727   5.528   4.614   5.842 -0.7285  0.6136 -0.8544
  136OSM   H15A14728   5.548   4.719   5.859 -0.7986  0.3455  1.0861
  136OSM   H15B14729   5.506   4.567   5.937  0.7420  0.5754 -0.5113
  136OSM   H15C14730   5.445   4.599   5.775 -0.8524 -0.9678 -0.3686
  136OSM    C1414731   5.577   4.401   5.750 -0.6615  0.0939 -0.8032
  136OSM   H14A14732   5.535   4.362   5.842  0.1989  0.0548 -0.4292
  136OSM   H14B14733   5.650   4.332   5.713 -0.6968 -0.1380 -0.4388
  136OSM   H14C14734   5.490   4.408   5.685 -0.8623  0.9200 -0.4562
  136OSM    C1314735   5.662   4.592   5.634  0.1912 -0.6867  1.1968
  136OSM   H13A14736   5.722   4.680   5.653  0.7930 -0.9124  0.3802
  136OSM   H13B14737   5.572   4.630   5.588  1.7543  0.6066 -0.9282
  136OSM   H13C14738   5.710   4.528   5.561  1.6063  1.2074  0.4238
  136OSM    C1214739   5.762   4.537   5.844 -0.4191  0.8316 -0.3911
  136OSM   H12A14740   5.783   4.642   5.857  0.0664  0.8718 -1.4453
  136OSM   H12B14741   5.847   4.500   5.788  0.0487 -0.2549  1.0100
  136OSM    C1114742   5.772   4.478   5.989 -0.1125  0.1922  0.2417
  136OSM   H11A14743   5.879   4.476   6.019 -0.0949  0.6230  0.2041
  136OSM   H11B14744   5.739   4.372   5.992  0.3522 -0.1372 -3.4329
  136OSM      P14745   5.752   4.718   6.110 -0.3404 -0.1489  0.2608
  136OSM    O1314746   5.864   4.757   6.018  0.1490 -0.5455 -0.2413
  136OSM    O1414747   5.634   4.811   6.124  0.2643 -0.2465  0.1250
  136OSM    O1114748   5.827   4.711   6.250 -0.5790  0.2390 -0.5022
  136OSM    O1214749   5.700   4.565   6.077 -0.2739 -1.2104 -0.3338
  136OSM    C1S14750   5.907   4.601   6.286 -0.2114  0.4883 -0.4159
  136OSM    H1S14751   6.014   4.629   6.278  0.1538  0.0827  2.4966
  136OSM    H1T14752   5.880   4.502   6.243  2.0837 -1.1396  1.7637
  136OSM     NF14753   5.991   4.498   6.491 -0.0466 -0.3315  0.1185
  136OSM    HNF14754   5.953   4.418   6.536 -0.5276 -1.0231 -1.4925
  136OSM    C2S14755   5.892   4.595   6.442 -0.8405 -0.7597 -0.4101
  136OSM    H2S14756   5.909   4.698   6.482 -1.7127  0.0677 -2.0861
  136OSM    C3S14757   5.743   4.566   6.481 -0.0077 -0.1979 -0.3937
  136OSM    H3S14758   5.700   4.489   6.413  0.9762 -1.7464  0.7130
  136OSM     O314759   5.667   4.685   6.463 -0.0939  0.0541  0.1245
  136OSM    HO314760   5.721   4.740   6.406 -0.1242  1.7736  1.6822
  136OSM    C4S14761   5.733   4.524   6.624  0.4348  0.5535 -0.1896
  136OSM    H4S14762   5.801   4.571   6.696  0.2822  1.6164 -0.7310
  136OSM    C5S14763   5.640   4.428   6.669  0.2157  0.0709 -0.0361
  136OSM    H5S14764   5.577   4.382   6.591 -0.1793 -0.6209  0.6836
  136OSM    C6S14765   5.617   4.375   6.808 -0.7745  1.0419 -0.5202
  136OSM    H6S14766   5.659   4.272   6.814 -0.8435  1.1721  3.0995
  136OSM    H6T14767   5.511   4.364   6.839 -0.1630  0.4818  1.4467
  136OSM    C7S14768   5.686   4.458   6.918  0.7384 -0.4412  0.4832
  136OSM    H7S14769   5.670   4.567   6.906  0.8468 -0.4792 -0.0207
  136OSM    H7T14770   5.797   4.451   6.915  0.6041 -2.3730 -0.9201
  136OSM    C8S14771   5.658   4.416   7.060 -0.2188  0.2098 -0.8640
  136OSM    H8S14772   5.695   4.313   7.080  2.0993  1.2802  0.6185
  136OSM    H8T14773   5.549   4.411   7.081  0.3270 -0.4301  2.1212
  136OSM    C9S14774   5.716   4.491   7.176  0.7301 -0.7089  0.3608
  136OSM    H9S14775   5.683   4.596   7.162  0.7152 -0.8266 -0.4848
  136OSM    H9T14776   5.826   4.492   7.157  0.5850  0.1906 -0.4423
  136OSM   C10S14777   5.676   4.437   7.318  0.1613 -0.3531  0.0912
  136OSM   H10S14778   5.726   4.338   7.331  0.0838 -0.4393 -0.2475
  136OSM   H10T14779   5.568   4.415   7.332 -0.3095  1.0071 -1.3139
  136OSM   C11S14780   5.724   4.519   7.438 -0.7615  0.7363 -0.9622
  136OSM   H11S14781   5.700   4.628   7.433 -0.4378  0.7880 -1.4448
  136OSM   H11T14782   5.834   4.522   7.428 -0.8171  0.6236 -1.6789
  136OSM   C12S14783   5.684   4.468   7.574  0.4289 -0.3402  1.0985
  136OSM   H12S14784   5.723   4.366   7.595  0.9881 -0.7173 -1.6375
  136OSM   H12T14785   5.573   4.464   7.576  0.3830  1.0813  1.7084
  136OSM   C13S14786   5.723   4.555   7.691 -0.8604  0.2500  0.9071
  136OSM   H13S14787   5.649   4.638   7.688  1.2406  2.1071 -1.3105
  136OSM   H13T14788   5.823   4.602   7.676  0.3619 -1.4304  3.3176
  136OSM   C14S14789   5.689   4.494   7.830 -0.4746  0.4790  0.1406
  136OSM   H14S14790   5.746   4.400   7.845 -0.3851  0.6174  0.6727
  136OSM   H14T14791   5.588   4.448   7.825  0.5427 -1.8916  0.7649
  136OSM   C15S14792   5.710   4.581   7.957 -0.2371 -0.2732  0.6429
  136OSM   H15S14793   5.820   4.594   7.962 -0.4324  2.5820 -1.3267
  136OSM   H15T14794   5.682   4.522   8.047  0.7786  0.7763  1.6693
  136OSM   C16S14795   5.635   4.717   7.957 -0.3810 -0.3245  0.3101
  136OSM   H16S14796   5.529   4.702   7.930 -0.5301  0.1535  0.6275
  136OSM   H16T14797   5.669   4.770   7.866 -1.0696 -0.9370 -0.3054
  136OSM   C17S14798   5.657   4.785   8.089 -0.4506 -0.7216  0.8514
  136OSM   H17S14799   5.625   4.891   8.080 -1.3030 -1.2364 -3.5743
  136OSM   H17T14800   5.765   4.788   8.113 -0.5176  2.2959  0.8881
  136OSM   C18S14801   5.583   4.724   8.211  0.5152  0.0063 -0.1838
  136OSM   H18S14802   5.621   4.623   8.237  0.1360  0.6060  2.9137
  136OSM   H18T14803   5.475   4.711   8.187  0.8070 -1.4768 -0.7437
  136OSM   H18U14804   5.587   4.795   8.296 -0.4443  0.8482 -0.8305
  136OSM    C1F14805   6.120   4.515   6.492 -0.1075  0.3676  0.3448
  136OSM     OF14806   6.176   4.614   6.436 -0.2003  0.0147 -0.0417
  136OSM    C2F14807   6.193   4.398   6.542  0.1334  0.1130  0.5462
  136OSM    H2F14808   6.247   4.358   6.454  0.2025 -1.0744  1.1230
  136OSM    H2G14809   6.124   4.323   6.586 -3.3332  1.2248 -2.7627
  136OSM    C3F14810   6.291   4.425   6.659 -0.1020 -0.0272 -0.1366
  136OSM    H3F14811   6.373   4.495   6.632  0.5051 -1.2473 -1.4991
  136OSM    H3G14812   6.353   4.337   6.687 -1.3392 -0.6985  0.5148
  136OSM    C4F14813   6.217   4.476   6.783  0.6904  0.6288  0.0926
  136OSM    H4F14814   6.139   4.402   6.810  1.3161 -0.2685 -0.5016
  136OSM    H4G14815   6.164   4.570   6.760  0.7032 -0.0594 -2.9843
  136OSM    C5F14816   6.296   4.497   6.911 -0.4083  0.2007 -0.2086
  136OSM    H5F14817   6.243   4.574   6.972  0.6801  0.6928  0.1236
  136OSM    H5G14818   6.394   4.538   6.878  0.7251 -2.7658 -0.6112
  136OSM    C6F14819   6.329   4.378   6.994 -0.2906  0.6957 -0.7202
  136OSM    H6F14820   6.411   4.325   6.941  0.3369  0.9631 -0.0334
  136OSM    H6G14821   6.249   4.303   7.001 -0.6153  1.2077  1.8091
  136OSM    C7F14822   6.363   4.410   7.142 -0.7037 -0.0196  0.7580
  136OSM    H7F14823   6.286   4.470   7.194 -0.0049  0.2637  1.4853
  136OSM    H7G14824   6.455   4.474   7.144  0.0842 -1.1286  0.5106
  136OSM    C8F14825   6.404   4.279   7.217  0.1298 -0.3459  0.1047
  136OSM    H8F14826   6.495   4.240   7.166 -0.2315  0.1887 -0.9846
  136OSM    H8G14827   6.326   4.201   7.207  2.7536 -2.8570 -1.6795
  136OSM    C9F14828   6.434   4.305   7.359 -0.6654  0.6721  0.2036
  136OSM    H9F14829   6.520   4.373   7.368 -0.5063  0.3760  0.9555
  136OSM   C10F14830   6.366   4.264   7.469 -0.2134 -0.1545 -0.5981
  136OSM   H10F14831   6.404   4.289   7.569  2.0336 -3.2784 -0.5994
  136OSM   C11F14832   6.237   4.182   7.470 -0.5987  0.0956 -0.5883
  136OSM   H11F14833   6.258   4.074   7.486 -0.7793  0.3225  1.3293
  136OSM   H11G14834   6.195   4.185   7.367 -0.3274  0.7752 -0.6756
  136OSM   C12F14835   6.140   4.223   7.577  0.5262 -0.2066 -0.0853
  136OSM   H12F14836   6.042   4.170   7.574  1.2757 -1.9685  3.2689
  136OSM   H12G14837   6.113   4.330   7.570  0.2335 -0.3643 -1.5120
  136OSM   C13F14838   6.206   4.203   7.720  0.2012 -0.1479 -0.9918
  136OSM   H13F14839   6.297   4.262   7.742  0.7126 -1.6477  0.9659
  136OSM   H13G14840   6.240   4.097   7.722  0.6530  0.0010 -0.7840
  136OSM   C14F14841   6.114   4.240   7.835  0.0718 -0.3583  0.5247
  136OSM   H14F14842   6.014   4.192   7.833 -0.8946  1.6110 -0.0772
  136OSM   H14G14843   6.100   4.350   7.826 -2.0435 -0.7725 -1.5676
  136OSM   C15F14844   6.172   4.198   7.969 -0.2523 -0.2569  0.1463
  136OSM   H15F14845   6.242   4.282   7.991 -1.6347  0.9497  0.0609
  136OSM   H15G14846   6.231   4.106   7.951 -0.7576 -0.6028  0.2731
  136OSM   C16F14847   6.086   4.166   8.086  0.2472 -0.3779  0.0933
  136OSM   H16F14848   6.151   4.121   8.164  0.0408 -1.4179 -0.3319
  136OSM   H16G14849   6.015   4.086   8.057 -0.9446  0.4236  0.7370
  136OSM   C17F14850   6.022   4.300   8.124  0.4442 -0.2976  0.2358
  136OSM   H17F14851   6.048   4.374   8.045 -0.3073 -0.3847 -0.0968
  136OSM   H17G14852   6.063   4.340   8.218 -0.0806  1.9757 -0.4625
  136OSM   C18F14853   5.868   4.290   8.132  0.1427  1.0469  0.4455
  136OSM   H18F14854   5.815   4.380   8.169 -0.9341  0.4999  0.2563
  136OSM   H18G14855   5.840   4.212   8.206 -0.8943  0.9365 -0.0483
  136OSM   H18H14856   5.845   4.270   8.026  0.3025  0.1597  0.5745
  137OSM      N14857   2.592   3.138   6.492  0.0296  0.0387 -0.5750
  137OSM    C1514858   2.438   3.104   6.466  0.8565  0.4295 -0.0263
  137OSM   H15A14859   2.435   3.012   6.408 -3.3098  1.1758 -1.1605
  137OSM   H15B14860   2.388   3.181   6.410 -3.2389 -1.8222  0.3312
  137OSM   H15C14861   2.395   3.095   6.565  0.0247  0.6755 -0.3664
  137OSM    C1414862   2.645   3.192   6.367 -0.6463  0.1183  0.3567
  137OSM   H14A14863   2.590   3.279   6.335 -0.5838  1.7855  4.4661
  137OSM   H14B14864   2.623   3.127   6.284 -0.8473 -0.0754  0.5612
  137OSM   H14C14865   2.751   3.213   6.370 -0.5715 -0.5109  2.9743
  137OSM    C1314866   2.604   3.252   6.595  0.2338  0.8960  0.6935
  137OSM   H13A14867   2.705   3.289   6.603  1.6548 -2.6744 -0.1968
  137OSM   H13B14868   2.573   3.219   6.693  2.8069 -1.8612  0.6226
  137OSM   H13C14869   2.545   3.338   6.565  0.1821  0.6437  0.0818
  137OSM    C1214870   2.659   3.012   6.548 -0.0891 -0.1858 -0.0309
  137OSM   H12A14871   2.620   2.988   6.647  1.1940 -0.0438  0.5188
  137OSM   H12B14872   2.762   3.041   6.559 -0.7454  1.2531  2.6538
  137OSM    C1114873   2.644   2.880   6.467 -0.2665  1.2985 -0.2715
  137OSM   H11A14874   2.682   2.902   6.365  1.2164  2.8431  0.6031
  137OSM   H11B14875   2.535   2.858   6.456  0.0074  0.3896 -1.2470
  137OSM      P14876   2.680   2.624   6.505  0.1298 -0.1146  0.5799
  137OSM    O1314877   2.540   2.606   6.464  0.2531 -0.4907  0.5043
  137OSM    O1414878   2.786   2.576   6.410  0.1436 -0.6392 -0.2338
  137OSM    O1114879   2.704   2.554   6.643  0.2066  0.0201  0.3714
  137OSM    O1214880   2.709   2.777   6.540  0.5453  0.1466 -0.0787
  137OSM    C1S14881   2.658   2.605   6.769  0.1384  0.1178  0.6924
  137OSM    H1S14882   2.663   2.716   6.768 -2.3446  0.3242 -4.2706
  137OSM    H1T14883   2.715   2.559   6.852  1.5150 -2.6317 -1.7219
  137OSM     NF14884   2.454   2.614   6.914 -0.2081  0.8948  0.1874
  137OSM    HNF14885   2.423   2.554   6.988  0.0444 -1.4224 -1.5426
  137OSM    C2S14886   2.507   2.551   6.793 -1.0543  0.3390 -0.0608
  137OSM    H2S14887   2.441   2.586   6.710 -0.1328  2.0967 -0.0864
  137OSM    C3S14888   2.500   2.398   6.795  0.5585  0.2655  0.3090
  137OSM    H3S14889   2.559   2.369   6.885 -0.2673  1.6487  1.3243
  137OSM     O314890   2.562   2.341   6.683  0.2451 -0.6377 -0.4946
  137OSM    HO314891   2.602   2.420   6.645 -2.1103  1.0863  0.5372
  137OSM    C4S14892   2.362   2.344   6.792  0.5811  0.0688 -0.6185
  137OSM    H4S14893   2.302   2.381   6.708  1.0524  1.1271 -0.4960
  137OSM    C5S14894   2.317   2.247   6.881  0.8106 -0.1705  0.4581
  137OSM    H5S14895   2.379   2.214   6.966  2.3452 -0.3903 -0.7105
  137OSM    C6S14896   2.175   2.182   6.888 -0.9669 -0.0239 -0.1699
  137OSM    H6S14897   2.122   2.198   6.792 -0.2122 -0.4404 -0.6695
  137OSM    H6T14898   2.118   2.240   6.964  0.1353  1.1459 -0.2155
  137OSM    C7S14899   2.158   2.036   6.928  0.6359  0.0942 -0.0328
  137OSM    H7S14900   2.229   1.974   6.869 -1.3324 -1.5564 -0.7029
  137OSM    H7T14901   2.056   2.010   6.894  1.6944 -1.4656 -2.1717
  137OSM    C8S14902   2.171   2.016   7.083 -0.0740  0.5370  0.2456
  137OSM    H8S14903   2.099   2.081   7.136 -1.2142  0.6444 -1.3871
  137OSM    H8T14904   2.274   2.044   7.115 -0.6615  1.3846  1.4315
  137OSM    C9S14905   2.152   1.867   7.111  0.4765 -0.4395  0.2990
  137OSM    H9S14906   2.177   1.805   7.022  3.1334  0.1282  0.5930
  137OSM    H9T14907   2.042   1.856   7.121  0.6035 -0.6090  1.6555
  137OSM   C10S14908   2.229   1.811   7.235 -0.0893  0.0019  0.7659
  137OSM   H10S14909   2.339   1.819   7.221 -0.4522  0.7208 -1.9447
  137OSM   H10T14910   2.191   1.708   7.253 -1.6975  1.0190  3.3574
  137OSM   C11S14911   2.189   1.887   7.366  0.5984 -0.1282  0.6283
  137OSM   H11S14912   2.085   1.855   7.385 -0.4167  2.6620 -0.0664
  137OSM   H11T14913   2.197   1.997   7.351  1.8604 -0.3124 -0.1602
  137OSM   C12S14914   2.270   1.842   7.483  0.0864  0.1054 -0.4541
  137OSM   H12S14915   2.378   1.860   7.466  0.5656 -1.8630  0.4244
  137OSM   H12T14916   2.249   1.734   7.496  0.2758  0.2710  1.3113
  137OSM   C13S14917   2.224   1.906   7.615 -0.6284 -1.2102 -0.2851
  137OSM   H13S14918   2.211   2.014   7.595  0.7398 -0.7311  1.2565
  137OSM   H13T14919   2.303   1.876   7.688 -0.3016 -1.7110 -0.8409
  137OSM   C14S14920   2.105   1.844   7.685  0.2081  0.0753  0.2736
  137OSM   H14S14921   2.131   1.739   7.712 -0.7916 -0.7077 -1.6511
  137OSM   H14T14922   2.016   1.845   7.618  0.0466 -1.0341  0.4566
  137OSM   C15S14923   2.076   1.911   7.822  0.1479  0.0514 -0.2478
  137OSM   H15S14924   2.019   2.006   7.805  0.3560  0.3423  0.6763
  137OSM   H15T14925   2.171   1.934   7.874  0.1114 -0.9143  0.2566
  137OSM   C16S14926   2.003   1.817   7.918  0.5325 -0.3811  0.6996
  137OSM   H16S14927   2.057   1.727   7.951 -0.4369  0.0766  3.6844
  137OSM   H16T14928   1.915   1.776   7.863 -0.9461  1.3019  1.7315
  137OSM   C17S14929   1.950   1.903   8.039 -0.0643  0.0850 -0.2969
  137OSM   H17S14930   1.872   1.976   8.010 -0.4684 -0.0677  0.3924
  137OSM   H17T14931   2.037   1.960   8.078  1.1025 -0.0008 -2.6697
  137OSM   C18S14932   1.884   1.832   8.160 -0.1505  0.8632  0.0163
  137OSM   H18S14933   1.883   1.893   8.253 -0.7151  0.5461  0.2213
  137OSM   H18T14934   1.945   1.743   8.184 -1.9710 -1.2912 -2.9047
  137OSM   H18U14935   1.781   1.795   8.138 -0.5670  2.6067 -1.0337
  137OSM    C1F14936   2.433   2.744   6.934  0.7806  0.2777 -0.6803
  137OSM     OF14937   2.463   2.836   6.861  0.3700  0.2290  0.0122
  137OSM    C2F14938   2.344   2.778   7.049 -0.4426  0.4890 -0.0341
  137OSM    H2F14939   2.309   2.687   7.103  4.7553  0.4802  3.6740
  137OSM    H2G14940   2.261   2.839   7.008 -0.5650  0.2779 -0.0981
  137OSM    C3F14941   2.423   2.854   7.156  0.2755 -0.0311  0.1975
  137OSM    H3F14942   2.460   2.946   7.107 -1.5753 -0.9828 -3.1296
  137OSM    H3G14943   2.511   2.793   7.186 -0.3591 -0.6448  0.8423
  137OSM    C4F14944   2.342   2.889   7.282  0.8640  0.5355  0.6664
  137OSM    H4F14945   2.418   2.931   7.352  1.3268  0.5611  0.1575
  137OSM    H4G14946   2.299   2.795   7.321 -0.8430  0.4701 -1.2802
  137OSM    C5F14947   2.228   2.982   7.253  0.1758  0.2193 -1.0563
  137OSM    H5F14948   2.170   2.943   7.167 -0.1221 -2.3926  0.2916
  137OSM    H5G14949   2.276   3.081   7.234 -0.7040  0.7515 -0.5688
  137OSM    C6F14950   2.137   3.002   7.376  0.2987 -0.1142  0.2085
  137OSM    H6F14951   2.095   2.904   7.408 -1.5883  0.6837  0.2331
  137OSM    H6G14952   2.046   3.060   7.351  0.1852 -1.0610 -1.7363
  137OSM    C7F14953   2.200   3.099   7.481 -0.4561 -0.4799  0.0656
  137OSM    H7F14954   2.127   3.177   7.508  1.0084  0.4105  1.5708
  137OSM    H7G14955   2.281   3.158   7.433 -0.5514 -0.5786 -0.2181
  137OSM    C8F14956   2.253   3.025   7.604 -0.0106 -0.5794 -0.0892
  137OSM    H8F14957   2.331   2.956   7.567  0.8267  0.7967 -0.9583
  137OSM    H8G14958   2.159   2.971   7.628  0.3635 -0.9603  0.5018
  137OSM    C9F14959   2.302   3.114   7.716 -0.3071  0.0433 -0.0706
  137OSM    H9F14960   2.260   3.215   7.708  1.7322  0.9480  0.3983
  137OSM   C10F14961   2.391   3.078   7.808 -0.8188  0.1712 -0.3316
  137OSM   H10F14962   2.414   3.152   7.887 -1.4574 -2.1115  2.0668
  137OSM   C11F14963   2.463   2.947   7.825  0.9063  0.3517  0.3188
  137OSM   H11F14964   2.469   2.902   7.724 -1.1635 -0.0193  0.3524
  137OSM   H11G14965   2.407   2.880   7.893 -0.2786  1.3557  0.3434
  137OSM   C12F14966   2.609   2.957   7.872  0.1782  0.3368 -0.7435
  137OSM   H12F14967   2.653   3.055   7.844 -0.0735  0.8471  0.6512
  137OSM   H12G14968   2.656   2.874   7.816  1.3301  0.6283 -0.2156
  137OSM   C13F14969   2.640   2.934   8.025  0.6753  0.7016 -0.3105
  137OSM   H13F14970   2.750   2.916   8.023  0.5503 -0.3191  1.4890
  137OSM   H13G14971   2.582   2.843   8.050  2.2789 -0.4978 -0.8503
  137OSM   C14F14972   2.614   3.056   8.108  0.8123 -0.6599  0.4109
  137OSM   H14F14973   2.515   3.095   8.074  1.2430 -2.6402 -3.3970
  137OSM   H14G14974   2.687   3.135   8.081 -1.7714  2.0263  0.9482
  137OSM   C15F14975   2.625   3.039   8.263  0.0389  0.2655  0.7400
  137OSM   H15F14976   2.734   3.029   8.281  0.0720  1.6261  1.3379
  137OSM   H15G14977   2.558   2.959   8.302 -1.4609  0.4585 -1.3690
  137OSM   C16F14978   2.603   3.173   8.339  0.2009 -0.1453  0.2291
  137OSM   H16F14979   2.503   3.220   8.325  0.1040 -0.9128 -1.8351
  137OSM   H16G14980   2.679   3.245   8.302  0.1607  0.7502  1.8517
  137OSM   C17F14981   2.620   3.157   8.492 -0.4069 -0.5180 -0.2713
  137OSM   H17F14982   2.596   3.258   8.532 -0.5037  0.0575 -1.7455
  137OSM   H17G14983   2.728   3.135   8.507 -0.3116  0.3590  0.3571
  137OSM   C18F14984   2.535   3.053   8.549  0.1985  0.4271 -0.0895
  137OSM   H18F14985   2.443   3.035   8.490 -0.0188  3.0031 -0.5949
  137OSM   H18G14986   2.503   3.073   8.654 -3.2155 -0.9152 -0.8272
  137OSM   H18H14987   2.583   2.953   8.555 -1.6699 -0.4781 -0.0845
  138OSM      N14988   2.840   4.876   5.702  0.6085 -0.3972  0.0008
  138OSM    C1514989   2.784   4.953   5.586  0.3971  0.1825  0.9604
  138OSM   H15A14990   2.754   4.895   5.500 -0.0508 -0.4916  1.5636
  138OSM   H15B14991   2.860   5.018   5.545  1.1690 -0.6199  1.0923
  138OSM   H15C14992   2.692   5.003   5.608  0.5417  0.1896  1.5597
  138OSM    C1414993   2.736   4.774   5.750 -0.2366 -0.0542 -0.0191
  138OSM   H14A14994   2.770   4.717   5.835 -0.7201  1.0684  0.9278
  138OSM   H14B14995   2.709   4.719   5.661  2.3725  0.8837 -1.4576
  138OSM   H14C14996   2.650   4.823   5.791 -1.0622 -0.1367 -1.6187
  138OSM    C1314997   2.954   4.801   5.646  0.5302 -0.0651  0.0028
  138OSM   H13A14998   3.005   4.732   5.711  0.9548  0.9865  0.8104
  138OSM   H13B14999   3.036   4.866   5.620 -0.6305  2.6304  2.7524
  138OSM   H13C15000   2.919   4.740   5.564  1.7121  0.1686 -0.6884
  138OSM    C1215001   2.889   4.960   5.817 -0.0938 -0.7588  0.0914
  138OSM   H12A15002   2.812   5.026   5.855  1.1273  1.2102 -0.7728
  138OSM   H12B15003   2.974   5.009   5.774  0.6456 -1.1916  1.0384
  138OSM    C1115004   2.929   4.878   5.940 -1.1384  0.1590  0.6955
  138OSM   H11A15005   2.837   4.823   5.970 -0.0839 -2.8506 -1.2968
  138OSM   H11B15006   2.946   4.946   6.025  0.0479  1.8266 -0.8312
  138OSM      P15007   3.069   4.688   6.038  0.3815 -0.0002  0.7232
  138OSM    O1315008   2.965   4.584   6.039 -0.0604 -0.2638  0.3640
  138OSM    O1415009   3.204   4.630   6.014  0.2063  0.5049 -0.5939
  138OSM    O1115010   3.048   4.787   6.168 -0.3492  0.1211 -0.1363
  138OSM    O1215011   3.046   4.794   5.920  0.1113 -0.2332 -0.4123
  138OSM    C1S15012   2.983   4.737   6.285  0.1114  0.2222  0.3978
  138OSM    H1S15013   3.030   4.647   6.328 -2.2108 -0.9491  0.5440
  138OSM    H1T15014   2.875   4.719   6.262 -0.0139  0.5365  0.7426
  138OSM     NF15015   2.920   4.802   6.508  0.1537 -0.9851 -0.0351
  138OSM    HNF15016   2.822   4.817   6.509  0.4811  1.3365  0.9897
  138OSM    C2S15017   2.992   4.850   6.391 -0.1006  0.1818 -0.0669
  138OSM    H2S15018   3.099   4.862   6.421  0.2678  0.4939 -1.4728
  138OSM    C3S15019   2.952   4.990   6.347 -0.0827  0.3293 -0.2329
  138OSM    H3S15020   2.844   4.982   6.323  0.2039 -1.4861 -1.0088
  138OSM     O315021   3.014   5.051   6.231  0.6396  0.0619  0.0645
  138OSM    HO315022   3.066   4.981   6.191  1.0555 -0.0749  0.8315
  138OSM    C4S15023   2.964   5.085   6.460 -0.2772  0.0703  0.4705
  138OSM    H4S15024   2.883   5.066   6.532  0.4347  1.2476  1.6047
  138OSM    C5S15025   3.058   5.183   6.488 -0.3528  0.7285  0.1479
  138OSM    H5S15026   3.146   5.200   6.424  0.7676  0.3128  1.5488
  138OSM    C6S15027   3.034   5.259   6.619 -0.3780  0.1060  0.1834
  138OSM    H6S15028   2.927   5.282   6.634 -0.5382 -3.0181  4.9666
  138OSM    H6T15029   3.114   5.335   6.631  0.7663 -0.9671 -0.4904
  138OSM    C7S15030   3.080   5.167   6.737 -0.0047 -0.3410  0.1897
  138OSM    H7S15031   3.182   5.125   6.742  0.2813  0.5431  2.5318
  138OSM    H7T15032   3.011   5.080   6.731 -0.1910 -0.2417  0.8268
  138OSM    C8S15033   3.058   5.233   6.877  0.1093 -0.2433  0.6128
  138OSM    H8S15034   3.072   5.343   6.868 -1.9385 -0.0977 -1.4133
  138OSM    H8T15035   3.138   5.190   6.940  0.9467  0.9287  0.3677
  138OSM    C9S15036   2.919   5.215   6.937 -1.1265 -0.5953 -0.4879
  138OSM    H9S15037   2.891   5.107   6.942  1.4590 -1.3477 -1.5320
  138OSM    H9T15038   2.840   5.262   6.875 -1.9040 -1.4985 -0.2040
  138OSM   C10S15039   2.917   5.256   7.087  0.0365  0.1670  0.8593
  138OSM   H10S15040   2.813   5.240   7.122 -0.3442  0.9865  0.1287
  138OSM   H10T15041   2.939   5.364   7.101 -1.3028  0.4544  0.8121
  138OSM   C11S15042   2.992   5.168   7.184  0.0625 -0.4333  0.5312
  138OSM   H11S15043   3.098   5.196   7.170 -0.5544  1.0624 -1.4589
  138OSM   H11T15044   2.966   5.065   7.151 -0.2309  0.3947 -1.9555
  138OSM   C12S15045   2.963   5.198   7.328 -0.5498 -0.2962 -0.5369
  138OSM   H12S15046   2.981   5.107   7.388 -1.8961 -0.7095 -0.7329
  138OSM   H12T15047   2.854   5.221   7.335 -0.5878 -0.4052 -0.7485
  138OSM   C13S15048   3.060   5.306   7.385  0.1783 -0.2729 -0.5409
  138OSM   H13S15049   3.086   5.379   7.305  1.9792  1.7262  1.7990
  138OSM   H13T15050   3.155   5.253   7.408  1.3626  1.5984 -1.0058
  138OSM   C14S15051   2.998   5.380   7.504 -0.6150 -0.2883 -0.1039
  138OSM   H14S15052   2.904   5.429   7.472 -1.4310 -1.9424 -0.2654
  138OSM   H14T15053   3.070   5.455   7.544 -0.4382  0.1254 -1.1558
  138OSM   C15S15054   2.950   5.287   7.619 -0.3745 -0.0788 -0.5117
  138OSM   H15S15055   2.893   5.198   7.584 -0.7795  0.2474 -0.6943
  138OSM   H15T15056   2.885   5.341   7.691  0.8218 -0.8885  1.1905
  138OSM   C16S15057   3.069   5.245   7.706  0.1521  0.4574 -0.7599
  138OSM   H16S15058   3.124   5.332   7.746  1.7479 -0.7778 -0.2144
  138OSM   H16T15059   3.131   5.182   7.639 -0.2388 -0.5993 -0.1483
  138OSM   C17S15060   3.028   5.146   7.812  0.4530  0.6016  0.3798
  138OSM   H17S15061   3.105   5.086   7.865 -0.1677 -0.1185  0.4743
  138OSM   H17T15062   2.960   5.076   7.759  1.1828  1.4657 -1.7744
  138OSM   C18S15063   2.932   5.209   7.916 -0.0437  0.5044  0.1646
  138OSM   H18S15064   2.984   5.304   7.944 -0.3450  0.9926 -0.9106
  138OSM   H18T15065   2.912   5.146   8.005  0.5780 -1.4904 -1.0716
  138OSM   H18U15066   2.832   5.226   7.872 -0.4066  0.1958  0.8723
  138OSM    C1F15067   2.974   4.706   6.584  0.0096  0.4098 -0.3443
  138OSM     OF15068   3.078   4.646   6.551  0.4508 -0.0266 -0.3799
  138OSM    C2F15069   2.908   4.686   6.719  0.1835  0.9685 -0.2073
  138OSM    H2F15070   2.800   4.670   6.700  0.5413 -0.8412 -0.7213
  138OSM    H2G15071   2.912   4.777   6.784 -1.1896  2.0650 -1.6281
  138OSM    C3F15072   2.957   4.555   6.772 -0.5505  0.3496  0.7341
  138OSM    H3F15073   3.066   4.555   6.793 -0.6675  0.7723  1.3845
  138OSM    H3G15074   2.941   4.470   6.703 -2.0234  0.1583  1.2902
  138OSM    C4F15075   2.892   4.521   6.912  0.0463 -0.2282 -0.0366
  138OSM    H4F15076   2.788   4.501   6.879  1.1220 -2.8933 -2.0854
  138OSM    H4G15077   2.894   4.620   6.961  0.0828 -0.4588  0.4274
  138OSM    C5F15078   2.948   4.406   6.993 -0.4407 -0.1994  1.0330
  138OSM    H5F15079   3.057   4.426   6.995 -0.4879  0.7687 -2.5970
  138OSM    H5G15080   2.937   4.319   6.924 -0.1134 -0.8939  1.8523
  138OSM    C6F15081   2.889   4.379   7.129 -0.2478 -0.7042  0.2468
  138OSM    H6F15082   2.937   4.284   7.160 -0.2984 -1.1827 -1.1058
  138OSM    H6G15083   2.781   4.360   7.112  0.3652 -2.9260 -1.4569
  138OSM    C7F15084   2.919   4.485   7.232 -0.3212 -0.0148 -0.1692
  138OSM    H7F15085   2.868   4.576   7.192 -2.9158 -2.0257 -1.5815
  138OSM    H7G15086   3.025   4.515   7.224 -0.0400 -0.6178  1.1823
  138OSM    C8F15087   2.892   4.453   7.379 -0.3986 -0.1759  0.2156
  138OSM    H8F15088   2.796   4.401   7.402 -0.0644 -0.2926  1.3984
  138OSM    H8G15089   2.896   4.545   7.441 -0.3688  0.5444 -0.8585
  138OSM    C9F15090   3.004   4.367   7.421 -0.4397  1.0887 -0.3002
  138OSM    H9F15091   3.089   4.365   7.353  0.0568  0.9332  0.3184
  138OSM   C10F15092   3.015   4.287   7.528 -0.3517 -0.2266 -0.0602
  138OSM   H10F15093   3.099   4.218   7.543 -0.7382  0.0828  4.1542
  138OSM   C11F15094   2.906   4.257   7.632 -0.0583  0.0244  0.8005
  138OSM   H11F15095   2.927   4.151   7.656  0.9317 -0.2941 -1.3100
  138OSM   H11G15096   2.803   4.253   7.590  0.7051  1.7762 -1.3566
  138OSM   C12F15097   2.912   4.351   7.752  0.3847  0.0103 -0.6104
  138OSM   H12F15098   2.901   4.458   7.724  0.3643  0.2100  0.1450
  138OSM   H12G15099   3.012   4.343   7.799  0.0857 -1.0791 -0.1221
  138OSM   C13F15100   2.804   4.329   7.851 -0.4460 -0.5457  0.7105
  138OSM   H13F15101   2.782   4.220   7.840  1.7299 -0.8251 -1.2131
  138OSM   H13G15102   2.714   4.392   7.835  0.2410  0.6045  1.3528
  138OSM   C14F15103   2.830   4.346   7.996 -0.1279  0.1616  0.3591
  138OSM   H14F15104   2.778   4.441   8.022  0.6389  0.9712 -1.0202
  138OSM   H14G15105   2.937   4.347   8.028 -0.0693  0.7686  0.1583
  138OSM   C15F15106   2.778   4.232   8.078 -1.2848  0.7297  0.4141
  138OSM   H15F15107   2.830   4.140   8.046  1.3734  2.5352 -0.7007
  138OSM   H15G15108   2.670   4.210   8.068 -1.1490  0.3779 -0.2291
  138OSM   C16F15109   2.795   4.262   8.227 -1.1102 -0.0289 -0.4309
  138OSM   H16F15110   2.756   4.364   8.251  0.0554  0.7322 -1.6904
  138OSM   H16G15111   2.904   4.263   8.246 -1.4315 -0.6914  1.6015
  138OSM   C17F15112   2.740   4.158   8.311  0.6898  0.8382  0.5805
  138OSM   H17F15113   2.787   4.063   8.276  0.4993  0.4564  1.3427
  138OSM   H17G15114   2.632   4.142   8.290  0.7997  2.5707 -1.4136
  138OSM   C18F15115   2.755   4.176   8.461 -0.4586  0.0951 -0.5703
  138OSM   H18F15116   2.854   4.150   8.505 -1.7000  0.1789  2.3558
  138OSM   H18G15117   2.675   4.132   8.524  0.1342  2.7535  2.1494
  138OSM   H18H15118   2.741   4.284   8.486  0.3077  0.3590 -1.2533
  139OSM      N15119   2.420   6.193   6.159 -0.7995  0.7390  0.7153
  139OSM    C1515120   2.500   6.073   6.160 -0.0077  0.8808 -0.2256
  139OSM   H15A15121   2.607   6.092   6.153  0.3377 -0.4871  1.0422
  139OSM   H15B15122   2.448   6.009   6.091  1.6286 -0.6688 -0.0800
  139OSM   H15C15123   2.496   6.022   6.255  1.5989 -1.2635 -1.2628
  139OSM    C1415124   2.464   6.277   6.271 -0.5312  0.0865  0.3617
  139OSM   H14A15125   2.445   6.223   6.362  0.3828  0.7677  0.9686
  139OSM   H14B15126   2.416   6.372   6.288  0.3746  0.6210 -0.0113
  139OSM   H14C15127   2.571   6.292   6.262 -0.4192 -1.3240 -0.8843
  139OSM    C1315128   2.460   6.252   6.028 -0.0302 -0.0550  0.1213
  139OSM   H13A15129   2.435   6.188   5.945  1.7071  1.3052 -1.4731
  139OSM   H13B15130   2.560   6.291   6.022 -0.4676  0.6439 -4.1004
  139OSM   H13C15131   2.414   6.349   6.016 -0.4342  0.1051  2.6273
  139OSM    C1215132   2.268   6.171   6.167  0.6681 -0.1289 -0.3749
  139OSM   H12A15133   2.226   6.270   6.158 -0.7326 -0.9390 -3.4028
  139OSM   H12B15134   2.240   6.132   6.264 -4.7575  0.1441 -1.7039
  139OSM    C1115135   2.200   6.079   6.061 -0.1065 -0.3495  0.1680
  139OSM   H11A15136   2.201   6.127   5.961 -1.1267 -1.6394 -0.4939
  139OSM   H11B15137   2.091   6.077   6.085 -0.0535 -0.2850  0.4156
  139OSM      P15138   2.203   5.830   6.165 -0.1145  0.0969 -0.2693
  139OSM    O1315139   2.084   5.763   6.102 -0.6352 -0.7642  0.0106
  139OSM    O1415140   2.315   5.742   6.200  0.3818  0.8725 -0.2707
  139OSM    O1115141   2.151   5.899   6.300 -0.6971 -0.4218 -0.6515
  139OSM    O1215142   2.261   5.950   6.068 -0.0258  0.0350 -0.0130
  139OSM    C1S15143   2.228   5.927   6.415  0.8124 -0.3335  0.4503
  139OSM    H1S15144   2.273   6.028   6.416 -2.8174  1.3692  0.7816
  139OSM    H1T15145   2.304   5.849   6.434  0.1406 -0.7724  1.3677
  139OSM     NF15146   2.193   5.966   6.657 -0.3903 -0.9294  0.1482
  139OSM    HNF15147   2.240   5.903   6.718 -2.0925 -1.4848  0.9254
  139OSM    C2S15148   2.129   5.914   6.535  0.3174  0.5760 -0.3422
  139OSM    H2S15149   2.044   5.983   6.514 -1.8290 -1.7959  0.2688
  139OSM    C3S15150   2.057   5.775   6.554 -0.2756  0.2079  0.2076
  139OSM    H3S15151   2.140   5.701   6.564 -0.3789  0.1266  0.4660
  139OSM     O315152   1.979   5.739   6.440 -0.5956  0.0237  0.1296
  139OSM    HO315153   1.992   5.806   6.373 -1.6551 -0.0465 -0.1479
  139OSM    C4S15154   1.958   5.766   6.676  0.6110  0.1608 -0.2205
  139OSM    H4S15155   1.866   5.825   6.674 -0.0473 -0.7966  0.9185
  139OSM    C5S15156   1.977   5.687   6.787 -0.1274 -0.6224  0.0765
  139OSM    H5S15157   2.061   5.616   6.786  0.7121  0.3820 -1.0934
  139OSM    C6S15158   1.875   5.674   6.893  0.6515  0.2832 -0.8460
  139OSM    H6S15159   1.884   5.579   6.950  0.8099  1.7966  1.7442
  139OSM    H6T15160   1.773   5.695   6.854  0.6246  3.2868  0.7036
  139OSM    C7S15161   1.904   5.757   7.017 -0.6118  0.6061  0.0459
  139OSM    H7S15162   1.816   5.731   7.080 -0.5605  0.2950 -0.0121
  139OSM    H7T15163   1.904   5.863   6.983  1.7524  0.2749 -1.0800
  139OSM    C8S15164   2.033   5.726   7.092 -0.4232  0.2212 -0.3094
  139OSM    H8S15165   2.120   5.751   7.028  0.9156 -1.9960  0.5668
  139OSM    H8T15166   2.038   5.618   7.120  2.0430  0.1637 -0.8402
  139OSM    C9S15167   2.048   5.805   7.220  0.6725 -0.3041  0.1537
  139OSM    H9S15168   1.992   5.900   7.205 -2.1228 -1.7600  1.1283
  139OSM    H9T15169   2.157   5.829   7.223  0.9821 -1.7498  0.6150
  139OSM   C10S15170   2.005   5.731   7.344 -0.3747  0.3582  0.4669
  139OSM   H10S15171   2.057   5.632   7.343 -0.2564  0.4079  1.8495
  139OSM   H10T15172   1.895   5.721   7.334 -0.2414 -0.9753  0.1949
  139OSM   C11S15173   2.037   5.807   7.475  0.5153 -0.4019 -0.6419
  139OSM   H11S15174   2.142   5.843   7.475 -0.3707  2.3729 -2.5724
  139OSM   H11T15175   2.013   5.729   7.551  1.6022  0.3273  0.4547
  139OSM   C12S15176   1.942   5.923   7.492 -0.5014 -0.2070  0.3876
  139OSM   H12S15177   1.837   5.896   7.467 -0.0783 -2.1108  0.5948
  139OSM   H12T15178   1.983   5.995   7.418  0.9688 -0.6053  0.8047
  139OSM   C13S15179   1.957   6.010   7.622  0.2881 -0.1102  0.3556
  139OSM   H13S15180   1.898   6.102   7.603 -0.0120 -0.1492  1.0814
  139OSM   H13T15181   2.060   6.052   7.631 -0.6903  2.7876 -1.3382
  139OSM   C14S15182   1.919   5.923   7.744 -0.0618  0.1483 -0.5202
  139OSM   H14S15183   1.984   5.834   7.757 -1.0251 -0.5431 -0.4008
  139OSM   H14T15184   1.815   5.885   7.734  0.5253 -1.6217 -0.0592
  139OSM   C15S15185   1.915   6.003   7.876  0.0034 -1.0658  0.8298
  139OSM   H15S15186   1.881   5.932   7.955 -3.3651  1.8015  2.0754
  139OSM   H15T15187   1.835   6.079   7.865  0.3369 -1.1528 -2.4545
  139OSM   C16S15188   2.049   6.063   7.919  0.2003 -0.6945 -0.6124
  139OSM   H16S15189   2.108   6.111   7.837 -0.0021  0.4831 -0.0824
  139OSM   H16T15190   2.109   5.976   7.951  0.3428 -0.1183  0.7043
  139OSM   C17S15191   2.038   6.161   8.040 -0.2047 -0.2989  0.3182
  139OSM   H17S15192   1.944   6.140   8.097 -0.4421 -1.4590 -0.4928
  139OSM   H17T15193   2.034   6.260   7.991  1.0851 -1.6300 -2.5787
  139OSM   C18S15194   2.158   6.162   8.136 -0.8117 -0.5996 -0.2702
  139OSM   H18S15195   2.191   6.062   8.173 -1.3041 -0.6233  0.1202
  139OSM   H18T15196   2.136   6.222   8.227  1.7671  0.7096 -0.4560
  139OSM   H18U15197   2.246   6.220   8.101 -0.0260 -0.2316  2.2163
  139OSM    C1F15198   2.208   6.094   6.673  0.6456 -1.0265 -0.4486
  139OSM     OF15199   2.185   6.172   6.583 -0.3093 -0.2946 -0.0728
  139OSM    C2F15200   2.257   6.141   6.809  0.1782 -0.3512  0.1373
  139OSM    H2F15201   2.222   6.245   6.825  0.4721  0.0288 -1.5634
  139OSM    H2G15202   2.366   6.121   6.807  0.1778 -0.5234  1.2882
  139OSM    C3F15203   2.203   6.058   6.928  0.4111  0.5312  0.7659
  139OSM    H3F15204   2.255   5.960   6.930  2.2459  1.4727 -0.2332
  139OSM    H3G15205   2.093   6.050   6.910  0.4391  0.8486  0.4599
  139OSM    C4F15206   2.221   6.118   7.069  0.1470  0.0096 -0.3599
  139OSM    H4F15207   2.180   6.043   7.140 -0.4204  1.6576  1.0966
  139OSM    H4G15208   2.165   6.214   7.074  2.4290  1.4353 -0.8494
  139OSM    C5F15209   2.370   6.129   7.115 -0.1135  0.3766 -0.0486
  139OSM    H5F15210   2.419   6.194   7.040  1.6033 -0.6938  0.1328
  139OSM    H5G15211   2.423   6.031   7.111 -0.3078  0.2369  0.7152
  139OSM    C6F15212   2.389   6.200   7.251  0.7365  0.1289  0.3585
  139OSM    H6F15213   2.340   6.300   7.248 -0.4014 -0.4530 -1.3019
  139OSM    H6G15214   2.499   6.214   7.256  0.3955  2.7959  1.3981
  139OSM    C7F15215   2.322   6.117   7.355  0.3527 -0.4545 -0.1581
  139OSM    H7F15216   2.384   6.026   7.366 -0.3292 -0.6470  2.4029
  139OSM    H7G15217   2.215   6.090   7.341  0.0063  0.4759  0.6444
  139OSM    C8F15218   2.332   6.178   7.500  0.4580 -0.2296  0.0374
  139OSM    H8F15219   2.283   6.105   7.568 -0.5851 -0.6587 -1.1443
  139OSM    H8G15220   2.256   6.260   7.499 -0.3225 -0.9388  0.1879
  139OSM    C9F15221   2.469   6.227   7.539 -0.7241  0.0121  0.0865
  139OSM    H9F15222   2.512   6.311   7.483 -1.9249  0.6868  0.1743
  139OSM   C10F15223   2.554   6.167   7.633  0.0715  0.0276  0.0523
  139OSM   H10F15224   2.649   6.218   7.659 -0.2975 -0.0456  1.5718
  139OSM   C11F15225   2.529   6.043   7.715 -0.3470 -0.1215  0.5504
  139OSM   H11F15226   2.610   5.968   7.706 -0.4522 -0.2706  0.8216
  139OSM   H11G15227   2.430   6.001   7.686  0.9422 -3.3370  0.6667
  139OSM   C12F15228   2.507   6.074   7.870 -0.9818  0.4605  0.0155
  139OSM   H12F15229   2.495   5.976   7.920  1.2405  0.5256  0.7066
  139OSM   H12G15230   2.419   6.139   7.892 -0.6292  0.5485  1.1707
  139OSM   C13F15231   2.623   6.143   7.939 -0.0221 -0.7476  0.3367
  139OSM   H13F15232   2.624   6.251   7.914 -1.1773 -0.3928  1.8030
  139OSM   H13G15233   2.714   6.090   7.901  0.5840  1.1871 -1.0021
  139OSM   C14F15234   2.612   6.146   8.096 -0.2398 -0.1019 -0.1377
  139OSM   H14F15235   2.527   6.217   8.112  1.8642  2.3902  0.3826
  139OSM   H14G15236   2.707   6.188   8.135  0.6246 -0.8430 -1.4199
  139OSM   C15F15237   2.577   6.015   8.167  0.2523 -0.2090 -0.0488
  139OSM   H15F15238   2.480   5.976   8.130  0.9395 -3.6551  1.6629
  139OSM   H15G15239   2.571   6.034   8.276  1.5471  3.7187 -0.5641
  139OSM   C16F15240   2.676   5.905   8.149  1.5084 -0.5420 -0.1151
  139OSM   H16F15241   2.781   5.940   8.143  1.0813  0.5784 -1.1464
  139OSM   H16G15242   2.655   5.861   8.049 -1.5191  0.5838 -0.0374
  139OSM   C17F15243   2.659   5.787   8.242  0.1166  0.2239 -0.2323
  139OSM   H17F15244   2.679   5.694   8.186  1.3328 -0.0524  0.6404
  139OSM   H17G15245   2.552   5.791   8.268  0.2835  4.1545  0.2624
  139OSM   C18F15246   2.743   5.797   8.373  0.2283 -0.3682  0.3325
  139OSM   H18F15247   2.850   5.792   8.341  0.8136  0.6844  2.0540
  139OSM   H18G15248   2.722   5.707   8.435  3.8648 -1.3590  0.3001
  139OSM   H18H15249   2.715   5.888   8.431  0.3740 -1.7635  2.6700
  140OSM      N15250   2.196   0.572   6.126  0.2877  0.0875  0.3116
  140OSM    C1515251   2.257   0.469   6.032  0.4168  0.6331 -0.4690
  140OSM   H15A15252   2.205   0.376   6.049  0.6165  0.0261 -3.0382
  140OSM   H15B15253   2.363   0.466   6.050  0.1666  2.9595  1.6917
  140OSM   H15C15254   2.250   0.500   5.929 -1.1269  3.2027  0.3449
  140OSM    C1415255   2.054   0.599   6.112  0.0135 -0.5215  0.7191
  140OSM   H14A15256   1.994   0.510   6.124  0.6879 -1.2004 -0.6994
  140OSM   H14B15257   2.021   0.644   6.020 -2.1844 -0.2341  1.6252
  140OSM   H14C15258   2.025   0.667   6.190  0.4960  2.4487 -1.6208
  140OSM    C1315259   2.222   0.514   6.263 -0.2985  0.0668  0.6509
  140OSM   H13A15260   2.176   0.417   6.268  1.6284 -1.0019 -1.4301
  140OSM   H13B15261   2.192   0.579   6.344  0.1449  0.1321  0.7632
  140OSM   H13C15262   2.328   0.496   6.273  0.2856  0.7838 -3.3571
  140OSM    C1215263   2.287   0.698   6.121 -0.3574  0.3712  0.4055
  140OSM   H12A15264   2.229   0.777   6.167 -0.8255  0.4249 -0.2768
  140OSM   H12B15265   2.297   0.715   6.015 -0.1785  1.2917  0.5675
  140OSM    C1115266   2.430   0.699   6.190  0.7434 -0.0250  0.8216
  140OSM   H11A15267   2.502   0.761   6.132  0.6191  0.3570  1.0728
  140OSM   H11B15268   2.467   0.594   6.187 -0.8917 -0.6066  0.0086
  140OSM      P15269   2.421   0.888   6.367 -0.5130  0.3192  0.3254
  140OSM    O1315270   2.526   0.964   6.286 -0.6000  0.2524 -0.1932
  140OSM    O1415271   2.280   0.922   6.351  0.1964 -0.0127 -0.0344
  140OSM    O1115272   2.454   0.891   6.515 -0.1435  0.2976  0.1695
  140OSM    O1215273   2.430   0.738   6.323 -0.3256 -0.2501  0.1182
  140OSM    C1S15274   2.545   0.805   6.585 -0.5728 -0.0311 -0.5114
  140OSM    H1S15275   2.652   0.834   6.570 -0.2757 -0.9062 -0.1166
  140OSM    H1T15276   2.543   0.703   6.543 -0.5961 -0.5009  0.6300
  140OSM     NF15277   2.618   0.707   6.804  0.6289  0.0469  0.1834
  140OSM    HNF15278   2.592   0.613   6.822 -1.6950  0.5779 -0.2668
  140OSM    C2S15279   2.525   0.803   6.744 -0.3711 -1.2851  0.5274
  140OSM    H2S15280   2.542   0.905   6.784  0.0970 -0.7306 -1.0572
  140OSM    C3S15281   2.371   0.772   6.781  0.1023  0.6657 -0.4574
  140OSM    H3S15282   2.351   0.668   6.746  0.6329 -0.0808  1.3596
  140OSM     O315283   2.271   0.849   6.722 -0.2654 -0.0846  0.4811
  140OSM    HO315284   2.322   0.895   6.655 -1.1722  0.9071  0.4671
  140OSM    C4S15285   2.359   0.775   6.933 -0.5993 -0.1694  0.3256
  140OSM    H4S15286   2.411   0.856   6.986 -1.8046 -1.1854  3.1291
  140OSM    C5S15287   2.294   0.691   7.009  0.1211  0.5530  0.3597
  140OSM    H5S15288   2.236   0.615   6.955  0.4529  0.6295 -0.1162
  140OSM    C6S15289   2.281   0.696   7.161 -0.5205 -0.0762  0.0421
  140OSM    H6S15290   2.280   0.590   7.195  2.1814  0.1292  0.8561
  140OSM    H6T15291   2.188   0.749   7.192  0.1836  1.5126 -0.5276
  140OSM    C7S15292   2.399   0.769   7.221 -0.4996  0.2028  0.0956
  140OSM    H7S15293   2.431   0.868   7.182  0.3772  0.8660  2.3906
  140OSM    H7T15294   2.484   0.701   7.201 -0.2412  0.9696 -1.4883
  140OSM    C8S15295   2.400   0.773   7.376  0.0261  0.1142  0.4440
  140OSM    H8S15296   2.401   0.668   7.413 -0.9681  0.3528  1.1805
  140OSM    H8T15297   2.305   0.827   7.397  0.0305 -0.3342  1.6503
  140OSM    C9S15298   2.517   0.849   7.440  0.7331  0.1853  0.2428
  140OSM    H9S15299   2.497   0.949   7.397 -0.3323  0.4603  1.3512
  140OSM    H9T15300   2.610   0.797   7.406  1.2778  0.2434  1.6026
  140OSM   C10S15301   2.504   0.856   7.588  0.4662 -0.6477 -0.1187
  140OSM   H10S15302   2.525   0.755   7.628  2.0929  0.4246  1.8109
  140OSM   H10T15303   2.397   0.865   7.616  0.2114 -1.5222 -0.7880
  140OSM   C11S15304   2.598   0.954   7.653  0.1165  0.0196  0.7295
  140OSM   H11S15305   2.581   1.057   7.616 -1.4876 -0.8756 -1.0961
  140OSM   H11T15306   2.704   0.929   7.631 -0.0998 -0.1488 -0.1518
  140OSM   C12S15307   2.589   0.959   7.808 -0.0995 -0.1063  0.3886
  140OSM   H12S15308   2.619   0.861   7.851 -0.3353 -0.4445 -0.1968
  140OSM   H12T15309   2.490   0.982   7.854 -0.4078 -2.2472  0.8946
  140OSM   C13S15310   2.700   1.045   7.860  0.5921 -0.3439  0.8429
  140OSM   H13S15311   2.693   1.147   7.817  0.1896 -0.6762  0.1028
  140OSM   H13T15312   2.798   1.004   7.826  0.7542  0.7233  0.0052
  140OSM   C14S15313   2.708   1.041   8.014 -0.4567 -0.1432 -0.1459
  140OSM   H14S15314   2.716   0.935   8.045  0.5623  0.1123  0.4861
  140OSM   H14T15315   2.616   1.088   8.056  0.0425  0.1946  0.5696
  140OSM   C15S15316   2.838   1.099   8.072  0.0252  0.3009  0.0209
  140OSM   H15S15317   2.832   1.210   8.077  0.8773  0.3547  0.0211
  140OSM   H15T15318   2.922   1.090   8.000 -0.1442  1.1994 -0.3013
  140OSM   C16S15319   2.885   1.039   8.205 -0.4286 -0.5762  0.4142
  140OSM   H16S15320   2.898   0.929   8.197  1.0336 -0.5842  2.5384
  140OSM   H16T15321   2.797   1.059   8.270  0.7028 -0.8731  2.0705
  140OSM   C17S15322   3.009   1.110   8.262  0.4521 -0.1139  0.2525
  140OSM   H17S15323   2.970   1.206   8.304  0.2310  1.7069 -3.8342
  140OSM   H17T15324   3.081   1.135   8.181 -0.9868  2.5182 -0.2678
  140OSM   C18S15325   3.082   1.019   8.364  0.0676 -0.0604 -0.2525
  140OSM   H18S15326   3.019   1.006   8.455  0.2840 -1.6907 -0.3311
  140OSM   H18T15327   3.167   1.080   8.402  0.1791 -0.1609 -0.3387
  140OSM   H18U15328   3.123   0.924   8.325 -1.2251 -0.0707 -1.5986
  140OSM    C1F15329   2.745   0.733   6.814  0.1358 -0.7647 -0.7222
  140OSM     OF15330   2.792   0.837   6.774  0.3557  0.4292 -0.0645
  140OSM    C2F15331   2.832   0.631   6.880 -0.3249 -0.1106 -0.0270
  140OSM    H2F15332   2.935   0.669   6.867 -1.3178  2.3375 -1.0880
  140OSM    H2G15333   2.807   0.540   6.821  2.7645 -0.2743 -1.1710
  140OSM    C3F15334   2.798   0.604   7.031 -0.0048 -0.0462  0.5550
  140OSM    H3F15335   2.696   0.560   7.025  0.1754 -0.3429 -0.5354
  140OSM    H3G15336   2.797   0.700   7.087 -0.0809  0.3005 -0.0324
  140OSM    C4F15337   2.882   0.494   7.094 -0.5491  0.0900 -0.2618
  140OSM    H4F15338   2.990   0.519   7.087 -0.1172 -1.6633 -0.0220
  140OSM    H4G15339   2.857   0.403   7.035  0.6987  0.8417 -1.9960
  140OSM    C5F15340   2.846   0.477   7.242  0.0533  0.4359  0.0535
  140OSM    H5F15341   2.869   0.374   7.277  0.4081 -0.2706 -2.1857
  140OSM    H5G15342   2.736   0.486   7.249 -0.0666  1.1341 -2.2305
  140OSM    C6F15343   2.911   0.576   7.334  0.1164 -0.1411 -0.1078
  140OSM    H6F15344   2.914   0.681   7.298  1.4842 -0.4511 -0.9283
  140OSM    H6G15345   3.018   0.547   7.341  0.0080 -0.4037  0.5469
  140OSM    C7F15346   2.834   0.572   7.469  0.2301  0.0593 -0.6003
  140OSM    H7F15347   2.804   0.468   7.493 -1.0604  1.0987  2.4668
  140OSM    H7G15348   2.737   0.626   7.457  0.0874 -0.2438 -0.8038
  140OSM    C8F15349   2.918   0.636   7.586 -0.1624  0.1195  1.5570
  140OSM    H8F15350   2.941   0.737   7.547  0.3112 -0.9759 -1.1118
  140OSM    H8G15351   3.018   0.588   7.590  0.5527  1.5849  1.4368
  140OSM    C9F15352   2.860   0.634   7.721  0.0469 -0.2047  0.3461
  140OSM    H9F15353   2.750   0.630   7.710  0.1584  0.3678 -1.1422
  140OSM   C10F15354   2.920   0.632   7.840 -0.4865  0.1156  0.1216
  140OSM   H10F15355   2.865   0.635   7.936 -0.6955  0.2539 -0.0015
  140OSM   C11F15356   3.071   0.624   7.840  0.5466 -0.1193  0.8992
  140OSM   H11F15357   3.109   0.691   7.760 -1.3164 -2.2927 -1.8964
  140OSM   H11G15358   3.102   0.521   7.814 -0.9377 -0.6183  1.0621
  140OSM   C12F15359   3.122   0.647   7.986  0.3328 -0.0063  0.3764
  140OSM   H12F15360   3.074   0.566   8.045 -0.0725  0.9282  1.3420
  140OSM   H12G15361   3.080   0.742   8.025  1.5798 -0.2369  2.3510
  140OSM   C13F15362   3.273   0.630   7.998  0.1181 -0.1681 -0.2879
  140OSM   H13F15363   3.319   0.713   7.942 -0.2660 -0.0504 -0.4286
  140OSM   H13G15364   3.292   0.533   7.946 -2.2139 -1.1716  0.6353
  140OSM   C14F15365   3.336   0.611   8.134  0.0996  0.2693  0.3156
  140OSM   H14F15366   3.277   0.544   8.200  0.2629  0.7283  0.9231
  140OSM   H14G15367   3.333   0.707   8.188  1.8489 -0.0932  1.0716
  140OSM   C15F15368   3.479   0.554   8.143  0.6135 -0.1609 -0.2939
  140OSM   H15F15369   3.537   0.613   8.069  1.1834  1.2919  1.2880
  140OSM   H15G15370   3.484   0.453   8.097  1.1523 -0.8223  1.1723
  140OSM   C16F15371   3.534   0.559   8.281 -1.0711 -0.9590 -0.0712
  140OSM   H16F15372   3.472   0.622   8.348  0.0209  0.7633 -0.6128
  140OSM   H16G15373   3.633   0.611   8.279 -2.8929  2.6262 -1.5339
  140OSM   C17F15374   3.551   0.423   8.359  0.5734 -0.1960  0.1700
  140OSM   H17F15375   3.605   0.446   8.454  1.3354  3.1741 -0.9948
  140OSM   H17G15376   3.615   0.351   8.305  0.1331  0.0865 -0.7370
  140OSM   C18F15377   3.423   0.354   8.406  0.2160  0.6273 -0.4665
  140OSM   H18F15378   3.349   0.431   8.436 -0.5693  0.0883 -1.0344
  140OSM   H18G15379   3.441   0.275   8.482 -0.6679  0.1271 -0.7764
  140OSM   H18H15380   3.373   0.312   8.317  2.2962 -1.4666 -0.7158
  141OSM      N15381   1.618   2.702   5.991 -0.3545  0.1526  0.0308
  141OSM    C1515382   1.758   2.721   5.941 -0.2424 -0.1930 -0.5871
  141OSM   H15A15383   1.825   2.651   5.987  1.3006  0.4963 -1.7325
  141OSM   H15B15384   1.789   2.823   5.956  0.6210 -0.4332 -0.7232
  141OSM   H15C15385   1.773   2.720   5.834  0.4676 -1.3197 -0.4864
  141OSM    C1415386   1.627   2.685   6.137  0.2453 -0.4263  0.2348
  141OSM   H14A15387   1.531   2.669   6.183  1.7324 -2.0996  2.8982
  141OSM   H14B15388   1.670   2.769   6.189 -0.2575 -1.1943  1.9071
  141OSM   H14C15389   1.687   2.599   6.165 -0.0370 -1.2574 -1.6421
  141OSM    C1315390   1.526   2.818   5.961  0.5766 -0.0144 -0.2811
  141OSM   H13A15391   1.430   2.807   6.008 -0.1657  0.8313 -1.5677
  141OSM   H13B15392   1.511   2.819   5.854 -0.0938 -3.2379 -0.2470
  141OSM   H13C15393   1.567   2.914   5.989 -0.1294 -0.0313  0.8238
  141OSM    C1215394   1.569   2.568   5.937  0.6875  0.4723  0.7333
  141OSM   H12A15395   1.542   2.580   5.833  1.5750 -0.8636  0.3383
  141OSM   H12B15396   1.483   2.543   5.998  0.4598 -2.9381 -0.8426
  141OSM    C1115397   1.666   2.443   5.937  0.1776 -0.7580  0.6434
  141OSM   H11A15398   1.765   2.469   5.895 -1.0261 -1.4518 -2.7394
  141OSM   H11B15399   1.631   2.360   5.872  1.3381  0.6182 -1.8140
  141OSM      P15400   1.582   2.310   6.138  0.2671  0.1881  0.0483
  141OSM    O1315401   1.461   2.293   6.058  0.3422 -0.2822  0.1748
  141OSM    O1415402   1.654   2.190   6.182 -0.1420  0.3517  0.6547
  141OSM    O1115403   1.545   2.383   6.271  0.0717  0.4140  0.0211
  141OSM    O1215404   1.680   2.409   6.073 -0.4152  0.4147  0.1921
  141OSM    C1S15405   1.626   2.366   6.391 -0.0933  0.7884 -0.0421
  141OSM    H1S15406   1.723   2.416   6.374 -0.4775  0.8661 -2.0781
  141OSM    H1T15407   1.655   2.264   6.424  0.7240  1.3727  1.0725
  141OSM     NF15408   1.649   2.420   6.625  0.0256  0.1211  0.0535
  141OSM    HNF15409   1.635   2.341   6.685  0.6643 -0.6107 -0.7366
  141OSM    C2S15410   1.555   2.415   6.515  0.4735 -0.8383  0.4576
  141OSM    H2S15411   1.517   2.519   6.502 -0.8273 -1.5694 -1.8786
  141OSM    C3S15412   1.434   2.315   6.548  0.5774  0.2422 -0.4127
  141OSM    H3S15413   1.477   2.218   6.582  0.5926  1.1292  2.2359
  141OSM     O315414   1.351   2.292   6.435  0.4456  0.0088  0.1127
  141OSM    HO315415   1.413   2.303   6.363  0.7010 -0.1491  0.3088
  141OSM    C4S15416   1.357   2.372   6.666 -0.6379 -0.5051  0.0079
  141OSM    H4S15417   1.395   2.343   6.766  1.7530  0.3529 -0.6173
  141OSM    C5S15418   1.250   2.451   6.676  0.9719 -0.0724 -0.1941
  141OSM    H5S15419   1.207   2.482   6.580  1.7310  0.6447 -0.3096
  141OSM    C6S15420   1.188   2.505   6.806 -0.0281 -0.0832 -0.5046
  141OSM    H6S15421   1.100   2.439   6.819 -0.6092  0.7805 -0.0114
  141OSM    H6T15422   1.155   2.611   6.801  2.0732  0.7262  1.4537
  141OSM    C7S15423   1.269   2.488   6.937 -0.5139 -0.0538  0.0383
  141OSM    H7S15424   1.299   2.382   6.950  0.9612  0.1639 -1.4352
  141OSM    H7T15425   1.192   2.500   7.017 -2.5513 -3.2101 -1.3764
  141OSM    C8S15426   1.383   2.585   6.953 -0.6516  0.6168 -0.3843
  141OSM    H8S15427   1.346   2.689   6.943  2.1231  1.6858 -0.1083
  141OSM    H8T15428   1.454   2.581   6.867  1.2988 -1.2102  1.2505
  141OSM    C9S15429   1.479   2.566   7.069  0.4037  0.0371 -1.1050
  141OSM    H9S15430   1.545   2.655   7.079  0.0134  0.3571 -1.3982
  141OSM    H9T15431   1.536   2.474   7.042 -1.5252 -2.0129  1.4326
  141OSM   C10S15432   1.398   2.536   7.197  0.3652 -0.1353  0.8068
  141OSM   H10S15433   1.378   2.426   7.198 -0.5665  0.0330  2.1472
  141OSM   H10T15434   1.301   2.589   7.202  0.9327  0.8808  1.1959
  141OSM   C11S15435   1.480   2.575   7.319 -0.1060  0.4219 -0.3026
  141OSM   H11S15436   1.488   2.685   7.319  1.7808  0.2986  0.0553
  141OSM   H11T15437   1.580   2.527   7.316  0.4601  1.5044  1.1300
  141OSM   C12S15438   1.423   2.528   7.456  0.4926 -0.1678 -0.4078
  141OSM   H12S15439   1.431   2.417   7.462  3.8262  0.0592 -0.0503
  141OSM   H12T15440   1.316   2.557   7.460  0.9468  1.4030  0.5336
  141OSM   C13S15441   1.501   2.572   7.575 -0.2502  0.1303 -0.1728
  141OSM   H13S15442   1.531   2.678   7.562  2.0462 -0.7451 -2.4786
  141OSM   H13T15443   1.594   2.511   7.575 -1.2718 -1.4792 -0.6559
  141OSM   C14S15444   1.424   2.560   7.701  0.1533  0.3675  1.1508
  141OSM   H14S15445   1.399   2.452   7.714 -0.6958  0.5494  1.0832
  141OSM   H14T15446   1.335   2.626   7.692  1.2296  1.7239  0.3038
  141OSM   C15S15447   1.499   2.604   7.828  0.5924 -0.0299 -0.8951
  141OSM   H15S15448   1.519   2.713   7.820 -0.2629  0.1954 -0.0338
  141OSM   H15T15449   1.591   2.542   7.830  0.2444 -0.4980  0.6042
  141OSM   C16S15450   1.416   2.577   7.964  0.3800 -0.1373 -0.1136
  141OSM   H16S15451   1.355   2.484   7.964  0.7620 -0.3887 -0.2457
  141OSM   H16T15452   1.337   2.654   7.970 -0.8726 -1.3656 -0.6061
  141OSM   C17S15453   1.489   2.592   8.097 -0.1185  0.4344 -0.1450
  141OSM   H17S15454   1.539   2.691   8.102 -0.3192  0.5382 -0.1676
  141OSM   H17T15455   1.559   2.505   8.095  0.5450  0.9003  1.9251
  141OSM   C18S15456   1.415   2.572   8.224  0.3928 -0.5607 -0.4690
  141OSM   H18S15457   1.369   2.471   8.227  0.2181 -0.5561 -2.3090
  141OSM   H18T15458   1.337   2.652   8.231  0.3589 -0.7916  2.1680
  141OSM   H18U15459   1.481   2.591   8.311  0.8054  0.5868 -1.0217
  141OSM    C1F15460   1.740   2.516   6.637  0.4677 -0.3058  0.1735
  141OSM     OF15461   1.750   2.608   6.562  0.1939  0.0914  0.3853
  141OSM    C2F15462   1.833   2.510   6.756  0.6294 -0.2469  0.1575
  141OSM    H2F15463   1.892   2.416   6.753  2.7584  1.0447  0.6626
  141OSM    H2G15464   1.758   2.500   6.837  1.5362  0.7955  1.1426
  141OSM    C3F15465   1.921   2.635   6.771 -0.8184  0.2208 -0.1282
  141OSM    H3F15466   1.853   2.723   6.782  0.3779  0.7484  3.3577
  141OSM    H3G15467   1.993   2.653   6.688 -1.3784 -0.0069 -0.6723
  141OSM    C4F15468   2.013   2.647   6.898 -0.2824 -0.5614 -0.3348
  141OSM    H4F15469   2.052   2.751   6.906  1.3320 -1.2695  1.3805
  141OSM    H4G15470   2.101   2.580   6.905 -0.7758 -1.2422 -0.6579
  141OSM    C5F15471   1.924   2.629   7.024  0.1795 -0.2018  0.1481
  141OSM    H5F15472   1.880   2.527   7.031  1.9183 -1.0003 -0.1555
  141OSM    H5G15473   1.833   2.692   7.014 -1.6841 -2.9859 -0.8925
  141OSM    C6F15474   1.986   2.667   7.164  0.4828 -0.2093  0.2934
  141OSM    H6F15475   2.015   2.774   7.171 -1.8748  0.4847 -0.2029
  141OSM    H6G15476   2.081   2.609   7.173 -0.7912 -2.3202  0.3965
  141OSM    C7F15477   1.885   2.634   7.279  0.2286 -0.2982  0.0281
  141OSM    H7F15478   1.814   2.562   7.234  2.1185 -0.6306 -2.5327
  141OSM    H7G15479   1.828   2.722   7.316 -1.8287 -1.2976 -0.7232
  141OSM    C8F15480   1.951   2.569   7.399 -0.4643 -0.7848 -0.0047
  141OSM    H8F15481   2.007   2.483   7.358  0.8799  0.8816 -1.7425
  141OSM    H8G15482   1.860   2.526   7.446 -1.6091  0.4698 -1.0541
  141OSM    C9F15483   2.039   2.645   7.490  0.4792  0.0670  0.3537
  141OSM    H9F15484   2.129   2.680   7.436 -0.1088  0.2267 -0.5343
  141OSM   C10F15485   2.034   2.669   7.625 -0.2226 -0.2096  0.6927
  141OSM   H10F15486   2.121   2.722   7.666 -0.8609  0.9100  0.5939
  141OSM   C11F15487   1.936   2.635   7.734 -0.4330 -0.8949  0.3914
  141OSM   H11F15488   1.973   2.546   7.789  0.1736 -0.8032  0.1464
  141OSM   H11G15489   1.837   2.607   7.693 -2.1697  1.7886  2.5901
  141OSM   C12F15490   1.908   2.754   7.831  1.1641  0.1203 -0.1488
  141OSM   H12F15491   1.818   2.732   7.891  2.7483  0.6942  2.5276
  141OSM   H12G15492   1.876   2.848   7.780  2.9461  0.7302 -0.1816
  141OSM   C13F15493   2.019   2.779   7.936 -0.0346 -0.1255 -0.1896
  141OSM   H13F15494   2.114   2.756   7.883  0.5641  1.0615  0.3555
  141OSM   H13G15495   1.998   2.705   8.017 -0.2160 -1.4874 -1.4543
  141OSM   C14F15496   2.026   2.926   7.983  0.6635  0.6248 -0.3359
  141OSM   H14F15497   1.922   2.962   7.997  0.5619 -0.0458  0.7268
  141OSM   H14G15498   2.075   2.996   7.912  1.4991  0.1939 -0.1953
  141OSM   C15F15499   2.116   2.933   8.107  0.6576  0.4465 -0.0515
  141OSM   H15F15500   2.218   2.912   8.069  1.0556  1.0777  0.6608
  141OSM   H15G15501   2.089   2.854   8.180  0.4848  2.0966  1.6973
  141OSM   C16F15502   2.101   3.062   8.180 -0.6967  0.5593 -0.6390
  141OSM   H16F15503   2.168   3.053   8.268 -1.1708  1.2655 -0.2017
  141OSM   H16G15504   2.001   3.064   8.229 -0.7462  0.0557 -0.7175
  141OSM   C17F15505   2.143   3.183   8.108  0.2185  0.2294 -0.0362
  141OSM   H17F15506   2.050   3.209   8.053 -0.4198 -3.2651 -0.6839
  141OSM   H17G15507   2.236   3.167   8.050  1.8845 -1.3606  2.9646
  141OSM   C18F15508   2.168   3.302   8.199 -0.1179 -0.3266 -0.4856
  141OSM   H18F15509   2.177   3.397   8.142 -0.7393  0.7554  1.1585
  141OSM   H18G15510   2.261   3.294   8.259  0.7929  2.8595 -1.3853
  141OSM   H18H15511   2.088   3.305   8.277 -0.1884  0.1261 -0.5757
  142OSM      N15512   1.968   3.955   6.070 -0.0715 -0.0415 -0.3803
  142OSM    C1515513   2.014   4.100   6.045 -0.1640  0.2371 -0.2863
  142OSM   H15A15514   2.037   4.137   6.144 -0.3253  0.7956 -0.4597
  142OSM   H15B15515   1.936   4.162   6.005 -0.1009  0.5603  0.0850
  142OSM   H15C15516   2.095   4.108   5.974  0.2159  0.7080  0.1912
  142OSM    C1415517   1.915   3.908   5.938 -0.1959 -0.2958 -0.3555
  142OSM   H14A15518   1.996   3.902   5.867 -1.7044  0.7163 -2.2163
  142OSM   H14B15519   1.839   3.969   5.892  2.7361  1.7644 -2.6603
  142OSM   H14C15520   1.878   3.807   5.948  0.5938 -0.5102  0.4226
  142OSM    C1315521   2.090   3.877   6.101 -0.4194  0.1688  0.1041
  142OSM   H13A15522   2.176   3.897   6.039 -0.4506  0.8452  0.2734
  142OSM   H13B15523   2.079   3.770   6.099 -1.6905  0.3125 -0.8833
  142OSM   H13C15524   2.118   3.902   6.202 -0.7085 -0.3145  0.3073
  142OSM    C1215525   1.865   3.951   6.177  0.6251  0.8627  0.2589
  142OSM   H12A15526   1.839   3.847   6.188 -1.1672  1.2518 -0.1517
  142OSM   H12B15527   1.779   3.995   6.129 -0.7960 -0.8452  1.2333
  142OSM    C1115528   1.889   4.022   6.319 -0.2442 -0.8078  0.0010
  142OSM   H11A15529   1.969   3.964   6.369 -0.2402  0.0732  1.0482
  142OSM   H11B15530   1.800   4.003   6.383 -1.2251  2.3390 -0.3241
  142OSM      P15531   1.787   4.257   6.298  0.1006 -0.3840  0.1133
  142OSM    O1315532   1.814   4.368   6.208  0.0281  0.4391  0.0038
  142OSM    O1415533   1.662   4.181   6.283 -0.6289  0.2669 -0.0561
  142OSM    O1115534   1.773   4.311   6.446 -0.5897  0.0527  0.1032
  142OSM    O1215535   1.916   4.163   6.314  0.3017  0.2641  0.2318
  142OSM    C1S15536   1.898   4.362   6.499 -0.5859  0.2501  0.4342
  142OSM    H1S15537   1.937   4.450   6.443  0.8684  0.1318  1.2458
  142OSM    H1T15538   1.980   4.288   6.489 -1.5022 -1.0437  2.2631
  142OSM     NF15539   1.987   4.445   6.709 -0.0024  0.4492 -0.1541
  142OSM    HNF15540   2.064   4.390   6.741  0.5531  0.6185 -1.1618
  142OSM    C2S15541   1.874   4.375   6.655 -1.4205  0.5463  0.4043
  142OSM    H2S15542   1.779   4.433   6.665 -1.1252  1.0375  0.3685
  142OSM    C3S15543   1.854   4.236   6.723  0.4566 -0.1719 -0.6885
  142OSM    H3S15544   1.948   4.177   6.725  0.9076  0.5174 -1.2972
  142OSM     O315545   1.764   4.149   6.659  0.2271 -0.6800 -0.9541
  142OSM    HO315546   1.770   4.188   6.571  0.0608  1.5991  0.0208
  142OSM    C4S15547   1.809   4.269   6.862  0.2817  0.5567 -0.6821
  142OSM    H4S15548   1.894   4.278   6.931  2.1344 -1.7473 -2.5653
  142OSM    C5S15549   1.689   4.300   6.909  0.4973 -0.3988  0.2335
  142OSM    H5S15550   1.604   4.280   6.842  2.8685 -2.3770 -2.2995
  142OSM    C6S15551   1.669   4.342   7.055  0.8426 -0.3605 -0.4159
  142OSM    H6S15552   1.590   4.275   7.095 -1.2164  1.4103 -1.3925
  142OSM    H6T15553   1.623   4.443   7.050  1.5464  0.0783  1.6152
  142OSM    C7S15554   1.788   4.356   7.161 -0.3206 -0.5615 -0.4196
  142OSM    H7S15555   1.851   4.442   7.129  1.6783 -2.0395 -0.5463
  142OSM    H7T15556   1.851   4.265   7.158 -0.6408 -0.8066  0.4911
  142OSM    C8S15557   1.728   4.384   7.295 -0.1098  0.2946  0.0705
  142OSM    H8S15558   1.640   4.318   7.309  0.4721 -0.1215  1.9471
  142OSM    H8T15559   1.673   4.479   7.285 -0.1614  0.1619 -0.9310
  142OSM    C9S15560   1.834   4.396   7.404 -0.0994  0.1935  0.2026
  142OSM    H9S15561   1.922   4.449   7.362  0.8587 -1.8275 -0.4191
  142OSM    H9T15562   1.868   4.295   7.435 -2.8259 -0.8421 -0.0507
  142OSM   C10S15563   1.778   4.461   7.539 -0.2988  0.3196 -0.8705
  142OSM   H10S15564   1.722   4.384   7.596 -2.2032  1.3032 -1.3601
  142OSM   H10T15565   1.713   4.550   7.522 -1.7081 -0.3196  0.9533
  142OSM   C11S15566   1.904   4.504   7.634  0.6245  0.2887 -0.0700
  142OSM   H11S15567   1.948   4.589   7.578  0.9545 -0.5638 -1.1066
  142OSM   H11T15568   1.974   4.418   7.632 -0.9342 -0.9808 -1.3425
  142OSM   C12S15569   1.852   4.553   7.770  0.1432 -0.3360 -0.0711
  142OSM   H12S15570   1.763   4.618   7.760 -1.4396 -2.0733  2.4500
  142OSM   H12T15571   1.932   4.612   7.820 -0.4661 -0.9339  1.6100
  142OSM   C13S15572   1.811   4.435   7.862 -0.6554 -0.2549 -0.6883
  142OSM   H13S15573   1.878   4.348   7.843  1.3649  1.2782 -0.7545
  142OSM   H13T15574   1.710   4.395   7.836 -1.1637  0.7940 -0.3434
  142OSM   C14S15575   1.829   4.471   8.008  0.0054  0.2485  0.1545
  142OSM   H14S15576   1.781   4.571   8.014  1.0696  0.8039 -0.5078
  142OSM   H14T15577   1.933   4.465   8.047 -0.0285 -1.1972  0.0403
  142OSM   C15S15578   1.744   4.376   8.092 -0.0733  0.7029  0.3554
  142OSM   H15S15579   1.780   4.272   8.075  1.6220  1.2432  0.5866
  142OSM   H15T15580   1.636   4.380   8.067 -0.0499  0.3204  0.1781
  142OSM   C16S15581   1.749   4.402   8.237 -0.1852 -0.1154 -0.0031
  142OSM   H16S15582   1.707   4.502   8.263 -0.2305 -0.7940  2.7839
  142OSM   H16T15583   1.853   4.394   8.275 -0.0606 -2.6619 -0.7838
  142OSM   C17S15584   1.674   4.303   8.319  0.0735  0.1682  0.0359
  142OSM   H17S15585   1.574   4.290   8.272  1.9063 -1.8853 -3.5491
  142OSM   H17T15586   1.669   4.354   8.417 -1.4592 -0.2449  0.2001
  142OSM   C18S15587   1.729   4.161   8.328  0.4438 -0.2811  0.3064
  142OSM   H18S15588   1.669   4.102   8.401  0.1159 -0.6738 -0.2756
  142OSM   H18T15589   1.828   4.154   8.378  2.1017 -2.1530 -3.0580
  142OSM   H18U15590   1.717   4.115   8.227 -0.0732  2.2897 -0.8363
  142OSM    C1F15591   2.011   4.577   6.689  0.0363  0.4549 -0.8664
  142OSM     OF15592   1.929   4.646   6.633  0.3756  0.6775 -0.0570
  142OSM    C2F15593   2.145   4.627   6.737 -0.0253 -1.0680 -0.1440
  142OSM    H2F15594   2.218   4.603   6.657 -0.0210 -1.0757 -0.1385
  142OSM    H2G15595   2.185   4.553   6.810 -0.6533 -2.1072 -0.8459
  142OSM    C3F15596   2.139   4.773   6.782  0.2870  0.1830  0.1097
  142OSM    H3F15597   2.106   4.834   6.695  3.0108 -2.8868 -3.2592
  142OSM    H3G15598   2.242   4.799   6.814  1.1435 -2.5356 -0.3374
  142OSM    C4F15599   2.045   4.818   6.888 -0.1777 -0.0377  0.6633
  142OSM    H4F15600   1.947   4.772   6.862  1.8024 -4.2102  0.2178
  142OSM    H4G15601   2.049   4.927   6.865 -2.1940  0.2725  1.5890
  142OSM    C5F15602   2.093   4.783   7.027  0.1236  0.3109 -0.5486
  142OSM    H5F15603   2.204   4.781   7.039  0.1024 -0.5385 -0.4903
  142OSM    H5G15604   2.064   4.677   7.039 -0.3467  0.5446  0.4238
  142OSM    C6F15605   2.059   4.888   7.125  0.1278  0.2648 -0.0465
  142OSM    H6F15606   1.953   4.864   7.147  0.0328  0.3794 -0.3699
  142OSM    H6G15607   2.080   4.990   7.084 -1.7204  0.5829 -0.2497
  142OSM    C7F15608   2.147   4.866   7.253  0.3506  0.3121  0.7903
  142OSM    H7F15609   2.252   4.854   7.218  0.2638  2.0276 -0.1224
  142OSM    H7G15610   2.119   4.773   7.306  2.0772 -0.8583 -0.2960
  142OSM    C8F15611   2.150   4.979   7.349 -0.4492 -0.1889  0.1283
  142OSM    H8F15612   2.050   5.001   7.391  1.0642  0.7251  3.4861
  142OSM    H8G15613   2.178   5.070   7.292  1.1446 -1.4890 -1.2225
  142OSM    C9F15614   2.244   4.962   7.464 -0.5227 -0.4235 -0.0020
  142OSM    H9F15615   2.347   5.000   7.465 -1.0805  1.1642 -1.0001
  142OSM   C10F15616   2.219   4.903   7.574 -0.0926  0.8386 -0.9389
  142OSM   H10F15617   2.295   4.898   7.653 -0.7925 -0.4208 -0.3245
  142OSM   C11F15618   2.084   4.840   7.613  0.6771  0.6225 -0.4831
  142OSM   H11F15619   2.098   4.731   7.601  2.5949  0.6574  1.1701
  142OSM   H11G15620   1.999   4.875   7.550 -2.5411 -2.3958  2.0255
  142OSM   C12F15621   2.049   4.865   7.758  0.0718  0.2050 -0.5475
  142OSM   H12F15622   1.942   4.834   7.760 -0.1333  0.7817 -1.9768
  142OSM   H12G15623   2.049   4.975   7.773 -0.2129  0.4183 -2.0141
  142OSM   C13F15624   2.136   4.819   7.878 -0.0718  0.4734 -0.2886
  142OSM   H13F15625   2.240   4.855   7.864  0.1220  0.3323  0.7583
  142OSM   H13G15626   2.135   4.709   7.867  3.5596  0.1011  2.0899
  142OSM   C14F15627   2.094   4.845   8.026 -0.5888  0.1724 -0.5782
  142OSM   H14F15628   1.987   4.818   8.039  0.1481 -1.0350  3.5529
  142OSM   H14G15629   2.105   4.954   8.049 -1.2598 -0.1767  1.5464
  142OSM   C15F15630   2.184   4.789   8.132  0.5795  0.0540 -0.7256
  142OSM   H15F15631   2.280   4.845   8.138 -0.6203  2.6782 -4.3701
  142OSM   H15G15632   2.217   4.686   8.107 -0.8213 -0.5869  0.0055
  142OSM   C16F15633   2.108   4.785   8.266 -0.2032 -0.3935 -0.2953
  142OSM   H16F15634   2.179   4.755   8.346  0.1454 -1.7677 -1.1076
  142OSM   H16G15635   2.047   4.692   8.267 -0.9092  0.0551 -1.5113
  142OSM   C17F15636   2.023   4.907   8.306  0.1110 -0.0627  0.8402
  142OSM   H17F15637   1.955   4.937   8.223 -1.2769 -1.2067  1.5529
  142OSM   H17G15638   2.080   5.001   8.322 -0.4578  0.3402  0.5230
  142OSM   C18F15639   1.945   4.880   8.438 -0.1794 -0.2649 -0.6385
  142OSM   H18F15640   1.857   4.814   8.421 -0.0162 -0.9877  1.2408
  142OSM   H18G15641   1.910   4.979   8.474  0.1395 -0.7588  1.0318
  142OSM   H18H15642   2.010   4.838   8.517 -0.9385 -0.7250 -0.2606
  143OSM      N15643   4.104   0.098   6.312  0.4770  0.1178  0.7259
  143OSM    C1515644   4.226   0.177   6.281  0.1941 -0.6450 -0.8405
  143OSM   H15A15645   4.201   0.280   6.259  1.8138 -0.4761 -1.9806
  143OSM   H15B15646   4.261   0.131   6.191 -0.2506 -0.3423 -1.1728
  143OSM   H15C15647   4.301   0.171   6.359  1.6628 -0.3186 -2.2154
  143OSM    C1415648   4.148  -0.040   6.340 -0.4977 -0.2245  1.1821
  143OSM   H14A15649   4.063  -0.104   6.360 -0.1824 -0.5500  1.4739
  143OSM   H14B15650   4.228  -0.039   6.412  0.2463  5.0136  0.4943
  143OSM   H14C15651   4.200  -0.090   6.259 -0.2532  0.8937  0.6447
  143OSM    C1315652   4.042   0.152   6.435  0.2946 -0.5260  0.2982
  143OSM   H13A15653   3.995   0.246   6.412 -1.4346 -1.2949  0.6821
  143OSM   H13B15654   4.115   0.163   6.514 -1.7980  1.2368  2.0274
  143OSM   H13C15655   3.962   0.089   6.470  0.4946 -1.3534 -0.7138
  143OSM    C1215656   4.004   0.091   6.195 -0.3640  0.2848  0.0309
  143OSM   H12A15657   4.047   0.047   6.106 -2.7679 -0.9799 -0.5580
  143OSM   H12B15658   3.989   0.192   6.160 -0.2855 -0.5770 -2.6236
  143OSM    C1115659   3.871   0.025   6.216 -0.1997 -0.0567  0.3336
  143OSM   H11A15660   3.813   0.043   6.123  0.7237  0.6335 -0.1150
  143OSM   H11B15661   3.818   0.078   6.298 -0.9237 -1.7419  0.9939
  143OSM      P15662   3.779  -0.217   6.259  0.0849 -0.0524 -0.2138
  143OSM    O1315663   3.661  -0.189   6.171 -0.4490 -0.1958 -0.4035
  143OSM    O1415664   3.842  -0.355   6.258 -0.1394  0.0764  0.4655
  143OSM    O1115665   3.732  -0.176   6.406  0.0126 -0.4250  0.7676
  143OSM    O1215666   3.897  -0.111   6.237  0.2982  0.9178  0.4214
  143OSM    C1S15667   3.819  -0.160   6.520  0.6631  0.1481 -0.4843
  143OSM    H1S15668   3.886  -0.072   6.513  0.2890  0.6359  1.5309
  143OSM    H1T15669   3.893  -0.243   6.522  0.6724  0.1521 -0.7498
  143OSM     NF15670   3.832  -0.149   6.757  0.2201  0.7400  0.7304
  143OSM    HNF15671   3.828  -0.231   6.813  1.7288 -0.1025 -0.3652
  143OSM    C2S15672   3.736  -0.151   6.650  0.6440  0.7582 -0.2855
  143OSM    H2S15673   3.692  -0.049   6.643 -0.5895  0.3555  1.3519
  143OSM    C3S15674   3.622  -0.259   6.653 -0.0757 -0.2881 -0.5002
  143OSM    H3S15675   3.675  -0.357   6.652  1.5210  0.4939  1.5793
  143OSM     O315676   3.536  -0.257   6.541 -0.2615 -0.4396 -0.7473
  143OSM    HO315677   3.587  -0.204   6.479 -0.0940 -1.5510 -1.5787
  143OSM    C4S15678   3.548  -0.254   6.784 -0.2998 -0.4612  0.0985
  143OSM    H4S15679   3.609  -0.302   6.862  2.2511  1.0435 -0.9423
  143OSM    C5S15680   3.431  -0.190   6.815  0.1503 -0.1515  0.4940
  143OSM    H5S15681   3.369  -0.149   6.734  1.0124  2.6169  1.1779
  143OSM    C6S15682   3.357  -0.202   6.949  0.0895 -0.8589  0.0475
  143OSM    H6S15683   3.248  -0.211   6.926  0.2946  0.5808 -1.5295
  143OSM    H6T15684   3.369  -0.105   7.002  1.2492 -1.5360  1.0564
  143OSM    C7S15685   3.416  -0.310   7.045  0.4256  0.5363 -0.3158
  143OSM    H7S15686   3.505  -0.260   7.090  1.8973 -1.8529 -0.4441
  143OSM    H7T15687   3.442  -0.405   6.993 -0.3804  0.9344 -1.4603
  143OSM    C8S15688   3.315  -0.350   7.153 -0.3087 -0.5142 -0.8896
  143OSM    H8S15689   3.349  -0.434   7.216  0.1396  0.3520  0.0355
  143OSM    H8T15690   3.227  -0.380   7.092 -2.8368  1.5228  1.6133
  143OSM    C9S15691   3.275  -0.235   7.249 -0.0694  0.0446 -0.0826
  143OSM    H9S15692   3.173  -0.255   7.287  0.2497 -0.4121  0.5524
  143OSM    H9T15693   3.281  -0.140   7.193  1.1199  0.2172  0.3324
  143OSM   C10S15694   3.378  -0.230   7.372  0.1888  0.6635 -0.5369
  143OSM   H10S15695   3.351  -0.135   7.423  0.1174  0.7994 -0.8293
  143OSM   H10T15696   3.481  -0.231   7.331  0.7646 -1.6101  0.8439
  143OSM   C11S15697   3.370  -0.341   7.477  0.4799  0.2180  0.0224
  143OSM   H11S15698   3.422  -0.427   7.430 -1.1134 -0.7666  0.0311
  143OSM   H11T15699   3.265  -0.364   7.503 -0.0690  1.0890 -1.3487
  143OSM   C12S15700   3.442  -0.292   7.607  0.2141 -0.3987  0.2921
  143OSM   H12S15701   3.410  -0.188   7.626 -1.9286 -0.7220 -1.3362
  143OSM   H12T15702   3.551  -0.287   7.591  0.5736 -3.2282  1.4430
  143OSM   C13S15703   3.404  -0.383   7.730 -0.0616  0.4753  0.5038
  143OSM   H13S15704   3.457  -0.480   7.717 -0.4536  0.5357 -1.6318
  143OSM   H13T15705   3.295  -0.399   7.723  0.2255 -1.3187 -0.0362
  143OSM   C14S15706   3.426  -0.309   7.861 -0.2221  0.0907 -1.0156
  143OSM   H14S15707   3.388  -0.370   7.946  1.2573  0.5417 -0.0093
  143OSM   H14T15708   3.355  -0.224   7.865  0.0565  0.3974 -2.4334
  143OSM   C15S15709   3.561  -0.242   7.883 -0.3947  0.1381 -0.0888
  143OSM   H15S15710   3.574  -0.160   7.809  0.7550 -0.1867 -0.2681
  143OSM   H15T15711   3.640  -0.320   7.872  1.6746  2.1527  0.1149
  143OSM   C16S15712   3.566  -0.174   8.026 -0.2342 -0.8009  0.4279
  143OSM   H16S15713   3.472  -0.120   8.047 -0.9667 -1.8178 -0.2020
  143OSM   H16T15714   3.638  -0.091   8.010 -1.4537  0.0327 -0.7527
  143OSM   C17S15715   3.612  -0.276   8.138 -0.3188 -0.0658  0.5274
  143OSM   H17S15716   3.684  -0.341   8.085  1.2951 -0.0322  2.6453
  143OSM   H17T15717   3.530  -0.351   8.146 -0.2517 -0.2624 -0.5513
  143OSM   C18S15718   3.665  -0.225   8.268 -0.0640  0.2653 -0.0655
  143OSM   H18S15719   3.721  -0.311   8.309 -2.9238 -2.1146 -0.9698
  143OSM   H18T15720   3.587  -0.202   8.343  0.3317 -1.3338  0.8594
  143OSM   H18U15721   3.729  -0.136   8.248 -0.1564  0.9425  2.4858
  143OSM    C1F15722   3.936  -0.061   6.774 -0.2405  0.1447  0.1039
  143OSM     OF15723   3.918   0.050   6.726  0.2747 -0.1071  0.1909
  143OSM    C2F15724   4.053  -0.097   6.844 -0.2212 -0.0149  0.8671
  143OSM    H2F15725   4.134  -0.060   6.776  0.5974  0.1916  1.9345
  143OSM    H2G15726   4.072  -0.206   6.853  2.4233  0.4838  1.9782
  143OSM    C3F15727   4.087  -0.034   6.980  0.0516 -0.1928  0.2608
  143OSM    H3F15728   4.044  -0.089   7.066  1.8314 -1.3634  0.4383
  143OSM    H3G15729   4.044   0.068   6.978  0.2413 -0.1224 -0.2575
  143OSM    C4F15730   4.240  -0.015   7.010 -0.0226  0.4846 -0.0554
  143OSM    H4F15731   4.277   0.077   6.959 -0.0988  0.2402 -0.5528
  143OSM    H4G15732   4.288  -0.101   6.959 -2.2431  0.1449 -1.6867
  143OSM    C5F15733   4.264   0.003   7.157 -0.1344 -0.2839  0.0270
  143OSM    H5F15734   4.365   0.048   7.171 -0.4275  0.8045 -1.2548
  143OSM    H5G15735   4.273  -0.094   7.210  1.6914 -0.7531 -1.1076
  143OSM    C6F15736   4.160   0.090   7.227 -0.4747 -0.0143 -0.1878
  143OSM    H6F15737   4.062   0.043   7.249 -1.1614  0.8382 -1.3840
  143OSM    H6G15738   4.139   0.168   7.151 -0.4710  1.7677  1.6234
  143OSM    C7F15739   4.214   0.160   7.353  0.5213 -0.2053 -1.2803
  143OSM    H7F15740   4.122   0.209   7.390  0.1670  0.0046 -2.4062
  143OSM    H7G15741   4.290   0.238   7.330  0.5429  0.1596  0.0328
  143OSM    C8F15742   4.269   0.076   7.466 -0.4256  0.6939  0.1872
  143OSM    H8F15743   4.295   0.149   7.546  3.0951 -0.1720 -0.0900
  143OSM    H8G15744   4.369   0.034   7.443 -0.0250  1.4472  0.5495
  143OSM    C9F15745   4.169  -0.025   7.509 -0.4447 -0.5005  0.6856
  143OSM    H9F15746   4.097  -0.043   7.428 -1.3147  2.0175  0.8849
  143OSM   C10F15747   4.160  -0.074   7.638 -0.4028  0.4342  0.3327
  143OSM   H10F15748   4.075  -0.142   7.654 -0.8232  0.1811 -2.6645
  143OSM   C11F15749   4.251  -0.044   7.750 -0.5915 -0.5056 -0.7780
  143OSM   H11F15750   4.351  -0.018   7.710 -0.8559 -0.5833 -1.4891
  143OSM   H11G15751   4.248  -0.130   7.820 -0.0758  0.6391  0.6656
  143OSM   C12F15752   4.203   0.073   7.846  0.3054 -0.0653 -0.4042
  143OSM   H12F15753   4.191   0.166   7.787 -0.3462  0.6065  0.7757
  143OSM   H12G15754   4.279   0.100   7.922 -0.3242 -1.0751  0.6029
  143OSM   C13F15755   4.066   0.027   7.916 -0.3193 -0.5097  0.0463
  143OSM   H13F15756   4.097  -0.064   7.972  0.5186 -0.9566 -1.1298
  143OSM   H13G15757   3.992  -0.007   7.841 -0.1786  0.9698 -0.7764
  143OSM   C14F15758   4.008   0.137   8.008 -0.4702  0.1031  0.0147
  143OSM   H14F15759   3.963   0.220   7.950 -1.1768 -0.3329 -0.0677
  143OSM   H14G15760   4.085   0.186   8.070 -2.0237  2.6050  0.0414
  143OSM   C15F15761   3.893   0.081   8.090 -0.4952 -0.7959  0.2655
  143OSM   H15F15762   3.929  -0.002   8.154  2.9323  0.4728  0.0909
  143OSM   H15G15763   3.811   0.034   8.033 -0.9764  2.5755 -2.0047
  143OSM   C16F15764   3.821   0.198   8.168 -0.0056  0.3848  0.3233
  143OSM   H16F15765   3.732   0.168   8.227  1.5036 -1.1102  1.8970
  143OSM   H16G15766   3.782   0.267   8.090 -2.7230 -2.1902 -0.6844
  143OSM   C17F15767   3.906   0.276   8.263 -0.3759  0.2350  0.2263
  143OSM   H17F15768   3.848   0.360   8.307  1.4956  0.7965  1.6877
  143OSM   H17G15769   3.988   0.324   8.205 -0.2847  0.5217  0.5902
  143OSM   C18F15770   3.945   0.204   8.386 -0.3963  0.4922 -0.0507
  143OSM   H18F15771   3.998   0.109   8.365 -2.1188 -0.5649  0.2548
  143OSM   H18G15772   3.862   0.172   8.452  0.1289  1.2283  0.9817
  143OSM   H18H15773   4.014   0.273   8.438  1.3037 -1.5889  0.4953
  144OSM      N15774   3.381   6.302   6.185  0.4819  0.1568  0.2518
  144OSM    C1515775   3.377   6.357   6.325 -0.5531 -0.3679  0.4271
  144OSM   H15A15776   3.331   6.453   6.340 -0.9993 -1.0061  3.4471
  144OSM   H15B15777   3.482   6.367   6.349 -0.9916  0.4967  2.0244
  144OSM   H15C15778   3.330   6.288   6.393 -1.7281 -0.6905 -0.6883
  144OSM    C1415779   3.454   6.401   6.096  0.0562 -0.2211 -0.0698
  144OSM   H14A15780   3.549   6.442   6.127  0.1165 -1.9316  2.0430
  144OSM   H14B15781   3.399   6.493   6.083 -0.5846 -0.4775  0.8168
  144OSM   H14C15782   3.460   6.359   5.997 -1.9944 -1.0791  0.1467
  144OSM    C1315783   3.459   6.176   6.178  0.2271 -0.0154 -0.6092
  144OSM   H13A15784   3.469   6.139   6.077  1.3998  1.5853 -1.0981
  144OSM   H13B15785   3.420   6.111   6.255  1.3435 -0.4677 -0.4208
  144OSM   H13C15786   3.558   6.196   6.214  0.3743  0.1931 -1.1256
  144OSM    C1215787   3.238   6.273   6.139 -0.6832  0.2519  0.5002
  144OSM   H12A15788   3.246   6.227   6.041  2.9923 -1.7922  1.6401
  144OSM   H12B15789   3.177   6.360   6.125 -1.3826 -0.1622  0.9605
  144OSM    C1115790   3.152   6.173   6.217  1.0972  0.0372  0.1842
  144OSM   H11A15791   3.167   6.174   6.327 -1.0575  1.2368  0.4897
  144OSM   H11B15792   3.187   6.068   6.209 -0.0468 -0.2360 -1.4023
  144OSM      P15793   2.911   6.099   6.121 -0.1614 -0.2830 -0.2471
  144OSM    O1315794   2.809   6.171   6.039 -0.2204 -0.0635 -0.2107
  144OSM    O1415795   2.996   6.002   6.050  0.5347 -0.0451 -0.1362
  144OSM    O1115796   2.847   6.027   6.246  0.4679 -0.6430 -0.6034
  144OSM    O1215797   3.015   6.203   6.184  0.5285  0.1599  0.4307
  144OSM    C1S15798   2.828   6.104   6.366 -0.2767 -0.5160  0.0041
  144OSM    H1S15799   2.732   6.159   6.354 -0.4497 -0.6400  0.7672
  144OSM    H1T15800   2.906   6.183   6.379  0.2023 -0.8942 -0.5574
  144OSM     NF15801   2.783   6.087   6.614  0.6132  0.2210 -0.7436
  144OSM    HNF15802   2.856   6.103   6.681 -0.5988  0.2250  0.6046
  144OSM    C2S15803   2.826   6.019   6.497 -0.2402  0.7732 -0.2692
  144OSM    H2S15804   2.750   5.941   6.473 -1.1136  0.1141  4.1958
  144OSM    C3S15805   2.967   5.956   6.513 -0.3777 -0.5278 -1.2946
  144OSM    H3S15806   3.033   6.038   6.548 -2.7590 -0.5291  3.5763
  144OSM     O315807   3.022   5.902   6.397 -0.1347  0.4103 -0.1924
  144OSM    HO315808   2.961   5.933   6.329  0.5130  1.9943 -0.0681
  144OSM    C4S15809   2.964   5.860   6.622 -0.0745 -0.4322  0.2032
  144OSM    H4S15810   2.993   5.910   6.716  1.4444 -1.9320  0.5605
  144OSM    C5S15811   2.948   5.726   6.628  0.2092  0.6789 -0.3759
  144OSM    H5S15812   2.931   5.673   6.533  3.4292  1.4561 -1.4734
  144OSM    C6S15813   2.953   5.626   6.742 -0.2546 -0.1252 -0.3803
  144OSM    H6S15814   3.042   5.561   6.730  0.0678  0.5570 -1.7539
  144OSM    H6T15815   2.864   5.560   6.733 -2.0565  2.1797  0.1074
  144OSM    C7S15816   2.952   5.707   6.869 -0.7927  0.0439  0.3426
  144OSM    H7S15817   2.892   5.800   6.863  0.9375  1.1344 -0.3985
  144OSM    H7T15818   3.047   5.761   6.889 -1.1166  0.9109 -0.4072
  144OSM    C8S15819   2.922   5.635   7.001  0.4441  0.4967  0.1493
  144OSM    H8S15820   3.009   5.581   7.045  0.2056  1.2300  1.5459
  144OSM    H8T15821   2.838   5.564   6.991  0.0988  0.7313  1.2316
  144OSM    C9S15822   2.884   5.736   7.109 -0.8565  0.2407  1.2575
  144OSM    H9S15823   2.820   5.822   7.080 -0.0554 -0.3070 -2.4095
  144OSM    H9T15824   2.978   5.776   7.154 -0.8040  1.4807  0.0510
  144OSM   C10S15825   2.812   5.660   7.219 -0.7584  0.6626 -0.4275
  144OSM   H10S15826   2.872   5.576   7.261  0.4697  0.6784 -2.0893
  144OSM   H10T15827   2.718   5.625   7.173 -0.9467 -0.5063  0.8318
  144OSM   C11S15828   2.768   5.740   7.337 -0.4446 -0.3659 -0.0844
  144OSM   H11S15829   2.717   5.668   7.404  0.8055 -0.6241  0.5968
  144OSM   H11T15830   2.689   5.817   7.319 -0.6129  0.4566  3.6956
  144OSM   C12S15831   2.876   5.811   7.413 -1.0651 -0.7321 -0.8389
  144OSM   H12S15832   2.896   5.900   7.350  0.6719  0.9041  1.8933
  144OSM   H12T15833   2.964   5.743   7.419 -0.3496  0.3437  1.8339
  144OSM   C13S15834   2.856   5.857   7.559  0.2438  0.4666  0.5275
  144OSM   H13S15835   2.748   5.880   7.573  0.3252  1.0677  0.1977
  144OSM   H13T15836   2.904   5.956   7.573  2.0263 -0.0185 -1.9014
  144OSM   C14S15837   2.906   5.764   7.669  0.2930  0.2543 -0.6099
  144OSM   H14S15838   3.015   5.752   7.656 -0.0320 -2.8751 -0.6859
  144OSM   H14T15839   2.860   5.664   7.653  1.3369 -0.2526 -0.4531
  144OSM   C15S15840   2.881   5.831   7.808 -0.1078  0.0300 -0.2692
  144OSM   H15S15841   2.773   5.817   7.835 -0.1182  0.9838  0.2014
  144OSM   H15T15842   2.893   5.941   7.799  0.5309  0.1877  2.0503
  144OSM   C16S15843   2.967   5.769   7.926  0.3581 -0.0131  0.3042
  144OSM   H16S15844   2.991   5.846   8.002 -3.1121 -0.2628  1.7325
  144OSM   H16T15845   3.069   5.746   7.886  1.5366  3.6539  0.9662
  144OSM   C17S15846   2.897   5.648   7.989  0.1494  0.1374 -0.3418
  144OSM   H17S15847   2.885   5.572   7.909  2.2075 -2.7941  2.0012
  144OSM   H17T15848   2.794   5.671   8.025  0.5352  0.7781  0.3673
  144OSM   C18S15849   2.982   5.584   8.098 -0.0452 -0.2724  0.2407
  144OSM   H18S15850   3.007   5.658   8.176  0.3212 -1.3025  1.1197
  144OSM   H18T15851   3.075   5.552   8.045 -0.1111 -3.0450  1.6912
  144OSM   H18U15852   2.948   5.494   8.153 -2.3584  0.4502  0.0367
  144OSM    C1F15853   2.657   6.130   6.618 -0.0041  0.3822  0.5485
  144OSM     OF15854   2.562   6.085   6.560 -0.2603  0.5828 -0.1720
  144OSM    C2F15855   2.638   6.240   6.720  0.6279  0.5218  0.0862
  144OSM    H2F15856   2.733   6.297   6.723 -0.2518  2.0401 -0.2310
  144OSM    H2G15857   2.611   6.198   6.819 -0.4263 -0.6086 -0.6769
  144OSM    C3F15858   2.548   6.358   6.676  0.0773 -0.0683 -0.2079
  144OSM    H3F15859   2.442   6.327   6.667 -0.4751  2.1702 -1.7159
  144OSM    H3G15860   2.575   6.387   6.572 -2.8193  1.2621 -0.6406
  144OSM    C4F15861   2.559   6.486   6.769  0.3797  0.8496 -0.2828
  144OSM    H4F15862   2.459   6.533   6.766  0.1565  0.2997 -3.3320
  144OSM    H4G15863   2.636   6.554   6.726 -0.1658  0.6389 -1.6313
  144OSM    C5F15864   2.608   6.461   6.915 -0.2171 -0.5272 -0.5124
  144OSM    H5F15865   2.719   6.461   6.907 -0.1125 -0.7146  0.7612
  144OSM    H5G15866   2.570   6.367   6.961 -1.2589 -0.5107 -1.3434
  144OSM    C6F15867   2.587   6.580   7.013 -0.0836 -0.2489  0.0516
  144OSM    H6F15868   2.478   6.585   7.033  0.3271  0.5089  2.2189
  144OSM    H6G15869   2.624   6.675   6.968  0.9948 -0.2691  0.8744
  144OSM    C7F15870   2.663   6.563   7.134 -0.1375 -0.2525 -0.6660
  144OSM    H7F15871   2.764   6.521   7.113 -0.3169 -0.9654 -0.1484
  144OSM    H7G15872   2.624   6.479   7.196  2.3170 -0.7608  0.2609
  144OSM    C8F15873   2.667   6.679   7.241 -0.5490  0.5740  0.2774
  144OSM    H8F15874   2.563   6.706   7.271 -0.9213 -1.1203  0.5737
  144OSM    H8G15875   2.708   6.773   7.199  3.2383 -0.2998  1.8812
  144OSM    C9F15876   2.753   6.651   7.365 -0.6235  0.6428 -0.0837
  144OSM    H9F15877   2.851   6.607   7.345 -0.0304  0.8605  2.1786
  144OSM   C10F15878   2.735   6.695   7.493  0.9119 -0.7232 -0.0018
  144OSM   H10F15879   2.807   6.672   7.574  0.4430  1.2495  1.0192
  144OSM   C11F15880   2.621   6.778   7.545  0.0941 -0.4218  0.3026
  144OSM   H11F15881   2.530   6.789   7.483  0.4336  0.0995 -0.1046
  144OSM   H11G15882   2.661   6.881   7.560  1.3013 -0.3678 -2.9068
  144OSM   C12F15883   2.571   6.720   7.691  0.2465  0.7003  0.1169
  144OSM   H12F15884   2.523   6.812   7.730  0.2279  0.7264  0.0312
  144OSM   H12G15885   2.653   6.700   7.763  0.2635  1.0436  0.1929
  144OSM   C13F15886   2.483   6.600   7.682 -0.6362 -0.3466  0.5773
  144OSM   H13F15887   2.544   6.519   7.637  0.8944  0.8946  0.3792
  144OSM   H13G15888   2.397   6.621   7.614 -0.8715 -2.7053  0.1055
  144OSM   C14F15889   2.455   6.556   7.821 -0.4969  0.0013  0.5824
  144OSM   H14F15890   2.546   6.576   7.881 -0.4531 -2.1198  1.2712
  144OSM   H14G15891   2.440   6.447   7.836  1.0695  0.0714  2.9402
  144OSM   C15F15892   2.339   6.620   7.896  0.2609  0.3967 -0.4333
  144OSM   H15F15893   2.249   6.587   7.839  0.1472  1.3570 -0.8246
  144OSM   H15G15894   2.343   6.731   7.884  0.2152  0.5080  0.5190
  144OSM   C16F15895   2.330   6.577   8.040  0.7547  0.0162  0.8443
  144OSM   H16F15896   2.433   6.574   8.083  1.5430 -2.1643 -1.0629
  144OSM   H16G15897   2.292   6.473   8.041 -2.2543  1.0870  0.7041
  144OSM   C17F15898   2.236   6.664   8.123 -0.6061 -0.2671  0.9654
  144OSM   H17F15899   2.138   6.648   8.072 -0.3883 -0.1612  0.5207
  144OSM   H17G15900   2.261   6.772   8.121  0.1781 -0.4662 -1.7729
  144OSM   C18F15901   2.221   6.622   8.269  0.6720 -0.7916  0.4754
  144OSM   H18F15902   2.190   6.516   8.283 -0.6621 -0.5989 -0.9675
  144OSM   H18G15903   2.137   6.675   8.319  1.9687  1.0727  0.7436
  144OSM   H18H15904   2.321   6.641   8.316  0.1871 -0.6344  1.4606
  145SAPE     N15905   0.095   0.528  10.888  0.3992  0.1839  0.0105
  145SAPE   HN115906   0.096   0.625  10.925 -1.8729  1.8346 -4.0565
  145SAPE   HN215907   0.003   0.485  10.907  1.1605 -2.2551 -1.5639
  145SAPE   HN315908   0.165   0.465  10.933 -0.5095 -2.1386 -1.6984
  145SAPE   C1215909   0.121   0.532  10.734 -0.0135  0.5916 -0.8024
  145SAPE  H12A15910   0.134   0.640  10.712 -0.9237  0.5835 -1.3833
  145SAPE  H12B15911   0.025   0.489  10.697  0.4907 -1.1492 -0.1584
  145SAPE   C1115912   0.241   0.451  10.688 -0.1387  0.2126 -0.7439
  145SAPE  H11A15913   0.221   0.429  10.581  0.0117 -2.9253 -0.1746
  145SAPE  H11B15914   0.240   0.353  10.739 -1.7416  1.5907  1.9607
  145SAPE     P15915   0.499   0.426  10.667  0.4259 -0.3164 -0.3019
  145SAPE   O1315916   0.616   0.469  10.747  0.8968 -0.4495  0.2314
  145SAPE   O1415917   0.462   0.285  10.683 -0.0046 -0.3135 -0.3757
  145SAPE   O1215918   0.373   0.519  10.698 -0.0126  0.1046  0.5926
  145SAPE   O1115919   0.546   0.447  10.520 -0.6873 -0.4622  0.2511
  145SAPE    C115920   0.523   0.562  10.435  0.0648  0.5653  0.1556
  145SAPE    HA15921   0.517   0.527  10.330 -0.8883  1.7215 -0.1963
  145SAPE    HB15922   0.423   0.609  10.449 -0.4625 -0.5892  0.3291
  145SAPE    C215923   0.633   0.670  10.450  0.1345 -0.5714  0.3381
  145SAPE    HS15924   0.622   0.727  10.544  3.3523 -0.6260  0.8215
  145SAPE   O2115925   0.609   0.746  10.333 -0.0160 -0.5705 -0.0153
  145SAPE   C2115926   0.636   0.879  10.343 -0.3929  0.0200  0.1550
  145SAPE   O2215927   0.648   0.942  10.445  0.3161  0.4526 -0.0810
  145SAPE   C2215928   0.657   0.942  10.207 -0.1708 -0.5148 -0.4739
  145SAPE   H2R15929   0.602   0.889  10.126  0.1805 -2.1429  0.3288
  145SAPE   H2S15930   0.619   1.046  10.221 -0.0985 -0.3362 -1.5794
  145SAPE    C315931   0.780   0.617  10.462  0.1748 -0.0363  0.1871
  145SAPE    HX15932   0.800   0.572  10.561 -1.0825  1.2598  1.0467
  145SAPE    HY15933   0.841   0.709  10.462 -0.4271  0.3627  0.4439
  145SAPE   O3115934   0.817   0.520  10.359 -0.0033  0.9755  0.2417
  145SAPE   C3115935   0.917   0.541  10.292  0.7550 -0.4642 -0.5820
  145SAPE   O3215936   1.000   0.633  10.308 -0.4649  0.7930 -0.2670
  145SAPE   C3215937   0.944   0.431  10.181  0.3668  0.6553  0.3355
  145SAPE   H2X15938   0.861   0.358  10.189  1.4323 -0.3256  2.9743
  145SAPE   H2Y15939   1.041   0.384  10.208 -1.0391 -2.9168 -0.5527
  145SAPE   C2315940   0.807   0.959  10.178  0.7139  0.6117 -0.4806
  145SAPE   H3R15941   0.817   1.001  10.076 -0.6082 -2.5515 -1.9959
  145SAPE   H3S15942   0.864   0.863  10.178  0.9195  0.6947  2.1864
  145SAPE   C2415943   0.892   1.033  10.280  0.8860  0.4768 -0.1376
  145SAPE   H4R15944   0.997   1.021  10.245  1.4183  3.4790  0.2807
  145SAPE   H4S15945   0.889   0.986  10.380 -0.3914 -0.0738 -0.4349
  145SAPE   C2515946   0.845   1.177  10.294  0.5212  0.4259  0.3418
  145SAPE   H5R15947   0.743   1.193  10.333  0.4151  1.5765 -0.3798
  145SAPE   C2615948   0.909   1.291  10.276  0.9644 -0.2763 -0.6873
  145SAPE   H6R15949   0.856   1.384  10.301  0.1054 -1.1429  0.7968
  145SAPE   C2715950   1.052   1.314  10.222  0.1148  0.1782 -0.9498
  145SAPE   H7R15951   1.045   1.334  10.112  0.5339 -1.7612 -1.3414
  145SAPE   H7S15952   1.116   1.225  10.237 -1.1370 -0.2536  2.0165
  145SAPE   C2815953   1.107   1.440  10.286 -0.6281 -0.5687  0.0255
  145SAPE   H8R15954   1.165   1.412  10.375 -1.5583  0.3105  0.9118
  145SAPE   C2915955   1.110   1.560  10.235 -0.0537  0.1230 -0.6241
  145SAPE   H9R15956   1.147   1.639  10.303  1.2228 -1.7213  0.8616
  145SAPE  C21015957   1.058   1.596  10.096  0.6020 -0.2063 -0.1359
  145SAPE  H10R15958   0.968   1.534  10.077  0.4191 -0.6508  2.0391
  145SAPE  H10S15959   1.127   1.560  10.017 -2.1990 -2.4248 -1.6529
  145SAPE  C21115960   1.030   1.738  10.059 -0.0779  0.2911  0.3499
  145SAPE  H11R15961   1.047   1.811  10.140 -1.2703 -0.0077  0.8891
  145SAPE  C21215962   0.975   1.777   9.945  1.0447 -0.0931 -0.1828
  145SAPE  H12R15963   0.975   1.885   9.928 -0.7654 -0.0205  0.2125
  145SAPE  C21315964   0.936   1.691   9.825  0.0405 -0.3436  0.7877
  145SAPE  H13R15965   0.969   1.586   9.838 -0.3189 -0.4221  1.0944
  145SAPE  H13S15966   0.978   1.730   9.730 -2.1216 -0.7336 -0.3524
  145SAPE  C21415967   0.785   1.689   9.823 -0.3426 -0.4854 -0.9876
  145SAPE  H14R15968   0.731   1.746   9.900 -2.5340 -3.7297 -0.0077
  145SAPE  C21515969   0.716   1.626   9.730  0.1922  0.1874 -0.0897
  145SAPE  H15R15970   0.607   1.634   9.742  0.4742  1.6599  1.5969
  145SAPE  C21615971   0.758   1.545   9.609 -0.0362  0.2291  0.3994
  145SAPE  H16R15972   0.745   1.436   9.626 -0.9059  0.7396  3.2109
  145SAPE  H16S15973   0.866   1.552   9.586  0.2902 -1.7986  1.2685
  145SAPE  C21715974   0.693   1.581   9.473  0.2721  0.0574 -0.1678
  145SAPE  H17R15975   0.684   1.689   9.451 -0.1227 -0.1323 -0.9939
  145SAPE  H17S15976   0.587   1.550   9.489  0.0287  1.9447  2.0521
  145SAPE  C21815977   0.751   1.507   9.353  0.5362  0.3421 -0.3514
  145SAPE  H18R15978   0.742   1.399   9.373  1.0335  0.3930  0.1522
  145SAPE  H18S15979   0.857   1.536   9.341  0.9008 -1.1830 -0.8493
  145SAPE  C21915980   0.675   1.543   9.217 -0.3077 -0.2773 -0.3507
  145SAPE  H19R15981   0.693   1.652   9.203 -0.9153 -0.0429  0.6326
  145SAPE  H19S15982   0.565   1.543   9.231 -0.2836  2.0301  0.0004
  145SAPE  C22015983   0.712   1.458   9.097  0.3060  0.4340 -0.4169
  145SAPE  H20R15984   0.641   1.489   9.017  0.3769 -2.2140 -1.5594
  145SAPE  H20S15985   0.696   1.350   9.119 -1.1215  0.5874 -0.6628
  145SAPE  H20T15986   0.818   1.478   9.070 -0.0235  0.3113 -1.8651
  145SAPE   C3315987   0.944   0.506  10.047  0.0872 -0.8474  0.6047
  145SAPE   H3X15988   0.974   0.428   9.973  1.5249 -0.0574  0.3352
  145SAPE   H3Y15989   1.026   0.580  10.037  0.0746 -0.9289 -0.1452
  145SAPE   C3415990   0.803   0.568  10.017 -0.0142 -1.0732 -0.1398
  145SAPE   H4X15991   0.806   0.664  10.072  0.9072 -0.1540 -1.7705
  145SAPE   H4Y15992   0.723   0.504  10.061 -1.8038  1.0684 -0.2045
  145SAPE   C3515993   0.762   0.599   9.875 -0.0307 -0.4442 -0.4033
  145SAPE   H5X15994   0.652   0.604   9.864 -0.0914 -0.7370  0.0555
  145SAPE   H5Y15995   0.800   0.528   9.797 -1.3147  0.3385 -1.7553
  145SAPE   C3615996   0.808   0.739   9.830 -0.1932 -0.4551  0.0295
  145SAPE   H6X15997   0.919   0.740   9.828 -0.1358 -1.0186  1.8952
  145SAPE   H6Y15998   0.796   0.812   9.912  4.6253 -0.2389  0.6983
  145SAPE   C3715999   0.734   0.783   9.709  0.0074 -0.4815  0.0199
  145SAPE   H7X16000   0.624   0.770   9.718 -0.4367  1.1804 -2.3780
  145SAPE   H7Y16001   0.761   0.717   9.624  0.5612  0.2984 -0.4171
  145SAPE   C3816002   0.748   0.928   9.667 -0.0922  0.9795 -0.1474
  145SAPE   H8X16003   0.855   0.946   9.646  0.4625 -0.3850  1.4364
  145SAPE   H8Y16004   0.725   0.990   9.756  1.7571  1.5718 -0.0789
  145SAPE   C3916005   0.665   0.985   9.557  0.1859  0.0606 -0.3813
  145SAPE   H9X16006   0.688   1.093   9.549  0.3726  0.2469  2.1039
  145SAPE   H9Y16007   0.559   0.975   9.589 -0.0326  0.8556 -0.8393
  145SAPE  C31016008   0.679   0.917   9.424 -0.1947  0.0152 -0.3333
  145SAPE  H10X16009   0.616   0.827   9.416  1.0776 -0.9770  0.6361
  145SAPE  H10Y16010   0.786   0.887   9.419 -0.3525 -0.9112  1.6549
  145SAPE  C31116011   0.654   1.010   9.301 -0.5492  0.7839  0.5655
  145SAPE  H11X16012   0.728   1.093   9.297 -1.0285  1.2413  1.0426
  145SAPE  H11Y16013   0.547   1.041   9.308 -0.8732  0.2567 -1.4979
  145SAPE  C31216014   0.680   0.927   9.168  0.0419  0.1270 -0.0956
  145SAPE  H12X16015   0.628   0.830   9.153  0.3197  0.0696 -0.7099
  145SAPE  H12Y16016   0.789   0.911   9.153  0.3979  0.8256  1.6685
  145SAPE  C31316017   0.632   1.007   9.044 -1.1146  0.2107 -0.5361
  145SAPE  H13X16018   0.703   1.090   9.024  0.2135 -0.7249  0.2571
  145SAPE  H13Y16019   0.529   1.045   9.063 -0.9005  0.5963 -0.1432
  145SAPE  C31416020   0.620   0.928   8.913 -0.4559  0.3601 -0.5826
  145SAPE  H14X16021   0.534   0.858   8.924 -1.5644  1.5956 -1.3062
  145SAPE  H14Y16022   0.706   0.861   8.887 -2.1757 -1.3511 -2.0525
  145SAPE  C31516023   0.600   1.019   8.792 -0.2852  0.1847 -0.2155
  145SAPE  H15X16024   0.625   0.962   8.700 -1.1005 -0.6823  0.0941
  145SAPE  H15Y16025   0.670   1.105   8.784 -0.6508  0.3865 -1.2058
  145SAPE  C31616026   0.455   1.070   8.772  0.5392 -0.6193  0.2320
  145SAPE  H16X16027   0.433   1.136   8.860  0.7444 -1.4770  0.9283
  145SAPE  H16Y16028   0.379   0.990   8.763  1.3555 -1.3884  0.1085
  145SAPE  C31716029   0.437   1.162   8.647 -0.1559 -0.0593  0.1868
  145SAPE  H17X16030   0.330   1.190   8.657 -0.4595 -1.3718  0.7753
  145SAPE  H17Y16031   0.462   1.112   8.551  0.3917  2.8929 -1.2768
  145SAPE  C31816032   0.516   1.293   8.638  0.0256  0.2952  0.0933
  145SAPE  H18X16033   0.624   1.272   8.624  0.0328  0.1449  0.3786
  145SAPE  H18Y16034   0.509   1.352   8.732  0.1447 -0.4849  0.5946
  145SAPE  H18Z16035   0.483   1.354   8.551  0.5684  0.0422 -0.2961
  146SAPE     N16036   6.626   1.937  10.720  0.2942  0.5692  0.5725
  146SAPE   HN116037   6.557   2.002  10.762  0.3986  1.8003 -1.0981
  146SAPE   HN216038   6.588   1.841  10.711  2.3873 -0.2879  0.4697
  146SAPE   HN316039   6.711   1.936  10.780  1.0408  0.0591 -0.4567
  146SAPE   C1216040   6.667   1.974  10.583  0.7355 -0.1067 -0.1910
  146SAPE  H12A16041   6.757   1.911  10.567  0.9861 -0.0851  1.1078
  146SAPE  H12B16042   6.695   2.081  10.572  0.0483  0.0778 -0.2178
  146SAPE   C1116043   6.564   1.930  10.481  0.1958 -0.7181  0.1349
  146SAPE  H11A16044   6.598   1.937  10.376  1.6396  0.9170  0.6935
  146SAPE  H11B16045   6.483   2.005  10.491  1.1596  0.6081 -1.7593
  146SAPE     P16046   6.371   1.765  10.538 -0.0332  0.6368 -0.2051
  146SAPE   O1316047   6.340   1.630  10.494  0.2679  0.4289 -0.0965
  146SAPE   O1416048   6.365   1.782  10.684  0.3999 -0.6371  0.2315
  146SAPE   O1216049   6.520   1.795  10.498  1.1217  0.0222 -0.4800
  146SAPE   O1116050   6.283   1.872  10.475 -0.2785  0.0254  0.1629
  146SAPE    C116051   6.142   1.864  10.500 -0.1480  0.1556  0.0372
  146SAPE    HA16052   6.091   1.765  10.498  3.2970 -1.6959  0.3895
  146SAPE    HB16053   6.125   1.901  10.603  1.3066 -2.2858  1.1970
  146SAPE    C216054   6.072   1.951  10.397 -0.2999  0.0229  0.4471
  146SAPE    HS16055   5.968   1.968  10.430 -0.2055  0.6533  0.4268
  146SAPE   O2116056   6.074   1.893  10.268 -0.2406 -0.2359 -0.1312
  146SAPE   C2116057   5.984   1.789  10.248 -0.4838 -0.9030 -0.8476
  146SAPE   O2216058   5.907   1.746  10.326 -0.2139 -0.5161 -0.5723
  146SAPE   C2216059   6.005   1.741  10.110 -0.0436  0.4731  1.2214
  146SAPE   H2R16060   5.976   1.827  10.046  1.9108  0.4499  0.2665
  146SAPE   H2S16061   6.113   1.724  10.091 -0.2232 -1.0391  1.4892
  146SAPE    C316062   6.130   2.098  10.386 -0.5380  0.5084 -0.6339
  146SAPE    HX16063   6.202   2.103  10.302 -0.6780  2.3949 -0.6679
  146SAPE    HY16064   6.186   2.129  10.477 -1.4650  1.2006 -0.2828
  146SAPE   O3116065   6.031   2.198  10.356 -0.4566  0.2645  0.3002
  146SAPE   C3116066   6.082   2.324  10.337  0.8069 -0.1987  0.2161
  146SAPE   O3216067   6.196   2.357  10.361  0.1008 -0.1420  0.4658
  146SAPE   C3216068   5.984   2.413  10.262  0.0260  0.6382 -0.4059
  146SAPE   H2X16069   6.010   2.520  10.277 -0.9731  0.6324  1.5058
  146SAPE   H2Y16070   5.882   2.388  10.298  0.3749  0.8726  0.7611
  146SAPE   C2316071   5.915   1.618  10.079 -0.4246 -0.0954 -0.0036
  146SAPE   H3R16072   5.811   1.655  10.068 -0.7066 -0.9977 -0.3947
  146SAPE   H3S16073   5.926   1.542  10.159  2.7298  0.8063  0.4982
  146SAPE   C2416074   5.954   1.542   9.953 -0.4726 -0.6759 -0.0333
  146SAPE   H4R16075   5.896   1.447   9.952 -1.8439  0.1461 -0.1167
  146SAPE   H4S16076   6.059   1.506   9.959 -0.0895 -0.2368 -3.1141
  146SAPE   C2516077   5.932   1.635   9.837 -0.3125 -1.2226 -0.1498
  146SAPE   H5R16078   5.829   1.671   9.843 -0.3812 -1.5356  0.6745
  146SAPE   C2616079   6.014   1.678   9.731  0.0511 -0.9033 -0.2746
  146SAPE   H6R16080   5.982   1.764   9.670  0.2029 -1.8954 -1.7933
  146SAPE   C2716081   6.156   1.627   9.700 -0.4870  0.0706 -0.2338
  146SAPE   H7R16082   6.169   1.535   9.760  1.1588  1.2923  1.3320
  146SAPE   H7S16083   6.233   1.699   9.735 -0.0257  0.9300 -2.8946
  146SAPE   C2816084   6.176   1.585   9.554  0.4164  0.6569  0.3929
  146SAPE   H8R16085   6.099   1.521   9.510 -0.6907  0.3101  2.7489
  146SAPE   C2916086   6.269   1.629   9.466  0.4771  0.2289  0.2580
  146SAPE   H9R16087   6.270   1.585   9.365  0.0443  0.2676  0.2359
  146SAPE  C21016088   6.373   1.734   9.492 -0.4262  0.0589  0.5402
  146SAPE  H10R16089   6.373   1.751   9.602 -1.3635 -0.0715  0.5656
  146SAPE  H10S16090   6.333   1.828   9.448  0.8818  0.0768 -0.6233
  146SAPE  C21116091   6.510   1.709   9.438  0.6260  0.1654 -0.8475
  146SAPE  H11R16092   6.530   1.745   9.336  1.0051 -1.0654 -1.2209
  146SAPE  C21216093   6.606   1.636   9.493 -0.4119 -0.3461  0.3747
  146SAPE  H12R16094   6.702   1.636   9.440 -0.1098 -2.4476  0.8908
  146SAPE  C21316095   6.597   1.567   9.631  0.5654  0.4203 -0.0820
  146SAPE  H13R16096   6.570   1.460   9.617 -2.1932  0.5023  3.8829
  146SAPE  H13S16097   6.522   1.614   9.697 -0.5644 -1.3514 -0.0685
  146SAPE  C21416098   6.727   1.588   9.702  0.1433  0.1346 -0.2317
  146SAPE  H14R16099   6.756   1.694   9.706 -1.8248  0.6547  2.0484
  146SAPE  C21516100   6.810   1.499   9.759 -0.4918  0.0524  0.0349
  146SAPE  H15R16101   6.902   1.538   9.804 -0.2608 -0.6091  0.1468
  146SAPE  C21616102   6.790   1.350   9.764  0.0536 -0.8306 -0.1002
  146SAPE  H16R16103   6.891   1.305   9.750  0.3918  0.2224 -1.1000
  146SAPE  H16S16104   6.721   1.315   9.684 -2.1652  1.2389  0.8648
  146SAPE  C21716105   6.738   1.277   9.894 -0.4533  0.5396  0.3744
  146SAPE  H17R16106   6.639   1.321   9.919 -0.1671  1.0309  0.6680
  146SAPE  H17S16107   6.806   1.304   9.978  0.8817  1.7063 -1.0512
  146SAPE  C21816108   6.728   1.128   9.888 -0.4582  0.0134 -0.8324
  146SAPE  H18R16109   6.828   1.082   9.872 -0.7102 -0.6977 -0.3867
  146SAPE  H18S16110   6.651   1.102   9.812 -0.8098  0.2477 -0.5543
  146SAPE  C21916111   6.683   1.058  10.022  1.0329 -1.0511 -0.3355
  146SAPE  H19R16112   6.720   0.955  10.001  1.0938 -0.9267 -0.8557
  146SAPE  H19S16113   6.572   1.055  10.024  1.0420 -1.9870 -1.0828
  146SAPE  C22016114   6.732   1.117  10.147 -0.3691 -0.6444  0.4030
  146SAPE  H20R16115   6.691   1.065  10.237 -0.2837 -2.2381 -0.4708
  146SAPE  H20S16116   6.700   1.223  10.152  0.2350 -0.4026 -0.8528
  146SAPE  H20T16117   6.842   1.110  10.155 -0.2893 -1.4108 -1.3095
  146SAPE   C3316118   5.999   2.394  10.104 -0.2481  0.7056 -0.7146
  146SAPE   H3X16119   6.105   2.390  10.073  0.0025  1.3101  0.0618
  146SAPE   H3Y16120   5.941   2.478  10.060 -1.0147  0.4416 -0.2243
  146SAPE   C3416121   5.931   2.273  10.049 -0.3095 -0.3559  0.5078
  146SAPE   H4X16122   5.820   2.286  10.053 -0.2449  0.1836  0.4652
  146SAPE   H4Y16123   5.958   2.183  10.108  0.0227 -1.1453 -0.8333
  146SAPE   C3516124   5.969   2.230   9.903 -0.2799  0.1229 -0.2407
  146SAPE   H5X16125   6.079   2.238   9.887 -0.3491  3.0413  0.4955
  146SAPE   H5Y16126   5.944   2.312   9.833 -1.2299  0.8186  0.9038
  146SAPE   C3616127   5.913   2.092   9.863  0.2953 -0.9048 -0.2924
  146SAPE   H6X16128   5.803   2.107   9.871  0.3312  0.4296 -1.8558
  146SAPE   H6Y16129   5.953   2.015   9.933  0.3934 -0.3461  0.2656
  146SAPE   C3716130   5.929   2.053   9.713  0.1641  0.8724 -1.3172
  146SAPE   H7X16131   5.846   2.102   9.657 -0.6468  1.3998  0.2855
  146SAPE   H7Y16132   5.902   1.946   9.708  0.1521  0.6808  1.6398
  146SAPE   C3816133   6.064   2.065   9.662  0.2195 -0.3138 -0.1037
  146SAPE   H8X16134   6.122   1.988   9.718 -0.5606 -0.7117  0.1619
  146SAPE   H8Y16135   6.113   2.162   9.684  0.7836 -0.2850 -1.4314
  146SAPE   C3916136   6.096   2.029   9.512 -0.1657  0.4217  0.3949
  146SAPE   H9X16137   6.063   1.928   9.480 -0.3127  0.1456  1.3944
  146SAPE   H9Y16138   6.203   2.041   9.487 -0.7901  0.7804 -2.2550
  146SAPE  C31016139   6.020   2.123   9.416 -0.6230 -0.3491 -0.0565
  146SAPE  H10X16140   6.032   2.230   9.445 -1.2822  0.4275 -2.4882
  146SAPE  H10Y16141   5.915   2.085   9.418 -1.0345  0.7135  5.3262
  146SAPE  C31116142   6.077   2.112   9.270  0.4946 -0.2189  0.6961
  146SAPE  H11X16143   6.005   2.083   9.190  0.8651  0.5893  0.0708
  146SAPE  H11Y16144   6.150   2.028   9.270  0.4558 -0.2830 -1.0747
  146SAPE  C31216145   6.162   2.234   9.237  0.1169 -0.4003 -0.1218
  146SAPE  H12X16146   6.212   2.270   9.329  1.2743  0.6355 -1.1264
  146SAPE  H12Y16147   6.102   2.321   9.200  0.2681 -0.5310 -0.6818
  146SAPE  C31316148   6.276   2.216   9.137 -0.5795 -0.4899  0.1084
  146SAPE  H13X16149   6.348   2.136   9.164  0.5515  0.6662  0.5367
  146SAPE  H13Y16150   6.336   2.309   9.130  0.2570 -0.9370  1.2814
  146SAPE  C31416151   6.221   2.183   8.995  0.0567  0.0203  0.4075
  146SAPE  H14X16152   6.189   2.077   8.983 -0.1156  0.1260 -0.0433
  146SAPE  H14Y16153   6.311   2.187   8.930 -0.7174  0.2202 -0.6510
  146SAPE  C31516154   6.112   2.276   8.943  0.1543  0.3992 -0.1578
  146SAPE  H15X16155   6.014   2.278   8.997  0.2665  0.1323  0.0529
  146SAPE  H15Y16156   6.090   2.249   8.837 -2.0975 -1.2472  0.6668
  146SAPE  C31616157   6.178   2.416   8.924  0.4658  0.2388 -0.5291
  146SAPE  H16X16158   6.270   2.402   8.864  0.4293  0.6731 -0.6887
  146SAPE  H16Y16159   6.212   2.455   9.022 -3.2985  0.0254  0.9717
  146SAPE  C31716160   6.076   2.518   8.863  0.0580 -0.4118 -0.3373
  146SAPE  H17X16161   5.996   2.556   8.930 -0.1989 -0.7162 -0.4684
  146SAPE  H17Y16162   6.016   2.468   8.784  2.3463 -0.2089 -2.2310
  146SAPE  C31816163   6.150   2.639   8.805  0.3501 -0.6763  0.2111
  146SAPE  H18X16164   6.079   2.714   8.765  1.6137 -0.1142 -1.0336
  146SAPE  H18Y16165   6.212   2.614   8.716 -0.4000  2.6567 -1.3271
  146SAPE  H18Z16166   6.214   2.681   8.885  0.4973  0.3260 -0.4283
  147SAPE     N16167   1.941   5.029  10.837 -0.4187 -0.3101  0.3468
  147SAPE   HN116168   1.940   5.125  10.876 -1.9667  0.0898 -0.6417
  147SAPE   HN216169   1.909   4.963  10.911  0.2676  0.7448  1.6145
  147SAPE   HN316170   2.043   5.007  10.827 -0.6688 -1.5229  0.3248
  147SAPE   C1216171   1.869   5.013  10.702  0.0756  0.0694  0.4494
  147SAPE  H12A16172   1.855   4.906  10.674  0.0941  0.1757  0.0256
  147SAPE  H12B16173   1.931   5.055  10.620  0.5824 -2.3704 -0.4608
  147SAPE   C1116174   1.727   5.069  10.713 -0.6231 -0.2836 -0.0351
  147SAPE  H11A16175   1.685   5.032  10.617  3.2005  0.2531 -2.0548
  147SAPE  H11B16176   1.728   5.180  10.718  1.4750 -0.2648 -0.2535
  147SAPE     P16177   1.544   4.919  10.826  0.3406 -0.2145  0.1200
  147SAPE   O1316178   1.551   4.849  10.959 -0.3471  0.5229 -0.4803
  147SAPE   O1416179   1.416   4.985  10.799  0.6997 -0.0288  0.5922
  147SAPE   O1216180   1.658   5.021  10.825  0.1891 -0.5106  0.5468
  147SAPE   O1116181   1.572   4.812  10.710  0.3770 -0.5284  0.2069
  147SAPE    C116182   1.636   4.683  10.721  0.3491 -0.2867 -0.1413
  147SAPE    HA16183   1.746   4.687  10.735  0.1614  2.6023  0.7551
  147SAPE    HB16184   1.602   4.634  10.815  0.9224 -0.7891 -0.1924
  147SAPE    C216185   1.603   4.587  10.599  0.9915  0.2540  0.1804
  147SAPE    HS16186   1.655   4.492  10.624  1.7421  0.8279  0.8214
  147SAPE   O2116187   1.646   4.657  10.484 -0.1410 -0.4678  0.5329
  147SAPE   C2116188   1.768   4.630  10.453 -0.8832 -0.3189 -0.2913
  147SAPE   O2216189   1.835   4.531  10.481  0.0653  0.0581 -0.4173
  147SAPE   C2216190   1.813   4.748  10.356  0.6972  0.2778  0.1539
  147SAPE   H2R16191   1.721   4.801  10.322  0.9275  1.3607  1.1791
  147SAPE   H2S16192   1.866   4.816  10.426 -0.1339  1.6669 -0.5225
  147SAPE    C316193   1.446   4.571  10.594  0.1067  0.3691  0.1450
  147SAPE    HX16194   1.411   4.675  10.575  1.4827  0.8510  0.2116
  147SAPE    HY16195   1.416   4.548  10.698  0.9159  0.5412  0.4223
  147SAPE   O3116196   1.409   4.465  10.503 -0.4055  0.3505  0.0890
  147SAPE   C3116197   1.286   4.421  10.518  0.1014 -0.1150  0.3766
  147SAPE   O3216198   1.206   4.456  10.601 -0.1118 -0.8472  0.5704
  147SAPE   C3216199   1.263   4.310  10.415  0.0878  0.3600  0.2158
  147SAPE   H2X16200   1.281   4.208  10.456  0.5273  0.7861  1.0974
  147SAPE   H2Y16201   1.334   4.340  10.335 -0.8149 -1.8226 -1.4737
  147SAPE   C2316202   1.893   4.716  10.233 -0.4498  0.1493  0.3235
  147SAPE   H3R16203   1.992   4.675  10.260  0.6127  1.0249 -2.0715
  147SAPE   H3S16204   1.918   4.814  10.186  0.8948  0.1999  1.1112
  147SAPE   C2416205   1.819   4.629  10.130  0.4443  0.6794 -0.1914
  147SAPE   H4R16206   1.741   4.693  10.084 -0.4350  0.5750  1.1243
  147SAPE   H4S16207   1.760   4.553  10.186  2.5861  0.5913  2.0187
  147SAPE   C2516208   1.904   4.559  10.035 -0.2836  0.0304 -1.0218
  147SAPE   H5R16209   1.935   4.458  10.068  0.9176  0.1792 -1.6705
  147SAPE   C2616210   1.951   4.608   9.918 -0.6690 -0.5397  0.5173
  147SAPE   H6R16211   2.019   4.552   9.853 -0.3954  1.0065 -0.5650
  147SAPE   C2716212   1.916   4.735   9.846 -0.4366  0.2701 -0.3412
  147SAPE   H7R16213   2.012   4.789   9.828 -0.8893  1.5051  0.8301
  147SAPE   H7S16214   1.855   4.808   9.903 -0.9608  0.0790 -0.6506
  147SAPE   C2816215   1.850   4.724   9.711  0.2992 -0.0293 -0.8572
  147SAPE   H8R16216   1.741   4.714   9.709  0.2013 -0.0217  1.8623
  147SAPE   C2916217   1.918   4.718   9.594  1.1766  0.1563  0.0873
  147SAPE   H9R16218   1.869   4.691   9.500  1.4110 -0.9936  0.2854
  147SAPE  C21016219   2.071   4.730   9.576  0.3742  0.0228  0.6047
  147SAPE  H10R16220   2.113   4.656   9.647  2.8230  1.0514  0.2633
  147SAPE  H10S16221   2.100   4.834   9.602  0.0297  0.7322 -1.7086
  147SAPE  C21116222   2.129   4.695   9.433  0.1682  0.3709 -0.2308
  147SAPE  H11R16223   2.115   4.772   9.356  2.1632 -0.5672 -1.5660
  147SAPE  C21216224   2.199   4.588   9.392 -0.8253  0.1050 -0.4296
  147SAPE  H12R16225   2.221   4.575   9.285 -1.8041  0.6071 -0.7014
  147SAPE  C21316226   2.231   4.469   9.487 -0.3862  0.2923 -0.5575
  147SAPE  H13R16227   2.266   4.510   9.584  1.5354 -0.5976 -0.8437
  147SAPE  H13S16228   2.321   4.414   9.451  0.1036  0.5754  0.2157
  147SAPE  C21416229   2.107   4.381   9.501 -0.2069  0.1830  0.3507
  147SAPE  H14R16230   2.057   4.380   9.599 -0.3572 -0.3144  0.2733
  147SAPE  C21516231   2.050   4.300   9.412 -0.4422 -0.0109  1.2257
  147SAPE  H15R16232   1.951   4.258   9.438 -0.4889 -0.4577  0.3685
  147SAPE  C21616233   2.100   4.276   9.267  0.3045  0.3446 -0.2423
  147SAPE  H16R16234   2.145   4.175   9.264  0.4089  0.4433 -2.2636
  147SAPE  H16S16235   2.190   4.336   9.243  0.1953  0.6672  0.1468
  147SAPE  C21716236   1.997   4.294   9.150 -0.2722  0.5563 -0.3103
  147SAPE  H17R16237   1.965   4.400   9.145 -1.0598  0.2603 -1.8688
  147SAPE  H17S16238   1.912   4.228   9.179  0.0323 -0.2885 -1.3484
  147SAPE  C21816239   2.056   4.243   9.017  0.8471 -0.6409 -0.2315
  147SAPE  H18R16240   2.101   4.147   9.050  0.3313 -0.5946  0.5959
  147SAPE  H18S16241   2.135   4.308   8.974  0.6822  1.1952  2.1972
  147SAPE  C21916242   1.959   4.220   8.904 -0.4641 -0.2633  0.5604
  147SAPE  H19R16243   1.902   4.310   8.875 -1.7695 -0.8183  1.3676
  147SAPE  H19S16244   1.882   4.149   8.940 -1.8540  1.5455  1.2396
  147SAPE  C22016245   2.029   4.169   8.780 -0.3891 -0.0330 -0.2774
  147SAPE  H20R16246   2.083   4.073   8.796 -1.4490 -0.7472 -0.8838
  147SAPE  H20S16247   2.098   4.243   8.734  1.3302 -1.5625 -0.2113
  147SAPE  H20T16248   1.950   4.160   8.702 -1.1885  2.1501  0.2498
  147SAPE   C3316249   1.118   4.327  10.364 -0.0893  0.4974 -0.0898
  147SAPE   H3X16250   1.115   4.416  10.297  1.9354 -1.7495 -3.2762
  147SAPE   H3Y16251   1.053   4.354  10.450 -0.6612  0.8928 -0.6407
  147SAPE   C3416252   1.062   4.200  10.300  0.4858 -0.0615 -0.7304
  147SAPE   H4X16253   0.959   4.213  10.260  0.3595  2.3344  0.2966
  147SAPE   H4Y16254   1.058   4.121  10.377 -2.0583  0.9792  0.2674
  147SAPE   C3516255   1.153   4.152  10.180  0.6606 -0.8153  0.3999
  147SAPE   H5X16256   1.131   4.045  10.159  2.0539 -0.7309 -1.6236
  147SAPE   H5Y16257   1.261   4.155  10.208  0.7500  3.7187 -0.1475
  147SAPE   C3616258   1.125   4.229  10.048 -0.6796 -1.0868  0.7105
  147SAPE   H6X16259   1.127   4.338  10.071 -0.3164 -0.9821  0.2150
  147SAPE   H6Y16260   1.018   4.226  10.017 -1.0535 -1.4396  1.9952
  147SAPE   C3716261   1.204   4.178   9.928 -0.0468  0.4319 -0.2797
  147SAPE   H7X16262   1.183   4.069   9.916 -0.8394  0.6373 -0.7910
  147SAPE   H7Y16263   1.312   4.196   9.943  0.4987 -3.1184  0.6711
  147SAPE   C3816264   1.178   4.259   9.801  0.1935  0.1160 -0.0439
  147SAPE   H8X16265   1.206   4.365   9.821  0.7101 -0.6001  3.3283
  147SAPE   H8Y16266   1.077   4.240   9.760  0.6599 -2.4215 -0.1039
  147SAPE   C3916267   1.263   4.211   9.680 -0.3415  0.0147 -0.7095
  147SAPE   H9X16268   1.253   4.101   9.672 -2.1522 -0.0929  2.3609
  147SAPE   H9Y16269   1.372   4.230   9.692 -0.6940  2.3003 -0.9172
  147SAPE  C31016270   1.231   4.267   9.538  0.1642 -0.6346 -0.3606
  147SAPE  H10X16271   1.252   4.376   9.537 -3.5341  0.2259  2.6897
  147SAPE  H10Y16272   1.121   4.253   9.532 -0.0473  0.6509  0.2114
  147SAPE  C31116273   1.289   4.189   9.423  0.0518  0.0547 -0.1195
  147SAPE  H11X16274   1.251   4.085   9.427 -1.2036  0.5714  2.0647
  147SAPE  H11Y16275   1.398   4.190   9.443 -0.0186  1.6824  0.2474
  147SAPE  C31216276   1.248   4.260   9.287  0.7882 -1.1408  0.1315
  147SAPE  H12X16277   1.285   4.364   9.283  2.4456 -1.7171 -0.1538
  147SAPE  H12Y16278   1.137   4.255   9.289  0.6227  1.3637 -1.4486
  147SAPE  C31316279   1.305   4.181   9.174 -0.3370  0.4945  0.0469
  147SAPE  H13X16280   1.266   4.079   9.194  0.1110  0.0707 -1.2257
  147SAPE  H13Y16281   1.416   4.179   9.173 -0.3421  0.2746 -2.3885
  147SAPE  C31416282   1.270   4.234   9.040 -0.0059 -0.3280  0.0369
  147SAPE  H14X16283   1.322   4.332   9.031 -1.2181  0.3772  0.6904
  147SAPE  H14Y16284   1.159   4.245   9.039  0.0866  0.6474  0.0132
  147SAPE  C31516285   1.300   4.141   8.920 -0.1673 -0.3945 -0.4026
  147SAPE  H15X16286   1.234   4.053   8.938  1.4548 -1.5680 -0.0314
  147SAPE  H15Y16287   1.405   4.104   8.913  0.4126  1.5209 -2.5133
  147SAPE  C31616288   1.266   4.204   8.784  0.4718 -0.0554 -0.8745
  147SAPE  H16X16289   1.163   4.245   8.785 -0.4105 -2.2413  0.1400
  147SAPE  H16Y16290   1.262   4.131   8.700  0.5591 -0.2809 -0.6801
  147SAPE  C31716291   1.363   4.304   8.727 -0.1751  0.3535 -0.4503
  147SAPE  H17X16292   1.381   4.384   8.801 -1.7648 -1.0879  1.5686
  147SAPE  H17Y16293   1.318   4.359   8.642 -0.0053 -0.0386 -0.7912
  147SAPE  C31816294   1.492   4.234   8.685 -0.6584 -0.3599  0.8739
  147SAPE  H18X16295   1.574   4.303   8.654 -1.3427  0.1605  0.2035
  147SAPE  H18Y16296   1.482   4.160   8.603 -2.3033 -0.2744  0.9729
  147SAPE  H18Z16297   1.544   4.187   8.771 -0.4318  1.0541  1.5221
  148SAPE     N16298   2.582   0.080  10.623  0.4419 -0.0890  0.2213
  148SAPE   HN116299   2.623   0.171  10.595  1.1004 -0.2633  0.6179
  148SAPE   HN216300   2.506   0.066  10.553  1.1491  0.0979 -0.5961
  148SAPE   HN316301   2.541   0.092  10.718  0.1460 -2.0548  0.3626
  148SAPE   C1216302   2.671  -0.038  10.612  0.0982  0.0123  0.3013
  148SAPE  H12A16303   2.602  -0.120  10.640 -0.8195  0.7189  0.1564
  148SAPE  H12B16304   2.739  -0.031  10.699  0.0045 -0.7283  0.4379
  148SAPE   C1116305   2.736  -0.054  10.470 -0.5940  0.1297  0.1123
  148SAPE  H11A16306   2.770   0.046  10.436 -0.3848  0.0170 -0.0148
  148SAPE  H11B16307   2.658  -0.079  10.395 -2.0031  3.1940  0.4828
  148SAPE     P16308   2.825  -0.296  10.511 -0.0003 -0.2455 -0.1401
  148SAPE   O1316309   2.935  -0.373  10.454 -0.0134 -0.5336 -0.2638
  148SAPE   O1416310   2.816  -0.296  10.657  0.0055  0.1935  0.2431
  148SAPE   O1216311   2.843  -0.145  10.460 -0.0209 -0.1681  0.8575
  148SAPE   O1116312   2.682  -0.341  10.457 -0.0210 -0.1575 -0.1202
  148SAPE    C116313   2.669  -0.464  10.384 -0.3173  0.0528 -0.3313
  148SAPE    HA16314   2.763  -0.522  10.372 -0.8222 -1.0976  1.1860
  148SAPE    HB16315   2.587  -0.526  10.426  1.4112 -2.6860 -0.8779
  148SAPE    C216316   2.619  -0.431  10.239  0.6377  0.8232  0.3827
  148SAPE    HS16317   2.604  -0.525  10.182  0.8855  1.6078 -1.0276
  148SAPE   O2116318   2.708  -0.346  10.167 -0.9278  0.5703 -0.0955
  148SAPE   C2116319   2.805  -0.405  10.101  0.1785  0.1621  0.2286
  148SAPE   O2216320   2.834  -0.522  10.104  0.0367  0.4786  0.6809
  148SAPE   C2216321   2.881  -0.297  10.016  0.3166  0.6488 -0.4389
  148SAPE   H2R16322   2.835  -0.195  10.022  0.7138  0.6971  2.6216
  148SAPE   H2S16323   2.980  -0.288  10.065  1.0188 -0.5058 -1.6066
  148SAPE    C316324   2.471  -0.383  10.247 -0.0511 -0.0856  0.8177
  148SAPE    HX16325   2.466  -0.289  10.307 -2.1191  1.4906 -1.6794
  148SAPE    HY16326   2.416  -0.465  10.298  1.6204  0.5230  3.6474
  148SAPE   O3116327   2.410  -0.371  10.116  0.2502  0.1465 -0.4672
  148SAPE   C3116328   2.403  -0.256  10.052  0.1100  0.2053  0.0991
  148SAPE   O3216329   2.431  -0.148  10.097 -0.0655  0.0258  0.0132
  148SAPE   C3216330   2.343  -0.279   9.918 -0.1422  0.2553 -0.0574
  148SAPE   H2X16331   2.239  -0.314   9.939  0.5919 -0.6679  2.2803
  148SAPE   H2Y16332   2.403  -0.363   9.877 -2.0399 -0.4799 -1.4053
  148SAPE   C2316333   2.894  -0.346   9.868  0.5696  0.0169 -0.6424
  148SAPE   H3R16334   2.889  -0.456   9.863 -2.2871  0.0429  0.8240
  148SAPE   H3S16335   2.980  -0.309   9.808  3.1029 -0.8796  2.3330
  148SAPE   C2416336   2.767  -0.305   9.783 -0.9709  0.5780  0.2280
  148SAPE   H4R16337   2.677  -0.342   9.837 -1.0000 -0.7927 -0.7517
  148SAPE   H4S16338   2.786  -0.355   9.686 -1.0757  2.4333 -0.7779
  148SAPE   C2516339   2.739  -0.160   9.756  0.0451 -0.2685 -0.1223
  148SAPE   H5R16340   2.695  -0.113   9.846 -0.6570 -1.1719  0.0150
  148SAPE   C2616341   2.768  -0.084   9.640  0.0168  0.6949  0.3168
  148SAPE   H6R16342   2.739   0.022   9.636  1.8303  1.2198  0.3708
  148SAPE   C2716343   2.824  -0.151   9.514 -0.3322  0.0702 -0.3575
  148SAPE   H7R16344   2.858  -0.254   9.535  1.4975  0.1502 -2.7049
  148SAPE   H7S16345   2.917  -0.098   9.483 -1.9152  2.9012 -0.4434
  148SAPE   C2816346   2.715  -0.176   9.414 -0.4563  0.4781 -0.2160
  148SAPE   H8R16347   2.617  -0.221   9.436 -0.1952 -0.2467 -0.4958
  148SAPE   C2916348   2.739  -0.154   9.277  1.0242 -0.2450 -0.7266
  148SAPE   H9R16349   2.654  -0.146   9.208  1.5544  0.3278 -1.3297
  148SAPE  C21016350   2.877  -0.111   9.212 -0.9956 -0.5375 -0.9118
  148SAPE  H10R16351   2.903  -0.018   9.267  3.3260 -1.7273 -0.8002
  148SAPE  H10S16352   2.863  -0.074   9.108 -0.0579 -0.5743 -1.0507
  148SAPE  C21116353   2.984  -0.218   9.213 -0.6099 -0.4221  0.3061
  148SAPE  H11R16354   2.958  -0.292   9.290  1.3665 -0.2289  1.1921
  148SAPE  C21216355   3.103  -0.226   9.142  0.1581 -0.3020  0.1948
  148SAPE  H12R16356   3.174  -0.309   9.158 -0.8929 -1.2296  0.1601
  148SAPE  C21316357   3.160  -0.127   9.043  0.4045 -0.5007 -0.1306
  148SAPE  H13R16358   3.229  -0.054   9.090  1.6667 -2.1702  0.6861
  148SAPE  H13S16359   3.082  -0.058   9.004  0.7284  0.0875  0.2609
  148SAPE  C21416360   3.228  -0.192   8.923 -0.0329  0.2825 -0.0832
  148SAPE  H14R16361   3.178  -0.268   8.862  0.0726  0.1138  0.0420
  148SAPE  C21516362   3.349  -0.162   8.883 -0.0370  0.1294 -0.2415
  148SAPE  H15R16363   3.387  -0.222   8.798 -2.3578 -1.0644 -0.4927
  148SAPE  C21616364   3.450  -0.068   8.948  0.2173 -0.0712 -0.2911
  148SAPE  H16R16365   3.437  -0.053   9.057  3.4942  1.9553 -0.1102
  148SAPE  H16S16366   3.461   0.024   8.886  0.9145 -0.7000 -1.0985
  148SAPE  C21716367   3.592  -0.133   8.948  0.5031  0.1220 -0.3599
  148SAPE  H17R16368   3.585  -0.211   9.026 -2.0580  0.5898 -0.0824
  148SAPE  H17S16369   3.667  -0.059   8.982  2.2010 -0.7252 -2.1412
  148SAPE  C21816370   3.646  -0.196   8.814 -0.0779  0.5439  0.0115
  148SAPE  H18R16371   3.584  -0.285   8.789  0.2932  0.3377 -0.1728
  148SAPE  H18S16372   3.749  -0.235   8.818 -0.7329 -1.2308 -0.2214
  148SAPE  C21916373   3.648  -0.089   8.703  0.4647  0.2245  0.2532
  148SAPE  H19R16374   3.544  -0.064   8.673  0.2322 -1.3046 -0.2894
  148SAPE  H19S16375   3.682  -0.142   8.611  0.9201  0.4898  0.2698
  148SAPE  C22016376   3.732   0.039   8.737  0.4934  0.8650  0.3871
  148SAPE  H20R16377   3.837   0.006   8.750  0.1738 -0.3055  0.0612
  148SAPE  H20S16378   3.688   0.085   8.828 -1.3827  1.1383 -0.6388
  148SAPE  H20T16379   3.734   0.116   8.657 -2.7717  0.0451 -0.5761
  148SAPE   C3316380   2.336  -0.169   9.814 -0.5696 -0.1805  0.6871
  148SAPE   H3X16381   2.437  -0.136   9.783 -0.6330  0.5993  1.2894
  148SAPE   H3Y16382   2.273  -0.086   9.853 -0.6779 -0.1505  0.4496
  148SAPE   C3416383   2.259  -0.227   9.699  0.6388 -0.6979 -0.3902
  148SAPE   H4X16384   2.166  -0.280   9.729 -1.5035  2.0249 -1.9065
  148SAPE   H4Y16385   2.310  -0.308   9.643 -0.7128 -0.2579 -2.2792
  148SAPE   C3516386   2.209  -0.130   9.593 -0.0509  0.3917 -0.4490
  148SAPE   H5X16387   2.141  -0.060   9.647 -0.8740 -0.4832 -0.3468
  148SAPE   H5Y16388   2.152  -0.184   9.514 -0.4032 -0.2436  0.2352
  148SAPE   C3616389   2.323  -0.057   9.522  0.7854 -0.0702  0.0647
  148SAPE   H6X16390   2.404  -0.131   9.508 -0.0250 -0.6052 -2.0078
  148SAPE   H6Y16391   2.367   0.020   9.589 -0.3078  0.2636  0.4138
  148SAPE   C3716392   2.267  -0.011   9.385 -0.2598 -0.8030 -0.6481
  148SAPE   H7X16393   2.213   0.086   9.395  1.4625 -0.0838  2.4940
  148SAPE   H7Y16394   2.189  -0.080   9.348 -2.1216 -0.3751  2.3417
  148SAPE   C3816395   2.384  -0.008   9.284 -0.0528 -0.1644 -0.0846
  148SAPE   H8X16396   2.421  -0.107   9.249 -1.0654  0.2740 -2.5321
  148SAPE   H8Y16397   2.468   0.036   9.341 -1.2841  2.0057  0.0882
  148SAPE   C3916398   2.343   0.068   9.155 -0.1423 -0.6910  0.3904
  148SAPE   H9X16399   2.307   0.169   9.184  0.5738 -0.6734  1.2466
  148SAPE   H9Y16400   2.264   0.005   9.109  1.6869 -1.4097 -1.8500
  148SAPE  C31016401   2.476   0.080   9.073 -0.0468  0.0265 -0.1033
  148SAPE  H10X16402   2.497  -0.014   9.019 -1.8252 -0.5917  0.2416
  148SAPE  H10Y16403   2.557   0.117   9.140  1.1052 -2.6572  0.0530
  148SAPE  C31116404   2.477   0.184   8.953 -0.7906  0.0841  0.3124
  148SAPE  H11X16405   2.507   0.282   8.995 -1.8767 -0.2171  1.8443
  148SAPE  H11Y16406   2.374   0.185   8.910 -1.1509  1.4889  1.1705
  148SAPE  C31216407   2.571   0.147   8.836 -0.0687 -0.3204 -1.4526
  148SAPE  H12X16408   2.589   0.235   8.770 -1.6311 -0.1672 -1.6946
  148SAPE  H12Y16409   2.535   0.055   8.784  0.9932 -0.9442 -1.0895
  148SAPE  C31316410   2.716   0.116   8.881  0.4353  0.1739  0.1029
  148SAPE  H13X16411   2.710   0.012   8.918 -3.4832 -0.3972 -1.9007
  148SAPE  H13Y16412   2.746   0.185   8.963  0.4486 -0.3064  0.5000
  148SAPE  C31416413   2.806   0.137   8.763 -0.5251  0.3686  0.0341
  148SAPE  H14X16414   2.804   0.242   8.727  0.5737  0.7713  1.1653
  148SAPE  H14Y16415   2.771   0.078   8.675 -1.7860  0.4311  0.4871
  148SAPE  C31516416   2.950   0.089   8.800  0.0131  0.3674  0.5549
  148SAPE  H15X16417   2.954  -0.014   8.841  1.4922  0.0603 -0.3482
  148SAPE  H15Y16418   2.980   0.150   8.887  0.2020 -0.0464  0.7826
  148SAPE  C31616419   3.049   0.100   8.681  0.8628 -0.5507  0.1086
  148SAPE  H16X16420   3.005   0.030   8.607 -0.8128 -1.3912  1.8285
  148SAPE  H16Y16421   3.143   0.052   8.715  1.1241 -0.2972 -0.2705
  148SAPE  C31716422   3.068   0.238   8.627  0.6924  0.0124  0.4935
  148SAPE  H17X16423   2.970   0.280   8.599  0.7688 -0.3552 -0.3346
  148SAPE  H17Y16424   3.122   0.235   8.530 -0.6443  0.9749 -0.2883
  148SAPE  C31816425   3.137   0.325   8.724 -1.0585 -0.5007  0.0194
  148SAPE  H18X16426   3.087   0.329   8.823 -0.5848  0.4221  0.2280
  148SAPE  H18Y16427   3.146   0.428   8.682  1.9008 -1.7303 -2.5241
  148SAPE  H18Z16428   3.236   0.281   8.747 -0.0047  2.0195  0.4630
  149SAPE     N16429   4.945   2.614  11.482  0.6212 -0.8327 -0.5304
  149SAPE   HN116430   4.851   2.621  11.527  1.0927  1.6789  0.1360
  149SAPE   HN216431   5.020   2.636  11.551  0.5044  0.1307 -0.7058
  149SAPE   HN316432   4.937   2.692  11.414  0.6866  0.9639  1.4477
  149SAPE   C1216433   4.948   2.474  11.418 -0.0613  0.2638 -0.3537
  149SAPE  H12A16434   4.872   2.466  11.336 -0.5085  1.4835 -0.0640
  149SAPE  H12B16435   4.924   2.405  11.502  1.8071  0.5504  0.4395
  149SAPE   C1116436   5.085   2.446  11.346 -0.4503 -0.5502  0.9285
  149SAPE  H11A16437   5.082   2.340  11.311 -0.6903  0.4004 -2.0498
  149SAPE  H11B16438   5.167   2.474  11.416  0.5111  0.1521 -0.4716
  149SAPE     P16439   5.055   2.532  11.095  0.1263  0.2507 -0.2399
  149SAPE   O1316440   4.909   2.551  11.087 -0.0921  0.5723 -0.3187
  149SAPE   O1416441   5.134   2.626  11.016 -0.4207  0.2836 -0.1346
  149SAPE   O1216442   5.101   2.547  11.243  0.0288 -0.7321 -0.2967
  149SAPE   O1116443   5.097   2.384  11.049 -0.2434 -0.4450  0.2600
  149SAPE    C116444   5.008   2.322  10.950  0.2661  0.4691 -0.3108
  149SAPE    HA16445   5.019   2.211  10.954 -0.4664  0.4410  1.7100
  149SAPE    HB16446   4.900   2.345  10.964  0.3628  0.6956  0.0888
  149SAPE    C216447   5.048   2.360  10.808  0.5685 -0.0508 -0.1182
  149SAPE    HS16448   5.037   2.470  10.801 -1.0779 -0.0907  1.3962
  149SAPE   O2116449   4.960   2.297  10.711  0.2050 -0.9616 -0.0587
  149SAPE   C2116450   4.832   2.327  10.710 -0.1575  0.2855  0.3118
  149SAPE   O2216451   4.778   2.411  10.777 -0.7835 -0.2002 -0.4767
  149SAPE   C2216452   4.758   2.248  10.610  0.2483  0.1852 -0.2234
  149SAPE   H2R16453   4.680   2.189  10.664  0.8201  0.9612  1.5015
  149SAPE   H2S16454   4.709   2.323  10.544 -0.3356  1.8731  2.0583
  149SAPE    C316455   5.189   2.313  10.784  0.2652 -0.0695 -0.0217
  149SAPE    HX16456   5.254   2.377  10.847  0.6535  1.2796 -1.7680
  149SAPE    HY16457   5.213   2.342  10.680 -0.9041 -1.1184 -0.5845
  149SAPE   O3116458   5.206   2.176  10.808 -0.2588 -0.0376 -0.1866
  149SAPE   C3116459   5.274   2.101  10.715 -0.4585  0.8548 -0.2823
  149SAPE   O3216460   5.332   2.153  10.624 -0.3641  0.0584 -0.0886
  149SAPE   C3216461   5.251   1.953  10.756  0.7282  0.0435 -0.3571
  149SAPE   H2X16462   5.142   1.943  10.776  0.7061  0.6862 -0.1568
  149SAPE   H2Y16463   5.302   1.933  10.852  2.8969 -3.6559 -2.1799
  149SAPE   C2316464   4.838   2.153  10.520  0.3453 -0.8306  0.3892
  149SAPE   H3R16465   4.930   2.199  10.478  0.1216  0.8247  1.6557
  149SAPE   H3S16466   4.787   2.136  10.422 -0.3461  1.9175  0.2256
  149SAPE   C2416467   4.880   2.027  10.586 -0.0529 -0.3228  0.8836
  149SAPE   H4R16468   4.935   2.047  10.680 -1.0234 -0.0508  1.3881
  149SAPE   H4S16469   4.948   1.972  10.517 -1.3120  2.0197 -2.3612
  149SAPE   C2516470   4.762   1.928  10.607  0.1087  0.3951  0.3279
  149SAPE   H5R16471   4.712   1.926  10.705 -0.6548  1.0308 -0.0467
  149SAPE   C2616472   4.718   1.845  10.512  0.6298 -0.6939 -0.3813
  149SAPE   H6R16473   4.642   1.771  10.539  1.0939 -1.5719 -1.4148
  149SAPE   C2716474   4.767   1.832  10.371 -0.6126  0.8523 -0.0129
  149SAPE   H7R16475   4.792   1.725  10.361  2.1595  1.3215  1.3575
  149SAPE   H7S16476   4.857   1.890  10.342 -0.4343 -0.4874 -2.2193
  149SAPE   C2816477   4.665   1.869  10.266 -0.0396  0.4897  0.4624
  149SAPE   H8R16478   4.559   1.858  10.295  0.0897 -1.2850  0.2940
  149SAPE   C2916479   4.686   1.891  10.132  0.2287 -0.0055 -0.3388
  149SAPE   H9R16480   4.601   1.926  10.071 -1.8875 -5.2869 -0.6717
  149SAPE  C21016481   4.818   1.884  10.060 -0.4470  0.3522 -0.7236
  149SAPE  H10R16482   4.881   1.940  10.133 -0.7537 -1.7789  1.2574
  149SAPE  H10S16483   4.810   1.946   9.968 -2.8707 -1.2844 -1.6678
  149SAPE  C21116484   4.881   1.753  10.027  0.4437  0.4436  0.7674
  149SAPE  H11R16485   4.870   1.680  10.108  0.7854  0.8145  1.1550
  149SAPE  C21216486   4.924   1.698   9.908  0.3985 -0.5821 -0.3487
  149SAPE  H12R16487   4.954   1.592   9.909  0.1597 -0.6458  0.1921
  149SAPE  C21316488   4.926   1.773   9.779 -0.2871 -0.1960 -0.4189
  149SAPE  H13R16489   4.922   1.883   9.793 -1.3486 -0.1963 -0.7111
  149SAPE  H13S16490   4.834   1.747   9.723  0.4415 -0.7322 -1.3791
  149SAPE  C21416491   5.059   1.745   9.706  0.2678 -0.2162  0.4583
  149SAPE  H14R16492   5.152   1.764   9.761  1.7768 -1.5543 -1.5538
  149SAPE  C21516493   5.067   1.672   9.591  0.2900  0.0627 -0.4443
  149SAPE  H15R16494   5.165   1.642   9.549  0.0096 -0.4847 -0.7083
  149SAPE  C21616495   4.953   1.618   9.516 -0.8159  0.5697  0.2211
  149SAPE  H16R16496   4.866   1.592   9.580 -2.0206  1.6342 -0.9360
  149SAPE  H16S16497   4.980   1.521   9.469  1.0225  0.3833  1.6250
  149SAPE  C21716498   4.899   1.712   9.415 -0.6325 -0.2212  0.0168
  149SAPE  H17R16499   4.856   1.804   9.460  0.7680 -0.4563  1.8454
  149SAPE  H17S16500   4.814   1.658   9.368 -1.3702  0.5337  0.4747
  149SAPE  C21816501   4.984   1.754   9.301 -0.0004  0.1140 -0.0373
  149SAPE  H18R16502   5.015   1.664   9.244 -0.9735 -0.7556  0.7990
  149SAPE  H18S16503   5.078   1.793   9.346 -1.2159 -0.2469  2.9276
  149SAPE  C21916504   4.928   1.851   9.196  0.9380  0.4678 -0.2902
  149SAPE  H19R16505   4.885   1.941   9.244  0.0603  0.4406 -1.0022
  149SAPE  H19S16506   4.842   1.803   9.143  1.0734  0.2375 -0.3036
  149SAPE  C22016507   5.020   1.877   9.085 -0.4285 -0.3226 -0.0682
  149SAPE  H20R16508   4.967   1.927   9.002 -0.3146  0.3044  0.2378
  149SAPE  H20S16509   5.056   1.783   9.036  0.9502  0.7638 -1.1944
  149SAPE  H20T16510   5.107   1.941   9.112 -1.7988  1.5646 -0.1057
  149SAPE   C3316511   5.299   1.847  10.650 -0.3900  0.2002 -0.3663
  149SAPE   H3X16512   5.271   1.749  10.695  0.9994  0.0134  0.1223
  149SAPE   H3Y16513   5.406   1.856  10.622 -0.7183  0.4461 -1.5872
  149SAPE   C3416514   5.227   1.852  10.512 -0.7568  0.0893 -0.3168
  149SAPE   H4X16515   5.257   1.952  10.474  2.8216 -0.2390  1.4517
  149SAPE   H4Y16516   5.117   1.842  10.527 -0.5413  1.4488  2.4739
  149SAPE   C3516517   5.262   1.744  10.411 -0.1125 -0.4398  0.5966
  149SAPE   H5X16518   5.260   1.649  10.468 -0.9750 -0.8462 -0.1064
  149SAPE   H5Y16519   5.364   1.761  10.369 -0.7518  0.4898 -0.6173
  149SAPE   C3616520   5.171   1.736  10.289  1.3135 -0.9534  0.7345
  149SAPE   H6X16521   5.172   1.836  10.241 -0.2552 -2.2714 -2.1851
  149SAPE   H6Y16522   5.067   1.713  10.322  1.1233 -0.4422  0.5021
  149SAPE   C3716523   5.220   1.625  10.194  0.2302  0.4399 -0.3614
  149SAPE   H7X16524   5.136   1.603  10.125  1.0247 -0.6897 -0.9648
  149SAPE   H7Y16525   5.249   1.534  10.251  1.4240  1.8919  1.4101
  149SAPE   C3816526   5.338   1.669  10.104  0.5446 -0.7555  0.2614
  149SAPE   H8X16527   5.441   1.641  10.137  0.3602 -1.4136  0.2913
  149SAPE   H8Y16528   5.341   1.780  10.102 -0.8454 -0.7084  0.2337
  149SAPE   C3916529   5.325   1.611   9.962  0.2907 -0.3997 -0.3508
  149SAPE   H9X16530   5.234   1.659   9.921  1.4878  2.0318 -0.2558
  149SAPE   H9Y16531   5.320   1.500   9.962 -1.2079 -0.3476  0.7731
  149SAPE  C31016532   5.439   1.653   9.880  0.7180 -0.3202  0.0904
  149SAPE  H10X16533   5.539   1.621   9.919 -0.7518 -2.6502  2.0897
  149SAPE  H10Y16534   5.448   1.764   9.877  1.9088 -0.3809  0.8988
  149SAPE  C31116535   5.414   1.601   9.739 -0.1033  0.2967  0.5587
  149SAPE  H11X16536   5.307   1.624   9.723 -0.2795 -0.3442  0.8006
  149SAPE  H11Y16537   5.438   1.492   9.741 -1.3991  0.0086  0.8797
  149SAPE  C31216538   5.494   1.671   9.627  0.1675  0.1674  0.2444
  149SAPE  H12X16539   5.515   1.777   9.652 -1.9626  0.6254  0.1653
  149SAPE  H12Y16540   5.437   1.668   9.532 -0.9996 -3.2057  0.9757
  149SAPE  C31316541   5.627   1.594   9.610  0.4359 -0.1854  0.2117
  149SAPE  H13X16542   5.610   1.484   9.603 -1.5239  0.2239 -2.3999
  149SAPE  H13Y16543   5.695   1.610   9.696  0.3185  1.4423  0.0256
  149SAPE  C31416544   5.687   1.645   9.480 -0.4984 -0.7782  0.2296
  149SAPE  H14X16545   5.730   1.747   9.491 -1.9020 -0.4648  3.5123
  149SAPE  H14Y16546   5.610   1.644   9.400  2.6675 -2.1672 -2.8784
  149SAPE  C31516547   5.803   1.561   9.429 -0.6068  0.3999  0.1501
  149SAPE  H15X16548   5.754   1.463   9.410 -0.2140 -0.0340  1.3274
  149SAPE  H15Y16549   5.889   1.554   9.499 -0.1085  0.4364 -0.4531
  149SAPE  C31616550   5.854   1.619   9.299  0.5306  0.6415 -0.0025
  149SAPE  H16X16551   5.884   1.726   9.302 -2.4823  1.6851 -3.3706
  149SAPE  H16Y16552   5.766   1.619   9.231  3.9183 -0.2183 -4.6221
  149SAPE  C31716553   5.956   1.530   9.221 -0.3877  0.4135 -0.7809
  149SAPE  H17X16554   5.940   1.420   9.213  1.4838  0.1471 -1.1621
  149SAPE  H17Y16555   6.052   1.536   9.277  0.5224 -0.4072 -2.1909
  149SAPE  C31816556   5.981   1.573   9.069 -1.2279  0.7820 -0.5328
  149SAPE  H18X16557   6.060   1.511   9.022 -1.2524 -1.5918  2.4642
  149SAPE  H18Y16558   6.011   1.679   9.055  1.2260 -0.0031 -1.3347
  149SAPE  H18Z16559   5.884   1.545   9.022 -0.8212  0.7902 -1.3816
  150SAPE     N16560   6.476   1.409  10.639  0.1025 -0.1992 -0.5341
  150SAPE   HN116561   6.566   1.450  10.673  0.9511 -0.4897 -2.3958
  150SAPE   HN216562   6.484   1.309  10.611  3.3531  0.4318 -2.0949
  150SAPE   HN316563   6.445   1.472  10.563 -1.1175  0.9351  0.8704
  150SAPE   C1216564   6.382   1.430  10.749 -0.6487 -0.1759 -0.7975
  150SAPE  H12A16565   6.277   1.428  10.711 -1.9254 -1.5465  2.6336
  150SAPE  H12B16566   6.401   1.536  10.776  0.1201 -0.4572 -0.2456
  150SAPE   C1116567   6.404   1.335  10.864  0.7163 -0.7813 -0.3490
  150SAPE  H11A16568   6.320   1.351  10.935  1.0114 -0.1168 -0.1379
  150SAPE  H11B16569   6.495   1.373  10.915  0.6827  0.3580 -1.1214
  150SAPE     P16570   6.460   1.093  10.914  0.0601  0.1815  0.2090
  150SAPE   O1316571   6.590   1.129  10.969 -0.3889  0.0140  0.3653
  150SAPE   O1416572   6.360   1.062  11.017 -0.0575 -0.4032  0.5933
  150SAPE   O1216573   6.403   1.202  10.814  0.9266 -0.0771 -0.3488
  150SAPE   O1116574   6.466   0.964  10.823  0.1416 -0.4294  0.0184
  150SAPE    C116575   6.600   0.921  10.787  0.2922 -0.8920  0.4077
  150SAPE    HA16576   6.676   0.937  10.867 -2.1220 -1.1039  2.8318
  150SAPE    HB16577   6.599   0.810  10.778 -1.8529 -0.7615 -1.1418
  150SAPE    C216578   6.670   0.969  10.651  0.6290 -0.2428 -0.4478
  150SAPE    HS16579   6.695   1.077  10.663 -0.2210  0.3013 -3.1666
  150SAPE   O2116580   6.578   0.937  10.547 -0.0925  0.4985  0.2248
  150SAPE   C2116581   6.501   1.040  10.499  0.3998  0.4357  0.8112
  150SAPE   O2216582   6.531   1.155  10.521  1.0251 -0.0933  0.0263
  150SAPE   C2216583   6.368   0.992  10.426 -0.3452  0.4699 -0.3878
  150SAPE   H2R16584   6.288   1.001  10.503 -1.9482  1.3569 -2.1036
  150SAPE   H2S16585   6.341   1.071  10.353  0.1574  1.1183  0.1195
  150SAPE    C316586   6.805   0.899  10.631  0.9256  0.3432 -0.2369
  150SAPE    HX16587   6.780   0.792  10.646  2.3882 -0.3657 -2.5272
  150SAPE    HY16588   6.868   0.926  10.718  1.3253  1.5523 -0.8856
  150SAPE   O3116589   6.861   0.942  10.501  0.5257  0.0705 -0.3022
  150SAPE   C3116590   6.947   0.860  10.447  0.4051  0.0671  0.3608
  150SAPE   O3216591   6.976   0.751  10.493  0.1650  0.3762  0.0956
  150SAPE   C3216592   7.024   0.926  10.330  0.2117  0.1418  0.0445
  150SAPE   H2X16593   7.133   0.923  10.351  0.6422  1.5601 -1.8312
  150SAPE   H2Y16594   6.993   1.033  10.334  1.3208  0.4725 -0.1832
  150SAPE   C2316595   6.375   0.849  10.374 -0.3900 -0.1721 -0.3082
  150SAPE   H3R16596   6.412   0.792  10.461  0.4178  0.9095  0.0634
  150SAPE   H3S16597   6.446   0.846  10.289 -1.8102  0.1006 -1.5174
  150SAPE   C2416598   6.231   0.800  10.334  0.0975 -0.0001 -0.3827
  150SAPE   H4R16599   6.200   0.849  10.239  0.7954  1.3065  0.0444
  150SAPE   H4S16600   6.163   0.828  10.417  1.0608  1.3359 -0.0348
  150SAPE   C2516601   6.213   0.652  10.326 -0.2969 -0.3303 -0.4769
  150SAPE   H5R16602   6.137   0.616  10.397 -0.1854  1.8256  0.7759
  150SAPE   C2616603   6.262   0.576  10.230  0.2192  0.1472 -0.1017
  150SAPE   H6R16604   6.232   0.470  10.233 -0.0932  0.2836  2.4324
  150SAPE   C2716605   6.339   0.631  10.108 -0.4127  0.4227 -0.7450
  150SAPE   H7R16606   6.382   0.539  10.063  0.6166 -0.1690  1.3782
  150SAPE   H7S16607   6.429   0.679  10.152  0.4146 -1.0241 -0.8216
  150SAPE   C2816608   6.271   0.699   9.996  0.4417 -0.6637 -0.1619
  150SAPE   H8R16609   6.164   0.715  10.016  0.3839 -0.5248 -0.5970
  150SAPE   C2916610   6.325   0.755   9.889  0.1235  0.2683 -0.2625
  150SAPE   H9R16611   6.258   0.808   9.820 -0.4725 -0.2073 -0.0525
  150SAPE  C21016612   6.471   0.758   9.851 -0.1512  1.4060 -0.5720
  150SAPE  H10R16613   6.488   0.664   9.795  2.0606  1.9096 -0.7873
  150SAPE  H10S16614   6.545   0.764   9.934  2.2124  1.4921 -2.6390
  150SAPE  C21116615   6.499   0.874   9.762  1.1804 -0.5265  0.0373
  150SAPE  H11R16616   6.477   0.970   9.811  1.0066 -0.8979  0.6842
  150SAPE  C21216617   6.536   0.861   9.626  0.3560 -0.1544  0.4885
  150SAPE  H12R16618   6.561   0.952   9.569  1.4875 -0.6748  0.1310
  150SAPE  C21316619   6.570   0.734   9.558 -0.3596 -0.3633 -0.4059
  150SAPE  H13R16620   6.478   0.697   9.508 -1.4966  1.4216  0.3443
  150SAPE  H13S16621   6.595   0.660   9.637  1.3737 -1.4040 -1.8749
  150SAPE  C21416622   6.689   0.741   9.463  0.6148 -0.4820 -0.4514
  150SAPE  H14R16623   6.776   0.795   9.503  1.8573 -0.8653 -2.5856
  150SAPE  C21516624   6.693   0.712   9.330 -0.3671  0.1217  0.4570
  150SAPE  H15R16625   6.789   0.723   9.277 -0.0239 -0.9271  0.8442
  150SAPE  C21616626   6.580   0.662   9.246 -0.3225  0.3067  0.4725
  150SAPE  H16R16627   6.517   0.593   9.306  1.9018 -0.3733  2.1027
  150SAPE  H16S16628   6.623   0.603   9.162  0.0010  0.3932  0.5799
  150SAPE  C21716629   6.501   0.777   9.173  0.5329 -0.1653 -0.0394
  150SAPE  H17R16630   6.572   0.842   9.118 -0.6375  0.7020 -0.5430
  150SAPE  H17S16631   6.452   0.839   9.252  1.4382 -1.3296  1.4742
  150SAPE  C21816632   6.386   0.716   9.090 -0.2440 -0.2608  0.3392
  150SAPE  H18R16633   6.416   0.638   9.017 -0.3072 -1.3081  1.4217
  150SAPE  H18S16634   6.342   0.798   9.029 -0.9190 -0.3539  0.6897
  150SAPE  C21916635   6.264   0.673   9.182  0.1874  0.2257 -0.3029
  150SAPE  H19R16636   6.225   0.750   9.252  0.2970 -0.7496  0.8581
  150SAPE  H19S16637   6.315   0.594   9.242  0.0440 -0.9800 -1.7268
  150SAPE  C22016638   6.139   0.619   9.111  0.3382  0.1893  0.0373
  150SAPE  H20R16639   6.165   0.532   9.046  1.1890  1.2195 -1.0210
  150SAPE  H20S16640   6.107   0.699   9.041  2.4139  0.5992 -0.4720
  150SAPE  H20T16641   6.059   0.592   9.183 -0.9748  4.0960  0.1548
  150SAPE   C3316642   7.002   0.861  10.192 -0.7400 -0.2989  0.1079
  150SAPE   H3X16643   6.894   0.875  10.171 -0.4789  0.2524 -0.9244
  150SAPE   H3Y16644   7.031   0.753  10.193  1.2006  0.2171  0.4907
  150SAPE   C3416645   7.065   0.934  10.069 -0.4979 -0.1634 -0.3744
  150SAPE   H4X16646   7.174   0.910  10.079 -0.5173 -0.7643 -1.4936
  150SAPE   H4Y16647   7.043   1.042  10.074  0.6857  0.0115  1.8124
  150SAPE   C3516648   7.015   0.880   9.935 -0.6414  0.1973 -0.2163
  150SAPE   H5X16649   6.906   0.901   9.936 -0.4655  1.0992  0.9818
  150SAPE   H5Y16650   7.029   0.770   9.925 -0.6335  0.3367 -1.7651
  150SAPE   C3616651   7.070   0.949   9.806 -0.2268  0.1403 -0.6126
  150SAPE   H6X16652   7.177   0.920   9.800 -0.0851 -0.4572  3.4294
  150SAPE   H6Y16653   7.060   1.060   9.795 -1.1667  0.1054 -0.1756
  150SAPE   C3716654   6.988   0.907   9.687  1.1226  0.1088  0.0441
  150SAPE   H7X16655   7.008   0.979   9.604  1.5023  0.2456  0.2538
  150SAPE   H7Y16656   6.880   0.901   9.713  1.6437 -3.5143  1.6530
  150SAPE   C3816657   7.035   0.770   9.631 -0.1891  0.5309 -0.4230
  150SAPE   H8X16658   6.959   0.689   9.639  2.3723 -2.0556 -1.1754
  150SAPE   H8Y16659   7.122   0.730   9.689 -0.7060  1.9550  1.3639
  150SAPE   C3916660   7.083   0.798   9.494 -0.0613  0.5810 -0.3485
  150SAPE   H9X16661   7.167   0.869   9.506 -1.5912  2.6800 -1.6366
  150SAPE   H9Y16662   7.007   0.855   9.435  0.4984 -0.9988 -2.6540
  150SAPE  C31016663   7.109   0.669   9.411 -0.7902  0.2395 -0.6630
  150SAPE  H10X16664   7.013   0.616   9.421  0.3270 -1.5336  0.9718
  150SAPE  H10Y16665   7.193   0.611   9.455  0.3990  2.7512  0.5475
  150SAPE  C31116666   7.139   0.693   9.259 -0.5172 -0.6473  0.5577
  150SAPE  H11X16667   7.240   0.736   9.241 -1.2005  1.0598  0.7052
  150SAPE  H11Y16668   7.060   0.754   9.210 -0.3427 -1.3582 -0.6220
  150SAPE  C31216669   7.106   0.563   9.170  0.4892  0.2445 -0.4008
  150SAPE  H12X16670   7.009   0.515   9.195 -0.7998  0.9346 -3.7633
  150SAPE  H12Y16671   7.191   0.494   9.185  0.8670  1.1309  1.7795
  150SAPE  C31316672   7.083   0.606   9.020  0.9085 -0.4528  0.1490
  150SAPE  H13X16673   7.164   0.674   8.988 -2.2945  2.7261 -1.6040
  150SAPE  H13Y16674   6.991   0.667   9.006  1.5548  0.2120 -1.2116
  150SAPE  C31416675   7.051   0.487   8.930 -0.2740  0.2668  0.2088
  150SAPE  H14X16676   6.946   0.457   8.954 -0.7595  2.0188  0.3504
  150SAPE  H14Y16677   7.117   0.403   8.960 -0.7757  0.2959  1.4558
  150SAPE  C31516678   7.075   0.524   8.786 -0.3756 -0.1585  0.8298
  150SAPE  H15X16679   7.009   0.607   8.754 -1.1994 -0.8636  0.6886
  150SAPE  H15Y16680   7.050   0.431   8.729 -1.0580  0.5488 -0.0467
  150SAPE  C31616681   7.218   0.570   8.744 -0.1725 -1.0087  0.1113
  150SAPE  H16X16682   7.304   0.511   8.782 -1.4564 -0.8204  3.4455
  150SAPE  H16Y16683   7.226   0.672   8.788 -0.2126 -1.7791  1.9422
  150SAPE  C31716684   7.227   0.575   8.593  0.5095  0.0882 -1.2574
  150SAPE  H17X16685   7.153   0.648   8.553 -0.1263 -0.0962 -0.4226
  150SAPE  H17Y16686   7.205   0.471   8.561  0.4983 -1.2476  2.8178
  150SAPE  C31816687   7.363   0.604   8.533 -0.0294  0.6715  0.3661
  150SAPE  H18X16688   7.379   0.549   8.438 -0.0731 -0.8760  1.2354
  150SAPE  H18Y16689   7.445   0.567   8.599  1.1786  1.4729 -0.6513
  150SAPE  H18Z16690   7.384   0.712   8.520  0.8489  0.2822 -1.5730
  151SAPE     N16691   3.935   4.911  10.506 -0.5249  0.1080  0.2629
  151SAPE   HN116692   3.900   4.952  10.594 -0.1402  1.4055 -0.1794
  151SAPE   HN216693   3.901   4.813  10.501 -1.2758  0.4133 -0.8922
  151SAPE   HN316694   4.039   4.907  10.506 -0.5493 -0.8563 -0.4342
  151SAPE   C1216695   3.875   4.987  10.395 -0.0188  0.0423  0.3057
  151SAPE  H12A16696   3.779   5.028  10.433  0.9026  0.9395  1.7188
  151SAPE  H12B16697   3.849   4.914  10.315 -1.7893  1.6170 -0.5932
  151SAPE   C1116698   3.965   5.098  10.347 -0.1277  0.0992  0.8024
  151SAPE  H11A16699   3.926   5.130  10.249  1.2606 -1.4225 -0.2874
  151SAPE  H11B16700   4.059   5.045  10.320 -1.3646 -1.7545  0.0325
  151SAPE     P16701   3.946   5.352  10.423 -0.1665  0.0123 -0.4879
  151SAPE   O1316702   3.800   5.369  10.445  0.2871  0.5201  0.4217
  151SAPE   O1416703   4.026   5.444  10.507 -0.1837  0.2479 -0.1529
  151SAPE   O1216704   3.984   5.198  10.441 -0.0904 -0.0961  0.1149
  151SAPE   O1116705   3.989   5.368  10.273 -0.3410  0.3864  0.0697
  151SAPE    C116706   4.129   5.385  10.242 -0.6507  0.2369 -0.1315
  151SAPE    HA16707   4.169   5.479  10.286 -0.6727  0.6279 -0.9518
  151SAPE    HB16708   4.197   5.305  10.280  0.2589 -0.7905 -3.7767
  151SAPE    C216709   4.161   5.403  10.091 -0.6054 -0.0635  0.0937
  151SAPE    HS16710   4.269   5.426  10.097 -0.6312 -0.3277  2.0538
  151SAPE   O2116711   4.085   5.513  10.043 -0.4678  0.0109 -0.4031
  151SAPE   C2116712   4.120   5.634  10.085 -0.3134 -0.2371  0.0356
  151SAPE   O2216713   4.220   5.658  10.142 -0.1471 -0.1761  0.4585
  151SAPE   C2216714   4.021   5.742  10.034  0.4530 -0.3250  0.1098
  151SAPE   H2R16715   3.929   5.684  10.011  0.7771 -0.6411 -0.4012
  151SAPE   H2S16716   4.009   5.806  10.124 -1.2984 -0.9267  0.3230
  151SAPE    C316717   4.127   5.275  10.007  0.4884 -0.1897  0.1131
  151SAPE    HX16718   4.019   5.248  10.014  0.3035  0.1251 -1.2998
  151SAPE    HY16719   4.189   5.193  10.051 -0.6731 -1.2075 -0.1110
  151SAPE   O3116720   4.151   5.275   9.857 -0.8872  0.0370  0.2711
  151SAPE   C3116721   4.272   5.233   9.818 -0.8700 -0.0975 -0.2484
  151SAPE   O3216722   4.355   5.200   9.897 -0.1950  0.2138  0.3091
  151SAPE   C3216723   4.283   5.234   9.666 -0.1689 -0.8374  0.7781
  151SAPE   H2X16724   4.223   5.311   9.614  2.2762  0.2129 -0.6121
  151SAPE   H2Y16725   4.247   5.133   9.637  2.6608 -1.6048 -0.2955
  151SAPE   C2316726   4.088   5.816   9.917 -0.0272  1.2484 -0.3155
  151SAPE   H3R16727   4.185   5.859   9.951 -0.3054  1.3462  0.3593
  151SAPE   H3S16728   4.024   5.901   9.885  0.3864  1.5273 -0.4084
  151SAPE   C2416729   4.094   5.729   9.786 -0.3945 -0.3512 -0.5169
  151SAPE   H4R16730   3.989   5.702   9.763 -1.2824  1.7118  0.9834
  151SAPE   H4S16731   4.140   5.631   9.814 -0.8238 -0.4142 -0.0155
  151SAPE   C2516732   4.165   5.782   9.670 -0.2232  0.2235 -0.1657
  151SAPE   H5R16733   4.249   5.849   9.693 -0.5800  0.8532 -0.6671
  151SAPE   C2616734   4.140   5.755   9.546 -0.1159  0.7330 -0.1581
  151SAPE   H6R16735   4.194   5.814   9.470  0.5366 -0.8088 -0.9233
  151SAPE   C2716736   4.036   5.663   9.491 -0.4607  0.4208  0.1742
  151SAPE   H7R16737   3.951   5.718   9.446 -1.6130 -0.6075  1.0426
  151SAPE   H7S16738   3.982   5.609   9.572 -0.0365 -0.5866 -0.2013
  151SAPE   C2816739   4.088   5.565   9.390  0.5035 -0.8557  0.2199
  151SAPE   H8R16740   4.195   5.556   9.370  0.5412  3.3562 -2.2944
  151SAPE   C2916741   4.012   5.479   9.309 -0.5534 -0.8051 -0.4784
  151SAPE   H9R16742   4.062   5.424   9.227  1.5272 -0.5482  0.5893
  151SAPE  C21016743   3.862   5.471   9.320  0.0942  0.2739 -0.0564
  151SAPE  H10R16744   3.819   5.523   9.408  0.3322  0.7692 -0.2320
  151SAPE  H10S16745   3.835   5.364   9.333  0.0825  0.3767  0.7668
  151SAPE  C21116746   3.782   5.514   9.197 -0.6433 -0.9274 -0.5356
  151SAPE  H11R16747   3.738   5.613   9.216  1.6208 -0.0477  0.3655
  151SAPE  C21216748   3.784   5.468   9.071  0.1571  0.1091  0.0050
  151SAPE  H12R16749   3.729   5.520   8.991 -0.7696 -1.4677 -0.3993
  151SAPE  C21316750   3.849   5.342   9.022 -0.1421  0.1402  0.3212
  151SAPE  H13R16751   3.956   5.343   9.053  0.2685 -0.3557 -1.0326
  151SAPE  H13S16752   3.861   5.359   8.913  0.7263 -2.1469  0.0199
  151SAPE  C21416753   3.788   5.204   9.049  0.2787  0.4954  1.0171
  151SAPE  H14R16754   3.801   5.176   9.154 -2.0485  1.6250  1.6440
  151SAPE  C21516755   3.719   5.127   8.957  0.1011 -0.0847 -0.3994
  151SAPE  H15R16756   3.680   5.033   9.000 -0.6612  0.9345  1.1997
  151SAPE  C21616757   3.700   5.151   8.812  0.3790 -0.1790 -0.0048
  151SAPE  H16R16758   3.690   5.261   8.795  0.3193  0.0804  1.6509
  151SAPE  H16S16759   3.603   5.108   8.781 -0.0670 -0.0267  1.1502
  151SAPE  C21716760   3.804   5.094   8.708  0.0014  0.9274  0.0822
  151SAPE  H17R16761   3.904   5.092   8.756  0.8511  2.0228 -1.6065
  151SAPE  H17S16762   3.815   5.161   8.620  1.6144 -0.1688 -0.5539
  151SAPE  C21816763   3.774   4.958   8.647  0.0273  0.1058 -0.2647
  151SAPE  H18R16764   3.675   4.958   8.596  0.6030 -0.1601 -1.3954
  151SAPE  H18S16765   3.745   4.893   8.732  0.8167 -1.2935 -1.0534
  151SAPE  C21916766   3.881   4.907   8.550  0.1633 -0.5713 -0.8924
  151SAPE  H19R16767   3.895   4.797   8.541 -1.7996 -0.8443 -0.7830
  151SAPE  H19S16768   3.976   4.944   8.595  0.7286 -0.6584 -1.9932
  151SAPE  C22016769   3.876   4.977   8.409  0.0481 -0.1685  0.4101
  151SAPE  H20R16770   3.784   4.939   8.360  1.0172 -1.0045 -0.7695
  151SAPE  H20S16771   3.965   4.950   8.348 -0.7561 -1.2517 -0.2833
  151SAPE  H20T16772   3.876   5.086   8.432  0.8035 -0.7284  3.1973
  151SAPE   C3316773   4.428   5.245   9.596 -0.2021 -0.0432  0.8502
  151SAPE   H3X16774   4.480   5.148   9.610 -0.8006 -0.5754 -0.5489
  151SAPE   H3Y16775   4.488   5.323   9.648  1.2206  1.1286 -2.4129
  151SAPE   C3416776   4.433   5.263   9.444  0.0060  0.5343  0.1933
  151SAPE   H4X16777   4.540   5.265   9.414 -0.2295  1.9565 -0.6231
  151SAPE   H4Y16778   4.386   5.360   9.416  2.0254  0.3740 -4.1398
  151SAPE   C3516779   4.373   5.150   9.367 -0.4240 -0.1153 -0.0577
  151SAPE   H5X16780   4.264   5.171   9.375 -0.5872 -2.0191  3.4821
  151SAPE   H5Y16781   4.391   5.049   9.410 -1.1282  0.8342  2.5110
  151SAPE   C3616782   4.424   5.144   9.217 -0.6841  0.2576 -0.4296
  151SAPE   H6X16783   4.531   5.113   9.216 -0.9116 -0.5331 -0.3130
  151SAPE   H6Y16784   4.415   5.248   9.178 -0.3741 -0.0053 -1.2243
  151SAPE   C3716785   4.358   5.032   9.138  0.0759  0.3589 -0.2031
  151SAPE   H7X16786   4.352   4.944   9.205  3.5015  2.1027  2.5949
  151SAPE   H7Y16787   4.428   5.012   9.054 -1.0501 -1.0615 -0.8149
  151SAPE   C3816788   4.222   5.066   9.077 -0.3767  0.7577 -0.0541
  151SAPE   H8X16789   4.158   5.096   9.162  0.0966 -1.4466  1.1210
  151SAPE   H8Y16790   4.180   4.975   9.028  3.0031 -0.0223 -1.6438
  151SAPE   C3916791   4.219   5.167   8.957 -0.1580  0.9777  1.1386
  151SAPE   H9X16792   4.283   5.254   8.984  1.3339  0.4222 -0.5406
  151SAPE   H9Y16793   4.116   5.209   8.949 -0.7167 -0.2209  1.9204
  151SAPE  C31016794   4.261   5.094   8.827 -0.1399 -0.6443  0.0397
  151SAPE  H10X16795   4.186   5.014   8.808 -1.8870  1.0565 -0.4154
  151SAPE  H10Y16796   4.359   5.044   8.838  0.0867 -0.0498  0.7678
  151SAPE  C31116797   4.247   5.184   8.703  0.3127 -0.2772 -0.1509
  151SAPE  H11X16798   4.304   5.273   8.740 -0.7561 -0.2401  1.4580
  151SAPE  H11Y16799   4.143   5.220   8.690  0.8819  0.7620 -2.0801
  151SAPE  C31216800   4.311   5.124   8.577 -0.3596 -0.0513 -0.0532
  151SAPE  H12X16801   4.386   5.049   8.608 -0.4016  0.0688  0.3497
  151SAPE  H12Y16802   4.345   5.203   8.507 -2.6346  0.8308 -0.2158
  151SAPE  C31316803   4.214   5.056   8.479  0.5721 -0.0139  0.4375
  151SAPE  H13X16804   4.131   5.126   8.457  2.7160  2.8412  1.0627
  151SAPE  H13Y16805   4.166   4.970   8.530 -0.1914  0.2258  0.1299
  151SAPE  C31416806   4.278   5.009   8.351 -0.0518  0.3260  0.2701
  151SAPE  H14X16807   4.214   4.925   8.317 -1.9001  1.0242  1.9170
  151SAPE  H14Y16808   4.384   4.978   8.357 -0.3535 -0.5750  1.2305
  151SAPE  C31516809   4.288   5.126   8.255  0.6719 -1.0384 -0.3109
  151SAPE  H15X16810   4.338   5.215   8.297 -1.4128  0.2292 -0.4547
  151SAPE  H15Y16811   4.184   5.158   8.232  0.0613 -1.3858  1.8580
  151SAPE  C31616812   4.369   5.083   8.128 -0.2304 -0.1621 -0.1934
  151SAPE  H16X16813   4.334   4.988   8.082  0.9094 -0.0727 -1.2653
  151SAPE  H16Y16814   4.477   5.064   8.147 -0.5573 -1.4899  0.3980
  151SAPE  C31716815   4.360   5.194   8.023 -0.1150  0.3332  0.2485
  151SAPE  H17X16816   4.423   5.279   8.055  0.3581 -0.5970  1.7814
  151SAPE  H17Y16817   4.258   5.237   8.010 -1.5171 -2.9190  0.0371
  151SAPE  C31816818   4.411   5.152   7.887 -0.5650  0.1017 -0.9456
  151SAPE  H18X16819   4.344   5.087   7.827  0.2232 -0.8006 -0.8449
  151SAPE  H18Y16820   4.516   5.116   7.894 -0.2438  1.2559  0.5132
  151SAPE  H18Z16821   4.429   5.240   7.821  0.0280  0.3263 -0.4890
  152SAPE     N16822   5.435   4.367  10.923  0.1915  0.1958 -0.4620
  152SAPE   HN116823   5.397   4.330  10.833  0.2808  0.2216 -0.5111
  152SAPE   HN216824   5.536   4.344  10.929 -0.2460 -1.9409 -0.6091
  152SAPE   HN316825   5.396   4.307  10.999  0.4722 -1.2449 -1.4165
  152SAPE   C1216826   5.415   4.515  10.928 -0.0384  0.7488 -0.8228
  152SAPE  H12A16827   5.424   4.551  11.033  0.6429 -1.1769 -0.1909
  152SAPE  H12B16828   5.308   4.536  10.907 -0.2222  0.9590  0.2711
  152SAPE   C1116829   5.509   4.590  10.835  0.3384  0.5470 -0.6249
  152SAPE  H11A16830   5.612   4.565  10.869 -0.4412 -1.1208  0.5928
  152SAPE  H11B16831   5.508   4.699  10.851  1.7422  0.3857  0.7211
  152SAPE     P16832   5.381   4.642  10.624  0.6236 -0.2898 -0.1138
  152SAPE   O1316833   5.248   4.625  10.692  0.3039  0.8276 -0.5253
  152SAPE   O1416834   5.432   4.784  10.624  0.5229 -0.1107  0.0076
  152SAPE   O1216835   5.490   4.554  10.695 -0.6637 -0.0363  0.5831
  152SAPE   O1116836   5.375   4.595  10.478 -0.2688 -0.2749  0.1216
  152SAPE    C116837   5.314   4.467  10.441  0.1868 -0.6533 -0.3287
  152SAPE    HA16838   5.360   4.375  10.483  1.1210 -0.3259 -0.6349
  152SAPE    HB16839   5.215   4.467  10.492  0.0321  1.3358 -0.5804
  152SAPE    C216840   5.287   4.454  10.284  0.1962  0.5879  0.0926
  152SAPE    HS16841   5.343   4.360  10.264 -2.0004 -0.3039 -2.0685
  152SAPE   O2116842   5.328   4.567  10.211 -0.6213 -0.4840  0.4893
  152SAPE   C2116843   5.455   4.579  10.194 -0.7073  0.2031  0.5144
  152SAPE   O2216844   5.537   4.494  10.226 -0.0199  0.7087 -1.2727
  152SAPE   C2216845   5.487   4.696  10.107  0.1867  0.2963 -0.2470
  152SAPE   H2R16846   5.410   4.776  10.105  1.7259  1.7883 -0.9364
  152SAPE   H2S16847   5.584   4.736  10.142  0.1592 -1.8438  2.4404
  152SAPE    C316848   5.134   4.430  10.258 -0.0380 -0.3408 -0.2234
  152SAPE    HX16849   5.081   4.516  10.305  0.0479  0.8396 -2.2240
  152SAPE    HY16850   5.095   4.337  10.305  0.9435 -1.0060 -0.7171
  152SAPE   O3116851   5.107   4.439  10.118 -0.0648  0.3152  0.0264
  152SAPE   C3116852   5.151   4.341  10.053 -0.0482  0.2530 -0.4388
  152SAPE   O3216853   5.207   4.243  10.092  0.0783  0.1731 -0.6654
  152SAPE   C3216854   5.114   4.377   9.907 -0.0386  0.1072  0.6090
  152SAPE   H2X16855   5.129   4.482   9.872  2.4477 -0.5412 -0.4027
  152SAPE   H2Y16856   5.003   4.369   9.908 -0.0269 -0.4257 -0.9796
  152SAPE   C2316857   5.516   4.640   9.971  0.1206 -1.2150 -0.7922
  152SAPE   H3R16858   5.436   4.566   9.948 -0.8580 -0.8889  1.4217
  152SAPE   H3S16859   5.609   4.580   9.981 -0.3188 -1.1774  4.8532
  152SAPE   C2416860   5.520   4.743   9.854  0.0893 -0.1558  0.4527
  152SAPE   H4R16861   5.434   4.812   9.866 -0.4425 -0.2711 -2.2455
  152SAPE   H4S16862   5.500   4.685   9.762  0.0084  0.4984  0.0501
  152SAPE   C2516863   5.650   4.820   9.843 -0.0577 -0.7005 -0.5088
  152SAPE   H5R16864   5.643   4.908   9.909 -0.1385 -1.3170  0.3216
  152SAPE   C2616865   5.751   4.800   9.764  0.1423 -0.0483 -0.0829
  152SAPE   H6R16866   5.839   4.864   9.781 -0.5761  0.9476 -0.0709
  152SAPE   C2716867   5.764   4.684   9.679  0.5329  0.2677 -0.0614
  152SAPE   H7R16868   5.670   4.673   9.621  0.1070 -0.0229  0.6754
  152SAPE   H7S16869   5.768   4.595   9.745 -1.5126  0.2771  0.0898
  152SAPE   C2816870   5.888   4.688   9.590  0.6949  0.3073 -0.5230
  152SAPE   H8R16871   5.986   4.681   9.639  0.6396  1.8576 -0.1630
  152SAPE   C2916872   5.889   4.693   9.458 -0.3385 -0.3389  0.1388
  152SAPE   H9R16873   5.986   4.696   9.406  0.6223  0.0786  1.8961
  152SAPE  C21016874   5.769   4.704   9.363  0.6061 -0.5164  0.0007
  152SAPE  H10R16875   5.799   4.760   9.271  1.8591 -2.9653 -1.1239
  152SAPE  H10S16876   5.686   4.753   9.417  1.9542  0.0161  1.6420
  152SAPE  C21116877   5.719   4.564   9.321  0.2514 -0.0328  0.2827
  152SAPE  H11R16878   5.630   4.538   9.381 -0.7466  2.2150 -0.1891
  152SAPE  C21216879   5.761   4.483   9.222 -0.4791  0.3245  0.1536
  152SAPE  H12R16880   5.714   4.387   9.194  1.0681 -0.0615 -1.2424
  152SAPE  C21316881   5.880   4.518   9.138  0.2069 -0.2295  0.5272
  152SAPE  H13R16882   5.893   4.626   9.119  1.6755 -0.3208  0.9141
  152SAPE  H13S16883   5.862   4.485   9.033  2.0944 -0.7093  0.3296
  152SAPE  C21416884   6.009   4.460   9.198 -0.0813  0.4959 -0.1916
  152SAPE  H14R16885   6.025   4.463   9.307 -0.0130 -1.0497 -0.1587
  152SAPE  C21516886   6.112   4.415   9.124 -0.7807 -0.3195  0.1312
  152SAPE  H15R16887   6.181   4.352   9.182 -1.9423 -2.0734 -0.3497
  152SAPE  C21616888   6.131   4.423   8.972  0.9212 -0.4089 -0.1937
  152SAPE  H16R16889   6.051   4.471   8.912 -0.7655 -1.9897  0.7824
  152SAPE  H16S16890   6.151   4.319   8.939  2.7049 -0.3663  0.6725
  152SAPE  C21716891   6.267   4.499   8.937  0.0707  0.3995  0.1314
  152SAPE  H17R16892   6.350   4.449   8.993 -1.0078  0.0313  1.4230
  152SAPE  H17S16893   6.266   4.608   8.954  0.9060  0.1969  1.5602
  152SAPE  C21816894   6.281   4.472   8.791  0.1598 -1.0889 -0.0877
  152SAPE  H18R16895   6.206   4.523   8.727  1.7470 -0.5551 -1.5524
  152SAPE  H18S16896   6.278   4.362   8.773 -0.0024 -1.0301 -0.4323
  152SAPE  C21916897   6.411   4.514   8.722 -0.3444  0.0500  0.3342
  152SAPE  H19R16898   6.501   4.475   8.775 -0.1205 -0.0699 -0.1278
  152SAPE  H19S16899   6.416   4.625   8.720  0.1846  0.0054 -2.7875
  152SAPE  C22016900   6.411   4.481   8.574 -0.0371 -0.5073  0.6484
  152SAPE  H20R16901   6.334   4.541   8.521 -0.0775  0.2020  1.4874
  152SAPE  H20S16902   6.394   4.372   8.557  3.6328 -1.0250 -0.0908
  152SAPE  H20T16903   6.505   4.501   8.518 -0.2750  0.6529  0.6476
  152SAPE   C3316904   5.159   4.274   9.804 -0.1256 -0.0598 -0.1877
  152SAPE   H3X16905   5.087   4.191   9.816  0.2941  0.0233  3.2609
  152SAPE   H3Y16906   5.260   4.236   9.831 -0.3402  0.3080  1.1798
  152SAPE   C3416907   5.156   4.321   9.656 -0.0796 -0.6909 -0.2958
  152SAPE   H4X16908   5.189   4.245   9.582 -3.9608 -0.9330 -1.8790
  152SAPE   H4Y16909   5.214   4.416   9.650 -0.1378 -0.6393 -0.0471
  152SAPE   C3516910   5.016   4.354   9.606 -1.1225  0.1772 -0.2458
  152SAPE   H5X16911   4.984   4.458   9.630  0.9274 -0.0880  3.9084
  152SAPE   H5Y16912   4.949   4.281   9.656  0.5751 -1.0108  0.3188
  152SAPE   C3616913   5.015   4.333   9.460  0.3306  0.2462  0.3383
  152SAPE   H6X16914   4.912   4.332   9.417  1.6909 -1.3650 -3.0567
  152SAPE   H6Y16915   5.043   4.230   9.429 -3.4885 -0.2427 -1.8669
  152SAPE   C3716916   5.083   4.436   9.370 -0.3954 -0.1417  0.4693
  152SAPE   H7X16917   5.192   4.439   9.391 -0.4412  1.0939  0.5280
  152SAPE   H7Y16918   5.036   4.535   9.383 -1.9450 -0.8901  0.6918
  152SAPE   C3816919   5.066   4.405   9.220 -0.1210 -0.0576  0.0195
  152SAPE   H8X16920   4.960   4.404   9.190  0.5599  1.7201 -2.6539
  152SAPE   H8Y16921   5.121   4.311   9.198 -0.1568 -0.2386  0.6826
  152SAPE   C3916922   5.131   4.516   9.128 -0.7186  0.6387 -0.3555
  152SAPE   H9X16923   5.097   4.613   9.170 -0.7825 -0.5600  2.4042
  152SAPE   H9Y16924   5.107   4.509   9.019  2.1124 -0.9241 -0.9139
  152SAPE  C31016925   5.284   4.515   9.138 -0.1960  0.3633 -0.3520
  152SAPE  H10X16926   5.309   4.407   9.148 -1.4070  0.1641  0.6819
  152SAPE  H10Y16927   5.308   4.570   9.232  1.3411  0.0158 -0.5282
  152SAPE  C31116928   5.354   4.586   9.022 -0.0782  0.3059  0.8138
  152SAPE  H11X16929   5.297   4.681   9.010  0.8065  0.9546  1.6567
  152SAPE  H11Y16930   5.345   4.517   8.936 -0.1535  0.6049  0.5785
  152SAPE  C31216931   5.507   4.603   9.042  0.0235 -0.8882 -0.2821
  152SAPE  H12X16932   5.549   4.501   9.056 -0.1100 -0.8940  0.0889
  152SAPE  H12Y16933   5.521   4.660   9.136  0.4127 -0.2063 -0.7500
  152SAPE  C31316934   5.573   4.677   8.925  0.6574  0.4282 -0.7962
  152SAPE  H13X16935   5.669   4.720   8.960  0.4229 -2.4099  3.7708
  152SAPE  H13Y16936   5.502   4.759   8.901 -1.2908 -0.2278  2.3522
  152SAPE  C31416937   5.593   4.599   8.793 -0.2885  0.1818  0.0314
  152SAPE  H14X16938   5.493   4.588   8.744 -0.4004 -0.5785  0.4267
  152SAPE  H14Y16939   5.642   4.501   8.808  0.3175  0.5127  0.2038
  152SAPE  C31516940   5.690   4.674   8.700 -0.3298  0.4068 -0.6086
  152SAPE  H15X16941   5.790   4.680   8.747 -0.3822  2.6589 -0.7547
  152SAPE  H15Y16942   5.652   4.779   8.700 -0.2102  0.4724  0.9065
  152SAPE  C31616943   5.705   4.618   8.559 -0.3979 -0.5342  0.1985
  152SAPE  H16X16944   5.763   4.678   8.486  3.0486 -3.1441  0.6202
  152SAPE  H16Y16945   5.605   4.606   8.513  0.6770 -0.1197 -2.3090
  152SAPE  C31716946   5.775   4.483   8.566 -0.0630  0.0137  0.5041
  152SAPE  H17X16947   5.726   4.414   8.638  1.7062 -0.5470  1.1788
  152SAPE  H17Y16948   5.881   4.502   8.594  0.3683  0.3833 -1.3277
  152SAPE  C31816949   5.776   4.416   8.426 -0.6125 -0.9448 -0.3244
  152SAPE  H18X16950   5.806   4.503   8.363 -0.3331  0.3088  1.5198
  152SAPE  H18Y16951   5.680   4.385   8.379 -0.1348 -0.1056 -1.9089
  152SAPE  H18Z16952   5.855   4.339   8.410 -0.2766 -0.5052 -0.7751
  153SAPE     N16953   5.346   5.575  10.590  0.6673  0.3712  0.2413
  153SAPE   HN116954   5.306   5.497  10.646  1.3417 -0.3693 -0.2935
  153SAPE   HN216955   5.409   5.627  10.656  0.1972 -0.4509  1.3546
  153SAPE   HN316956   5.264   5.634  10.564 -1.0476 -1.9949  0.1597
  153SAPE   C1216957   5.436   5.529  10.476  0.4173 -0.0479  0.3794
  153SAPE  H12A16958   5.492   5.618  10.441  1.5674 -1.0657 -0.4286
  153SAPE  H12B16959   5.372   5.498  10.391  2.0064 -2.1329 -0.1377
  153SAPE   C1116960   5.523   5.409  10.530 -0.2501  0.5784  0.5929
  153SAPE  H11A16961   5.599   5.369  10.459 -1.2942 -1.8094  0.7698
  153SAPE  H11B16962   5.459   5.319  10.544  2.4088 -1.4098  0.2422
  153SAPE     P16963   5.727   5.520  10.658 -0.5375  0.2382 -0.0020
  153SAPE   O1316964   5.722   5.642  10.746 -0.6952  0.5216  0.6739
  153SAPE   O1416965   5.844   5.434  10.675  0.3917  0.4416 -0.3635
  153SAPE   O1216966   5.584   5.437  10.657  0.0479 -0.0630 -0.1035
  153SAPE   O1116967   5.733   5.573  10.510 -0.2355 -0.5117  0.6431
  153SAPE    C116968   5.849   5.626  10.455  0.1256 -0.8324  0.2127
  153SAPE    HA16969   5.889   5.708  10.518 -1.1014 -0.7920  0.9503
  153SAPE    HB16970   5.936   5.558  10.444 -0.0585 -0.9535 -0.5413
  153SAPE    C216971   5.835   5.664  10.301  0.0361 -0.7579  0.1596
  153SAPE    HS16972   5.933   5.706  10.272 -0.0340 -0.3054  0.5780
  153SAPE   O2116973   5.724   5.757  10.289 -0.4177  0.0836 -0.0059
  153SAPE   C2116974   5.743   5.848  10.189  0.4431 -0.3638 -0.8758
  153SAPE   O2216975   5.847   5.869  10.132 -0.2024 -0.7091  0.3581
  153SAPE   C2216976   5.618   5.915  10.145  0.0428 -0.5311  0.1726
  153SAPE   H2R16977   5.557   5.909  10.238  0.1628 -0.8282  0.2331
  153SAPE   H2S16978   5.642   6.020  10.120 -2.5314  0.2852  0.9377
  153SAPE    C316979   5.810   5.537  10.208 -0.7549  0.4563  0.2436
  153SAPE    HX16980   5.711   5.490  10.226  0.4025 -0.6401  4.2457
  153SAPE    HY16981   5.882   5.461  10.244 -0.6665  0.6154  0.4072
  153SAPE   O3116982   5.828   5.553  10.064 -0.2329 -0.3632 -0.2978
  153SAPE   C3116983   5.957   5.555  10.021  0.8347 -0.6028 -0.4630
  153SAPE   O3216984   6.053   5.527  10.087 -0.2413 -0.3863  0.5297
  153SAPE   C3216985   5.954   5.609   9.878  0.3026 -0.3679  0.1882
  153SAPE   H2X16986   6.051   5.583   9.832 -1.1946  0.1249 -3.4280
  153SAPE   H2Y16987   5.951   5.720   9.883  0.0559 -0.4016  0.8545
  153SAPE   C2316988   5.566   5.840  10.020  0.4715 -0.3883 -0.6918
  153SAPE   H3R16989   5.654   5.830   9.953 -1.4993 -0.7404 -3.3369
  153SAPE   H3S16990   5.494   5.902   9.962 -0.7352 -0.3922  0.7771
  153SAPE   C2416991   5.499   5.708  10.041 -0.5721  0.6957 -0.3684
  153SAPE   H4R16992   5.563   5.640  10.102 -2.1720  1.1923  1.9238
  153SAPE   H4S16993   5.473   5.654   9.947  1.2310  0.0899 -0.5429
  153SAPE   C2516994   5.368   5.723  10.115  0.2437  0.0296 -0.1956
  153SAPE   H5R16995   5.399   5.722  10.221  0.9851  0.2311 -0.4073
  153SAPE   C2616996   5.245   5.736  10.062  0.0548  0.5595 -0.1985
  153SAPE   H6R16997   5.159   5.757  10.127  1.0474  1.0437  0.9960
  153SAPE   C2716998   5.208   5.741   9.915  0.1234  0.4399 -0.3650
  153SAPE   H7R16999   5.281   5.792   9.848 -0.8683 -1.1273 -2.6864
  153SAPE   H7S17000   5.121   5.808   9.893 -0.6328 -0.7127 -0.9203
  153SAPE   C2817001   5.166   5.607   9.855  0.6160 -0.3046  0.0877
  153SAPE   H8R17002   5.150   5.519   9.919  2.2732  0.1278  1.1161
  153SAPE   C2917003   5.165   5.585   9.722 -0.6473 -0.3400 -0.7812
  153SAPE   H9R17004   5.144   5.481   9.693 -0.4254  0.1831 -2.9039
  153SAPE  C21017005   5.185   5.679   9.597  0.0262  0.0562 -0.5256
  153SAPE  H10R17006   5.294   5.668   9.582 -0.1522  0.6826 -2.4436
  153SAPE  H10S17007   5.165   5.781   9.637 -1.1074 -0.2394 -0.3142
  153SAPE  C21117008   5.108   5.656   9.472  0.3957  0.7543 -0.1210
  153SAPE  H11R17009   5.011   5.608   9.493  1.2230 -0.5067  0.9291
  153SAPE  C21217010   5.142   5.697   9.352  0.2240  0.2249  1.1231
  153SAPE  H12R17011   5.068   5.689   9.271 -1.6381  0.4892  2.7707
  153SAPE  C21317012   5.263   5.764   9.310  0.0013 -0.0734 -0.5668
  153SAPE  H13R17013   5.288   5.830   9.396  1.0992 -0.1698 -0.8062
  153SAPE  H13S17014   5.259   5.838   9.228  1.5783  0.1572 -0.4531
  153SAPE  C21417015   5.387   5.681   9.290  0.3003 -0.0117  0.3866
  153SAPE  H14R17016   5.447   5.649   9.377  1.0871 -0.2340 -0.2321
  153SAPE  C21517017   5.429   5.639   9.168  0.6405 -0.0563  0.4714
  153SAPE  H15R17018   5.521   5.583   9.147  0.4954 -0.3792  0.6789
  153SAPE  C21617019   5.350   5.665   9.042 -0.4262  0.7462  0.2513
  153SAPE  H16R17020   5.390   5.754   8.989  1.1584  1.4427  2.5042
  153SAPE  H16S17021   5.241   5.680   9.059 -0.5880 -0.3490  0.2183
  153SAPE  C21717022   5.373   5.560   8.928  0.3059  0.4855 -0.2953
  153SAPE  H17R17023   5.481   5.564   8.902  0.2692  0.4568 -0.4542
  153SAPE  H17S17024   5.312   5.588   8.839  0.5238  1.2737 -0.1938
  153SAPE  C21817025   5.333   5.410   8.961  0.0128 -0.1766  0.7724
  153SAPE  H18R17026   5.383   5.367   9.050  1.9329  0.4247  0.0186
  153SAPE  H18S17027   5.362   5.350   8.872 -1.2260  1.0643 -0.4866
  153SAPE  C21917028   5.186   5.380   8.985  0.4545 -0.1124 -0.1036
  153SAPE  H19R17029   5.136   5.423   8.896 -1.4096  0.6648  1.3026
  153SAPE  H19S17030   5.148   5.435   9.074 -2.7407 -1.6102 -0.4752
  153SAPE  C22017031   5.155   5.230   8.997  0.1602  0.4460  0.3620
  153SAPE  H20R17032   5.049   5.198   9.004 -0.4465  2.3662  0.1989
  153SAPE  H20S17033   5.193   5.188   9.093  1.0871 -1.8379 -0.9468
  153SAPE  H20T17034   5.213   5.177   8.919  0.5258  0.4373  0.6371
  153SAPE   C3317035   5.842   5.551   9.789 -0.3722 -0.5234 -0.0551
  153SAPE   H3X17036   5.752   5.614   9.801  0.9897  1.4765 -0.1109
  153SAPE   H3Y17037   5.824   5.445   9.815 -0.0243 -0.6802 -0.4420
  153SAPE   C3417038   5.873   5.552   9.639  0.5624  0.6879 -0.4790
  153SAPE   H4X17039   5.961   5.485   9.625  0.1917 -0.0522  0.6343
  153SAPE   H4Y17040   5.896   5.657   9.612  0.2294  0.5876 -1.1658
  153SAPE   C3517041   5.752   5.504   9.558  0.0656 -0.1749  0.5351
  153SAPE   H5X17042   5.656   5.547   9.592 -0.7580 -1.3826 -0.2490
  153SAPE   H5Y17043   5.745   5.395   9.580  1.5936 -0.8848 -2.2947
  153SAPE   C3617044   5.763   5.529   9.406  0.6100  0.0878 -0.4718
  153SAPE   H6X17045   5.781   5.637   9.385  2.7950 -0.2062 -0.1725
  153SAPE   H6Y17046   5.671   5.497   9.352 -0.6456 -0.0924  1.7364
  153SAPE   C3717047   5.879   5.445   9.344 -0.4113  0.4984  0.2067
  153SAPE   H7X17048   5.865   5.337   9.365  0.5089  0.6000  1.3829
  153SAPE   H7Y17049   5.984   5.466   9.373 -1.0104  0.2253  2.7112
  153SAPE   C3817050   5.877   5.451   9.188 -0.0777 -1.0110 -0.4078
  153SAPE   H8X17051   5.864   5.558   9.159  3.6082 -0.4191 -0.1119
  153SAPE   H8Y17052   5.799   5.382   9.151 -1.9980  0.6991  0.3583
  153SAPE   C3917053   6.011   5.408   9.139  0.0736 -0.2141  0.4568
  153SAPE   H9X17054   6.044   5.317   9.192 -2.0097 -2.0093 -1.2324
  153SAPE   H9Y17055   6.070   5.495   9.175  0.2690 -0.4271  0.6547
  153SAPE  C31017056   6.013   5.405   8.984  0.1996 -0.4075  0.1452
  153SAPE  H10X17057   5.970   5.498   8.941 -3.5541 -1.4427  1.4388
  153SAPE  H10Y17058   5.931   5.335   8.958 -0.1393  0.2018 -0.4413
  153SAPE  C31117059   6.147   5.368   8.918 -0.0920 -0.0968 -0.8961
  153SAPE  H11X17060   6.182   5.268   8.952 -0.3176  0.3480  0.7028
  153SAPE  H11Y17061   6.213   5.449   8.956  0.5350 -1.4879  1.0420
  153SAPE  C31217062   6.141   5.363   8.761 -0.3999  0.0076  0.1661
  153SAPE  H12X17063   6.243   5.367   8.719 -0.8528 -2.5856 -1.3052
  153SAPE  H12Y17064   6.082   5.448   8.719 -2.3220 -2.4130 -2.2384
  153SAPE  C31317065   6.076   5.236   8.709 -0.0799 -0.7541  0.3828
  153SAPE  H13X17066   5.979   5.212   8.757 -1.2658  1.0353 -1.0509
  153SAPE  H13Y17067   6.152   5.162   8.740  0.1093 -1.5552 -1.9410
  153SAPE  C31417068   6.058   5.235   8.565 -0.0879 -0.4605 -0.6385
  153SAPE  H14X17069   6.149   5.268   8.509 -0.9774  3.1808 -0.0862
  153SAPE  H14Y17070   5.984   5.317   8.550  2.8117  2.3685  0.0291
  153SAPE  C31517071   6.005   5.107   8.500  1.0415  0.1059  0.7021
  153SAPE  H15X17072   5.930   5.057   8.566 -0.2840  1.8393  0.5292
  153SAPE  H15Y17073   6.078   5.023   8.489 -0.8265 -1.4854  0.1397
  153SAPE  C31617074   5.934   5.137   8.377 -0.0633 -0.0183 -0.3246
  153SAPE  H16X17075   5.992   5.196   8.303  0.6884 -0.3844 -0.0272
  153SAPE  H16Y17076   5.842   5.191   8.410 -0.2971 -0.0649 -0.8865
  153SAPE  C31717077   5.891   5.020   8.293 -0.1410  0.3611  0.5481
  153SAPE  H17X17078   5.842   5.053   8.199 -1.3647 -0.1851  0.9855
  153SAPE  H17Y17079   5.829   4.952   8.356 -0.3550  1.0131  1.0454
  153SAPE  C31817080   6.009   4.929   8.247  0.0230 -0.7346  0.2273
  153SAPE  H18X17081   6.066   4.882   8.330 -1.5116 -0.7694  1.2685
  153SAPE  H18Y17082   6.083   4.997   8.198  0.0241 -0.1929  0.9870
  153SAPE  H18Z17083   5.969   4.857   8.172 -1.4429  3.1048 -2.8464
  154SAPE     N17084   6.663   5.552  10.953  0.3889 -0.2098 -0.0999
  154SAPE   HN117085   6.628   5.618  10.880  0.1477  0.1283  0.3244
  154SAPE   HN217086   6.614   5.580  11.040  0.3204  0.2631 -0.2887
  154SAPE   HN317087   6.767   5.550  10.963  0.3202 -0.9813  0.4278
  154SAPE   C1217088   6.599   5.421  10.921 -0.5731 -0.3727 -1.0453
  154SAPE  H12A17089   6.620   5.361  11.012  1.2899 -1.5312 -2.2164
  154SAPE  H12B17090   6.662   5.384  10.838  0.3286  1.2938 -1.1308
  154SAPE   C1117091   6.450   5.425  10.884  0.3077 -0.2082  0.9289
  154SAPE  H11A17092   6.441   5.465  10.781 -0.1901  0.0708  1.0816
  154SAPE  H11B17093   6.406   5.499  10.954  1.1326 -0.0211  1.2555
  154SAPE     P17094   6.404   5.189  10.775 -0.5166  0.2496  0.3009
  154SAPE   O1317095   6.546   5.141  10.775 -0.0153  0.6244 -0.5011
  154SAPE   O1417096   6.300   5.083  10.781 -0.0034 -0.2324  0.2445
  154SAPE   O1217097   6.389   5.294  10.893 -0.3041  0.0806  0.1540
  154SAPE   O1117098   6.370   5.282  10.651 -0.4605 -0.5599  0.2660
  154SAPE    C117099   6.231   5.312  10.629 -0.1169 -0.1717  0.0292
  154SAPE    HA17100   6.167   5.226  10.600 -1.7178  1.0517 -0.1309
  154SAPE    HB17101   6.179   5.347  10.721  1.4048  1.8432  0.1327
  154SAPE    C217102   6.210   5.425  10.527  0.3414  0.2167 -0.3384
  154SAPE    HS17103   6.102   5.430  10.501  0.6384  2.2131 -1.2813
  154SAPE   O2117104   6.287   5.398  10.410  0.6045  0.1677 -0.2952
  154SAPE   C2117105   6.243   5.316  10.321  0.5447  0.2216 -0.3377
  154SAPE   O2217106   6.140   5.245  10.333 -0.3122 -1.0829  0.2181
  154SAPE   C2217107   6.322   5.321  10.192 -0.7895 -0.1065 -0.4692
  154SAPE   H2R17108   6.324   5.423  10.148 -0.1395  0.0729 -0.0375
  154SAPE   H2S17109   6.427   5.295  10.215 -1.2082 -0.7177  0.8469
  154SAPE    C317110   6.240   5.566  10.577 -0.6369 -0.2263  0.6409
  154SAPE    HX17111   6.339   5.571  10.628 -0.1369 -0.8194 -0.2509
  154SAPE    HY17112   6.177   5.588  10.666  1.0752 -3.0817  2.6217
  154SAPE   O3117113   6.230   5.660  10.467 -0.5405  0.0910  0.1019
  154SAPE   C3117114   6.338   5.672  10.392 -0.8922 -0.2915  1.0923
  154SAPE   O3217115   6.453   5.646  10.426 -0.0825  0.0422 -0.0540
  154SAPE   C3217116   6.309   5.732  10.251 -0.2415  0.0685 -0.3225
  154SAPE   H2X17117   6.275   5.833  10.280 -0.3295  0.1637 -0.7531
  154SAPE   H2Y17118   6.224   5.677  10.204  0.0046  0.2627 -1.0097
  154SAPE   C2317119   6.271   5.229  10.083 -0.0023  0.0468 -0.2064
  154SAPE   H3R17120   6.161   5.247  10.074  0.1181  0.9580  0.0475
  154SAPE   H3S17121   6.292   5.123  10.108 -1.5998 -0.2105  0.1129
  154SAPE   C2417122   6.350   5.250   9.953 -0.2424  0.4528  0.2152
  154SAPE   H4R17123   6.358   5.358   9.928 -2.9094  0.7206  0.3505
  154SAPE   H4S17124   6.297   5.197   9.871  1.3051 -1.4411  0.4174
  154SAPE   C2517125   6.488   5.186   9.957 -0.1922 -0.1465  0.3100
  154SAPE   H5R17126   6.474   5.077   9.949  2.5784 -0.5299  0.3387
  154SAPE   C2617127   6.609   5.247   9.970 -0.8710 -0.3181  0.5789
  154SAPE   H6R17128   6.706   5.194   9.966  0.7379  2.4610  1.6670
  154SAPE   C2717129   6.628   5.396   9.982  0.0603  0.0143  0.8269
  154SAPE   H7R17130   6.553   5.442  10.049 -0.6259  1.2670 -0.7483
  154SAPE   H7S17131   6.605   5.443   9.883  0.2398  0.2628  0.9000
  154SAPE   C2817132   6.769   5.434  10.045 -0.4431 -0.0041 -0.1323
  154SAPE   H8R17133   6.787   5.393  10.146 -0.9193 -0.1423 -0.1029
  154SAPE   C2917134   6.857   5.524   9.994  0.1502  0.3336  0.1137
  154SAPE   H9R17135   6.951   5.547  10.046  0.3126  0.6445 -0.3139
  154SAPE  C21017136   6.846   5.609   9.868 -0.1359 -0.2048  0.5427
  154SAPE  H10R17137   6.878   5.715   9.874 -1.4714  0.5131 -3.5126
  154SAPE  H10S17138   6.743   5.623   9.827 -0.9362 -0.3167  2.4676
  154SAPE  C21117139   6.928   5.553   9.754 -0.2412  0.6766  0.5653
  154SAPE  H11R17140   7.030   5.522   9.784  0.0498  0.4907 -0.6052
  154SAPE  C21217141   6.897   5.533   9.626 -0.1242  0.5651 -0.3892
  154SAPE  H12R17142   6.977   5.482   9.571  1.4457  0.0618  2.2944
  154SAPE  C21317143   6.765   5.571   9.560 -0.5949 -0.2948  0.6438
  154SAPE  H13R17144   6.699   5.633   9.623 -0.0817  1.4482 -0.4911
  154SAPE  H13S17145   6.707   5.478   9.541  1.1792 -1.1532 -0.6886
  154SAPE  C21417146   6.783   5.661   9.438 -0.4408 -0.8260  0.5610
  154SAPE  H14R17147   6.786   5.768   9.465  1.9672 -0.2627 -1.6708
  154SAPE  C21517148   6.817   5.626   9.310 -0.9211 -0.9105  0.2314
  154SAPE  H15R17149   6.853   5.700   9.238  0.4395 -0.6077  1.2000
  154SAPE  C21617150   6.827   5.486   9.248  0.7065 -0.6224 -0.4191
  154SAPE  H16R17151   6.736   5.480   9.184 -1.5616  1.0984  2.4933
  154SAPE  H16S17152   6.823   5.399   9.317  0.3287  0.1429  0.5396
  154SAPE  C21717153   6.953   5.478   9.162 -0.6433 -0.2215  0.3453
  154SAPE  H17R17154   7.053   5.507   9.201 -0.6692  0.2054  0.0905
  154SAPE  H17S17155   6.941   5.558   9.086  2.2666  1.0186  1.1100
  154SAPE  C21817156   6.960   5.342   9.090 -0.1936 -0.9272 -0.4873
  154SAPE  H18R17157   6.860   5.295   9.083  0.3285 -2.3544  1.1433
  154SAPE  H18S17158   7.012   5.265   9.151 -0.9314  0.3544  1.8186
  154SAPE  C21917159   7.032   5.348   8.956 -0.4581  0.1475  0.2519
  154SAPE  H19R17160   6.993   5.414   8.876 -0.2675 -0.2221 -0.1480
  154SAPE  H19S17161   7.032   5.248   8.906 -0.6280  0.0949  0.3574
  154SAPE  C22017162   7.184   5.386   8.979  0.1101  1.0229 -0.9578
  154SAPE  H20R17163   7.244   5.310   9.034 -1.9605 -0.1427 -0.2207
  154SAPE  H20S17164   7.190   5.485   9.028  3.0845  0.4496 -0.0292
  154SAPE  H20T17165   7.227   5.405   8.879  0.6656 -0.0056 -0.9232
  154SAPE   C3317166   6.427   5.746  10.157 -0.0210 -0.6600  0.9477
  154SAPE   H3X17167   6.472   5.646  10.143  1.7803  0.4121 -1.2055
  154SAPE   H3Y17168   6.499   5.812  10.210  0.5634 -1.2478  0.8949
  154SAPE   C3417169   6.393   5.801  10.020 -0.4866 -0.2923  0.0607
  154SAPE   H4X17170   6.493   5.806   9.972 -0.3433 -1.0486  0.2598
  154SAPE   H4Y17171   6.352   5.903  10.030  0.7866  0.2207  0.1897
  154SAPE   C3517172   6.313   5.702   9.932  0.4704  0.0348 -0.6549
  154SAPE   H5X17173   6.208   5.691   9.968  0.3219 -1.6584 -1.5828
  154SAPE   H5Y17174   6.347   5.598   9.947 -2.0947 -0.7342  0.1788
  154SAPE   C3617175   6.328   5.748   9.787 -0.3032  0.5423 -0.6098
  154SAPE   H6X17176   6.378   5.847   9.786 -1.3553  1.1272  1.6821
  154SAPE   H6Y17177   6.228   5.764   9.742 -1.1000 -1.5410  0.3441
  154SAPE   C3717178   6.415   5.662   9.696  0.0067  0.4824  0.0869
  154SAPE   H7X17179   6.499   5.625   9.758 -0.0601 -2.1125 -1.2905
  154SAPE   H7Y17180   6.464   5.726   9.620  0.6808 -0.0047  0.1028
  154SAPE   C3817181   6.342   5.547   9.632  0.4316 -0.1553  0.1632
  154SAPE   H8X17182   6.264   5.576   9.557  0.2753  0.8588  0.7085
  154SAPE   H8Y17183   6.293   5.483   9.708  0.8361 -0.7163 -0.0487
  154SAPE   C3917184   6.435   5.444   9.558 -0.1111  0.7052 -0.3178
  154SAPE   H9X17185   6.510   5.425   9.638 -0.0126  2.7626  0.1021
  154SAPE   H9Y17186   6.493   5.488   9.475  0.6386  2.4414  1.0827
  154SAPE  C31017187   6.371   5.322   9.501 -0.7436 -0.1273  0.1955
  154SAPE  H10X17188   6.265   5.349   9.482 -0.4879 -0.9037 -2.6228
  154SAPE  H10Y17189   6.371   5.238   9.574  1.1877 -2.3790 -2.2901
  154SAPE  C31117190   6.427   5.271   9.362  0.4164 -0.4638 -0.4561
  154SAPE  H11X17191   6.425   5.352   9.285  0.2012  0.7028  0.7459
  154SAPE  H11Y17192   6.360   5.187   9.334 -0.7091  0.3179 -0.1848
  154SAPE  C31217193   6.574   5.209   9.369 -0.4700  0.4217  0.6413
  154SAPE  H12X17194   6.578   5.146   9.460 -3.8724  0.4495  0.8779
  154SAPE  H12Y17195   6.648   5.289   9.390  0.0922  0.7047 -2.2087
  154SAPE  C31317196   6.616   5.130   9.241 -0.0813  0.3201  0.2205
  154SAPE  H13X17197   6.630   5.200   9.156 -2.4017 -0.6355 -0.9903
  154SAPE  H13Y17198   6.526   5.070   9.218 -0.8185  2.1585 -1.8524
  154SAPE  C31417199   6.744   5.054   9.251  0.2783  0.3448  0.3885
  154SAPE  H14X17200   6.735   4.963   9.315 -0.2851 -0.4368 -0.7767
  154SAPE  H14Y17201   6.813   5.112   9.316  0.0579  0.0622  0.8817
  154SAPE  C31517202   6.799   5.012   9.117 -0.0511  0.4949  0.3199
  154SAPE  H15X17203   6.894   4.954   9.126  2.0214  3.3154 -2.4053
  154SAPE  H15Y17204   6.812   5.100   9.051  1.1430  1.1945  1.4584
  154SAPE  C31617205   6.694   4.916   9.056  0.2433 -0.0082  0.0953
  154SAPE  H16X17206   6.595   4.958   9.027  0.5236  2.0478  2.0142
  154SAPE  H16Y17207   6.664   4.848   9.139  1.3785  1.0358  1.3692
  154SAPE  C31717208   6.767   4.837   8.950  0.3893  1.1860  0.0498
  154SAPE  H17X17209   6.862   4.789   8.982 -0.3004  0.3861  0.9125
  154SAPE  H17Y17210   6.800   4.911   8.873  1.1930 -0.9539 -1.7374
  154SAPE  C31817211   6.679   4.725   8.895  0.6935  0.5663  0.3787
  154SAPE  H18X17212   6.598   4.766   8.831  0.4245  1.3706  1.2351
  154SAPE  H18Y17213   6.627   4.665   8.973 -0.2980  0.0127 -0.6895
  154SAPE  H18Z17214   6.737   4.658   8.828  0.0167 -1.3146  1.6321
  155SAPE     N17215   0.290   6.488  10.831 -0.4808 -0.3079  0.4984
  155SAPE   HN117216   0.389   6.518  10.846  0.7236 -3.9227  0.4223
  155SAPE   HN217217   0.298   6.384  10.839  1.4523 -0.1758  0.5004
  155SAPE   HN317218   0.272   6.508  10.731  2.3663  0.3869  0.0774
  155SAPE   C1217219   0.190   6.550  10.924  0.0037  1.3772 -0.6474
  155SAPE  H12A17220   0.198   6.660  10.922  1.4437  1.3026  0.1290
  155SAPE  H12B17221   0.216   6.516  11.027 -0.3904  0.0970 -0.9567
  155SAPE   C1117222   0.044   6.496  10.899 -0.2464  0.2848 -0.4633
  155SAPE  H11A17223  -0.010   6.522  10.992 -1.7019 -1.9331 -0.6418
  155SAPE  H11B17224   0.047   6.386  10.887 -0.1871  0.2991 -0.5810
  155SAPE     P17225  -0.154   6.559  10.742  0.2044 -0.7225  0.1192
  155SAPE   O1317226  -0.204   6.426  10.707 -0.1549  0.0926 -0.3574
  155SAPE   O1417227  -0.218   6.618  10.858 -0.0329 -0.3439 -0.5972
  155SAPE   O1217228  -0.003   6.554  10.781  0.1993 -0.2897 -0.3870
  155SAPE   O1117229  -0.162   6.654  10.618  0.7818 -0.1935 -0.9636
  155SAPE    C117230  -0.125   6.612  10.487 -0.1988 -0.1782 -0.5190
  155SAPE    HA17231  -0.127   6.501  10.480 -2.0612 -0.2637  1.0565
  155SAPE    HB17232  -0.205   6.647  10.418 -1.1955 -1.8024 -0.2307
  155SAPE    C217233   0.008   6.672  10.445 -0.3153  0.0618  0.1684
  155SAPE    HS17234   0.067   6.682  10.538  2.6731  0.7106 -1.7083
  155SAPE   O2117235  -0.019   6.797  10.388  0.2915 -0.3648 -0.7272
  155SAPE   C2117236   0.092   6.867  10.389 -0.5136 -0.4905 -0.1177
  155SAPE   O2217237   0.200   6.840  10.444 -0.0094 -0.1393 -0.3430
  155SAPE   C2217238   0.078   6.986  10.296  0.3337  0.2305 -0.7970
  155SAPE   H2R17239   0.060   6.940  10.196 -0.1465 -0.2470 -0.4946
  155SAPE   H2S17240  -0.015   7.039  10.326 -0.9224 -3.0510  1.5064
  155SAPE    C317241   0.078   6.569  10.343  0.1180  0.3766 -0.6065
  155SAPE    HX17242   0.081   6.470  10.393 -0.8398  0.5541 -0.1864
  155SAPE    HY17243   0.185   6.600  10.337 -0.0244  1.0404  0.1419
  155SAPE   O3117244   0.011   6.550  10.220  0.3206 -0.4030  0.0057
  155SAPE   C3117245   0.059   6.627  10.125 -0.4293 -0.4810 -0.0858
  155SAPE   O3217246   0.148   6.710  10.140 -0.3317 -0.3623 -0.1667
  155SAPE   C3217247  -0.012   6.595   9.992  0.2239 -0.0727  0.3754
  155SAPE   H2X17248  -0.118   6.570  10.015 -0.1579 -0.8977 -2.1119
  155SAPE   H2Y17249   0.036   6.504   9.951 -0.1465  0.4894 -1.3239
  155SAPE   C2317250   0.210   7.075  10.295 -0.0490  0.1001 -0.1492
  155SAPE   H3R17251   0.272   7.076  10.388 -0.4860 -1.4457  0.1785
  155SAPE   H3S17252   0.184   7.178  10.265  0.7847 -0.2059 -1.9661
  155SAPE   C2417253   0.309   7.015  10.185 -0.0793 -0.0695 -0.7830
  155SAPE   H4R17254   0.248   6.978  10.100  0.7644  0.1210 -1.4814
  155SAPE   H4S17255   0.353   6.923  10.229  0.0340  1.0091  1.4162
  155SAPE   C2517256   0.429   7.101  10.145  0.2392  0.5918 -0.1918
  155SAPE   H5R17257   0.492   7.149  10.221  2.6968  0.2222 -1.9258
  155SAPE   C2617258   0.452   7.143  10.016  0.5474 -0.6272 -0.2432
  155SAPE   H6R17259   0.546   7.199  10.002  0.8525 -0.7440  1.2334
  155SAPE   C2717260   0.368   7.111   9.898 -0.4898  0.0045  0.2508
  155SAPE   H7R17261   0.262   7.140   9.914 -0.8023 -0.8526 -0.2677
  155SAPE   H7S17262   0.381   7.005   9.867  0.9718  0.4025 -0.5735
  155SAPE   C2817263   0.403   7.184   9.774  0.1268  0.3615  0.4104
  155SAPE   H8R17264   0.347   7.279   9.763 -1.7577 -0.8593 -1.0426
  155SAPE   C2917265   0.501   7.166   9.686 -0.0852  0.4737 -0.5392
  155SAPE   H9R17266   0.515   7.238   9.604 -1.3665 -0.7520 -1.8618
  155SAPE  C21017267   0.602   7.053   9.681  0.3761 -0.4098  0.1541
  155SAPE  H10R17268   0.561   6.975   9.614 -0.0291  1.3643 -1.6968
  155SAPE  H10S17269   0.608   7.005   9.782 -0.9219  1.8054  1.3130
  155SAPE  C21117270   0.744   7.090   9.633  1.0470 -0.5031  0.0879
  155SAPE  H11R17271   0.814   7.101   9.717 -0.2297  0.4562  1.0327
  155SAPE  C21217272   0.781   7.112   9.504  0.0163 -0.5596  0.7441
  155SAPE  H12R17273   0.889   7.135   9.501 -0.4656  1.7260 -0.1807
  155SAPE  C21317274   0.706   7.096   9.373  0.7972 -0.2160  0.1078
  155SAPE  H13R17275   0.600   7.070   9.393  0.2283  1.2715 -0.8796
  155SAPE  H13S17276   0.754   7.014   9.316  0.7989  0.9371 -1.5971
  155SAPE  C21417277   0.703   7.224   9.294 -0.0697  0.1502  0.6755
  155SAPE  H14R17278   0.701   7.313   9.359  0.8211  0.9166 -0.3301
  155SAPE  C21517279   0.700   7.242   9.160  0.0817 -0.3461 -0.8419
  155SAPE  H15R17280   0.701   7.341   9.113 -3.1149  1.0003  1.7538
  155SAPE  C21617281   0.683   7.132   9.060 -0.3466  0.6498  0.3570
  155SAPE  H16R17282   0.579   7.146   9.022 -0.1505 -0.1223 -0.4818
  155SAPE  H16S17283   0.705   7.032   9.104  0.9157  0.2963 -1.0589
  155SAPE  C21717284   0.767   7.160   8.931 -0.4049  0.1381  0.0974
  155SAPE  H17R17285   0.874   7.175   8.956 -0.1788 -1.0682 -0.1333
  155SAPE  H17S17286   0.726   7.252   8.882  0.1524  0.9548  1.1362
  155SAPE  C21817287   0.765   7.045   8.830 -0.0562 -0.5350 -0.2923
  155SAPE  H18R17288   0.792   6.951   8.883  2.5337 -0.0931 -0.7394
  155SAPE  H18S17289   0.850   7.062   8.760  1.6661  0.2140  1.9295
  155SAPE  C21917290   0.638   7.047   8.740 -0.2876  0.6678  0.0557
  155SAPE  H19R17291   0.651   7.123   8.660  0.0142  1.9829  1.3330
  155SAPE  H19S17292   0.558   7.094   8.801 -0.9200 -2.9410  2.1411
  155SAPE  C22017293   0.591   6.925   8.670  0.6560  0.4606 -0.3282
  155SAPE  H20R17294   0.665   6.880   8.600  0.9740  0.7346 -0.1669
  155SAPE  H20S17295   0.501   6.946   8.610  0.6180  1.6913  0.1470
  155SAPE  H20T17296   0.554   6.845   8.737 -1.4696  1.9302  0.2812
  155SAPE   C3317297  -0.004   6.714   9.892  0.1288  0.3112  1.0702
  155SAPE   H3X17298   0.098   6.757   9.878  0.2854 -0.6732 -1.1070
  155SAPE   H3Y17299  -0.064   6.797   9.933 -0.3742  1.0091 -0.9923
  155SAPE   C3417300  -0.080   6.692   9.762  0.0091 -0.0086 -0.2480
  155SAPE   H4X17301  -0.116   6.793   9.734 -4.0339 -0.5660  2.4027
  155SAPE   H4Y17302  -0.175   6.634   9.773  0.1150 -0.1867 -0.2762
  155SAPE   C3517303   0.003   6.635   9.648  0.4298  0.0822  0.1452
  155SAPE   H5X17304   0.049   6.538   9.674  0.2959 -0.1265 -0.3951
  155SAPE   H5Y17305   0.086   6.709   9.650 -0.3034  0.8841  2.4903
  155SAPE   C3617306  -0.070   6.638   9.517  0.5323 -0.0636 -0.3666
  155SAPE   H6X17307  -0.114   6.737   9.493  0.2157  0.2648  1.4601
  155SAPE   H6Y17308  -0.152   6.564   9.532  0.2871 -0.3171 -2.8065
  155SAPE   C3717309   0.008   6.595   9.390 -0.2201  0.2206  0.1764
  155SAPE   H7X17310   0.055   6.496   9.405 -0.8236 -0.3560 -1.6304
  155SAPE   H7Y17311   0.083   6.674   9.367  1.2854 -0.2927  3.0639
  155SAPE   C3817312  -0.095   6.572   9.272 -0.4828 -0.3053  0.3937
  155SAPE   H8X17313  -0.149   6.666   9.247 -2.4335 -1.5773 -0.2908
  155SAPE   H8Y17314  -0.170   6.500   9.311 -0.1049  0.0015  1.7147
  155SAPE   C3917315  -0.017   6.533   9.141 -0.6181 -0.4575  0.0371
  155SAPE   H9X17316   0.066   6.465   9.170  2.2911  3.0230  0.2718
  155SAPE   H9Y17317   0.031   6.629   9.110 -0.4642 -1.0788 -1.6555
  155SAPE  C31017318  -0.104   6.465   9.033 -1.2401 -0.9292 -0.3787
  155SAPE  H10X17319  -0.200   6.519   9.036  0.0297  1.3642  1.9164
  155SAPE  H10Y17320  -0.112   6.363   9.076 -0.1816 -0.7964  0.1579
  155SAPE  C31117321  -0.055   6.470   8.886  0.4468  0.3396 -0.0168
  155SAPE  H11X17322   0.047   6.427   8.887  0.4601  0.2932 -2.3062
  155SAPE  H11Y17323  -0.036   6.577   8.861  1.1850  0.5256  1.2375
  155SAPE  C31217324  -0.155   6.394   8.794 -0.0853  0.8428  0.1860
  155SAPE  H12X17325  -0.242   6.461   8.778 -1.7316 -1.4479 -0.7776
  155SAPE  H12Y17326  -0.181   6.302   8.851 -0.9595  0.3576 -0.9926
  155SAPE  C31317327  -0.086   6.366   8.660 -0.3820  0.3109  0.3945
  155SAPE  H13X17328  -0.030   6.457   8.629 -0.7798  0.0489 -1.1570
  155SAPE  H13Y17329  -0.164   6.359   8.581  0.8624  0.8171 -0.8969
  155SAPE  C31417330   0.005   6.248   8.655 -0.4216  0.3672  0.6076
  155SAPE  H14X17331  -0.052   6.153   8.659 -0.1872  0.2197  0.5009
  155SAPE  H14Y17332   0.068   6.243   8.747 -0.6213  0.8214  0.7710
  155SAPE  C31517333   0.098   6.238   8.525 -0.4157  0.2913 -0.1926
  155SAPE  H15X17334   0.188   6.174   8.540 -0.4369  0.3909  0.3570
  155SAPE  H15Y17335   0.128   6.339   8.490 -0.6485  0.5080  0.2395
  155SAPE  C31617336   0.009   6.169   8.415  0.6266  0.1381  0.1645
  155SAPE  H16X17337   0.058   6.179   8.316 -0.5690 -2.2303 -0.7099
  155SAPE  H16Y17338  -0.093   6.215   8.410 -0.5810 -2.4144  0.4563
  155SAPE  C31717339  -0.018   6.023   8.442  0.6328  0.2006 -0.3701
  155SAPE  H17X17340  -0.064   6.008   8.542  1.2806  2.0785  0.2384
  155SAPE  H17Y17341   0.081   5.973   8.446  0.0583 -1.1531 -2.2950
  155SAPE  C31817342  -0.088   5.951   8.328 -0.1979 -0.6766  0.5807
  155SAPE  H18X17343  -0.045   5.995   8.236 -1.7576  1.3623  0.7854
  155SAPE  H18Y17344  -0.199   5.959   8.332 -0.4198 -1.1364 -2.9734
  155SAPE  H18Z17345  -0.065   5.842   8.337 -1.1789 -1.0608 -1.2684
  156SAPE     N17346   4.941   4.941  10.483 -0.0521  0.1137  0.1515
  156SAPE   HN117347   4.894   4.855  10.517  0.3456 -1.8613 -3.9386
  156SAPE   HN217348   5.041   4.930  10.456  0.1455  1.4348  0.3187
  156SAPE   HN317349   4.943   5.004  10.566 -1.4373  0.6474 -0.2136
  156SAPE   C1217350   4.869   4.997  10.364  0.4008  0.4381 -0.4042
  156SAPE  H12A17351   4.892   4.938  10.273 -0.5350 -0.0288 -0.3490
  156SAPE  H12B17352   4.894   5.104  10.353  1.5587  0.2914  0.6667
  156SAPE   C1117353   4.721   4.972  10.393  0.1392  0.1293 -0.0121
  156SAPE  H11A17354   4.657   5.006  10.308 -1.8546 -0.0209  1.3850
  156SAPE  H11B17355   4.668   5.033  10.469 -0.7345 -1.0659  0.3531
  156SAPE     P17356   4.574   4.744  10.429  0.1189  0.3677 -0.6297
  156SAPE   O1317357   4.601   4.628  10.513  0.0651  0.3361 -0.1717
  156SAPE   O1417358   4.474   4.842  10.483 -0.3374 -0.9173 -0.0858
  156SAPE   O1217359   4.709   4.829  10.412  0.3313 -0.1524  0.0652
  156SAPE   O1117360   4.523   4.697  10.287  0.6040 -0.1927  0.3608
  156SAPE    C117361   4.620   4.608  10.225 -0.0348  0.3873  0.0890
  156SAPE    HA17362   4.687   4.550  10.292 -0.1115  1.1307  0.8228
  156SAPE    HB17363   4.558   4.540  10.163 -0.7109 -0.6669  1.8753
  156SAPE    C217364   4.711   4.684  10.123  0.2951 -0.7158 -0.2330
  156SAPE    HS17365   4.735   4.786  10.158  1.4043 -1.2334  0.5768
  156SAPE   O2117366   4.638   4.683   9.996  0.2033  0.3667  0.2975
  156SAPE   C2117367   4.667   4.778   9.920  0.3163  0.1406 -0.1709
  156SAPE   O2217368   4.748   4.867   9.938 -0.3063 -0.4599 -0.1138
  156SAPE   C2217369   4.578   4.773   9.800 -0.0039 -0.5653  0.7763
  156SAPE   H2R17370   4.576   4.672   9.754  1.9055  0.1866 -1.0711
  156SAPE   H2S17371   4.475   4.791   9.838 -0.0241  0.2165  0.3780
  156SAPE    C317372   4.846   4.609  10.121  0.7274 -0.0804 -0.2278
  156SAPE    HX17373   4.814   4.504  10.108 -3.9912  1.5174 -2.4429
  156SAPE    HY17374   4.889   4.622  10.223  0.1053  0.2302 -0.0007
  156SAPE   O3117375   4.925   4.650  10.008  0.2201 -0.5139 -0.5960
  156SAPE   C3117376   5.025   4.736  10.040 -0.1691 -0.0147  0.3831
  156SAPE   O3217377   5.061   4.773  10.147  0.0449  0.0416  0.4105
  156SAPE   C3217378   5.117   4.754   9.918 -0.6081 -0.3321 -0.0083
  156SAPE   H2X17379   5.199   4.678   9.923 -0.7870 -0.6457 -1.6340
  156SAPE   H2Y17380   5.157   4.856   9.936 -1.1749 -0.1340  0.1418
  156SAPE   C2317381   4.609   4.880   9.692  0.3582  0.1535 -0.1234
  156SAPE   H3R17382   4.614   4.983   9.732 -4.1111  0.6907 -0.7102
  156SAPE   H3S17383   4.524   4.881   9.620  0.1229  0.2731  0.1598
  156SAPE   C2417384   4.738   4.854   9.613  0.0260  0.3422 -0.0524
  156SAPE   H4R17385   4.831   4.890   9.663 -0.4806 -0.5760  1.5697
  156SAPE   H4S17386   4.738   4.908   9.516  5.1931 -0.3190 -0.5990
  156SAPE   C2517387   4.764   4.709   9.579 -0.4250  0.7457  0.0653
  156SAPE   H5R17388   4.858   4.665   9.614 -0.2357  0.7703 -0.4177
  156SAPE   C2617389   4.686   4.615   9.510  0.0259  0.2362 -0.6020
  156SAPE   H6R17390   4.731   4.516   9.494  0.5622  0.3954 -0.0768
  156SAPE   C2717391   4.544   4.638   9.459 -0.1619 -0.3977  1.0661
  156SAPE   H7R17392   4.485   4.696   9.534 -1.3706  1.3506 -1.1774
  156SAPE   H7S17393   4.490   4.543   9.442 -0.8748  0.3828 -1.1229
  156SAPE   C2817394   4.530   4.722   9.331  0.7002  0.1663 -0.0781
  156SAPE   H8R17395   4.477   4.818   9.342  1.2675  0.4925 -0.1611
  156SAPE   C2917396   4.560   4.683   9.206  0.2770 -0.2455 -1.1962
  156SAPE   H9R17397   4.546   4.757   9.125 -1.5052  0.6485 -0.1118
  156SAPE  C21017398   4.621   4.548   9.168  0.1147 -0.7879  0.3528
  156SAPE  H10R17399   4.666   4.516   9.264  1.4857 -0.7221 -0.2615
  156SAPE  H10S17400   4.710   4.561   9.102 -0.6368 -1.1568 -0.7465
  156SAPE  C21117401   4.518   4.449   9.120 -0.3319 -0.2839 -0.3089
  156SAPE  H11R17402   4.423   4.450   9.175  0.8926 -0.8451  1.8974
  156SAPE  C21217403   4.527   4.372   9.008 -0.2217 -0.0612  0.0395
  156SAPE  H12R17404   4.432   4.325   8.979 -0.2250 -0.4698  0.7074
  156SAPE  C21317405   4.642   4.365   8.907  1.1731 -0.3184 -0.1414
  156SAPE  H13R17406   4.690   4.463   8.886  1.0451 -0.0997  0.5781
  156SAPE  H13S17407   4.598   4.326   8.813  1.5543 -0.3369 -0.3159
  156SAPE  C21417408   4.742   4.266   8.952 -0.6958  0.9166 -0.5143
  156SAPE  H14R17409   4.725   4.191   9.031  1.4228  0.6580 -0.2778
  156SAPE  C21517410   4.874   4.258   8.906  0.4589 -0.2736  0.2754
  156SAPE  H15R17411   4.946   4.182   8.938  0.6416 -0.1274  0.2133
  156SAPE  C21617412   4.929   4.343   8.796  0.2965  0.1966  0.8624
  156SAPE  H16R17413   5.024   4.390   8.831  0.3646  0.2665  0.5842
  156SAPE  H16S17414   4.853   4.423   8.785 -0.5725 -0.5202  1.5716
  156SAPE  C21717415   4.963   4.266   8.664 -0.5243  0.2754 -0.0961
  156SAPE  H17R17416   4.871   4.214   8.628  1.4127 -3.6594  0.3597
  156SAPE  H17S17417   5.044   4.191   8.674  0.0004  1.0282  1.4603
  156SAPE  C21817418   5.018   4.350   8.550  1.0497  0.1225 -0.3445
  156SAPE  H18R17419   5.104   4.412   8.583  0.8459  0.3960 -0.3253
  156SAPE  H18S17420   4.937   4.416   8.512  0.8029  0.8568  1.4397
  156SAPE  C21917421   5.051   4.267   8.426  0.3580  0.0051  0.0320
  156SAPE  H19R17422   4.965   4.200   8.407 -0.8782  1.4060  0.6332
  156SAPE  H19S17423   5.134   4.198   8.453 -0.7418 -1.2758  0.1734
  156SAPE  C22017424   5.077   4.355   8.302  0.3954 -0.2441  0.3434
  156SAPE  H20R17425   5.185   4.375   8.288 -0.1756  1.8451 -1.2325
  156SAPE  H20S17426   5.030   4.455   8.307  0.2659 -0.2518 -0.6626
  156SAPE  H20T17427   5.032   4.309   8.211  0.2719  0.2635  0.1450
  156SAPE   C3317428   5.057   4.780   9.785  0.6878 -0.6991 -0.0400
  156SAPE   H3X17429   5.000   4.876   9.787 -1.0216 -1.6970  2.3705
  156SAPE   H3Y17430   4.972   4.713   9.758 -1.4123  2.3878 -1.4481
  156SAPE   C3417431   5.163   4.809   9.679 -0.3289  0.1711 -0.1845
  156SAPE   H4X17432   5.229   4.721   9.663  1.4126  1.3949  0.1797
  156SAPE   H4Y17433   5.219   4.904   9.694 -2.2899  1.1294  1.3220
  156SAPE   C3517434   5.106   4.840   9.542 -0.3125 -0.0124 -0.6355
  156SAPE   H5X17435   5.020   4.910   9.549 -1.2108 -1.1112 -0.4222
  156SAPE   H5Y17436   5.076   4.742   9.499 -1.4644 -0.8583  2.0018
  156SAPE   C3617437   5.209   4.907   9.448  0.0195  0.3540  0.3681
  156SAPE   H6X17438   5.304   4.850   9.456  0.5540  0.8781 -1.7473
  156SAPE   H6Y17439   5.215   5.015   9.474 -2.0026  0.6989 -0.4998
  156SAPE   C3717440   5.175   4.889   9.301 -0.0244 -0.3829 -0.4240
  156SAPE   H7X17441   5.194   4.781   9.279  0.8879 -0.8467  2.5343
  156SAPE   H7Y17442   5.241   4.956   9.242 -2.3100  1.0710 -1.3972
  156SAPE   C3817443   5.026   4.930   9.266 -0.7034 -1.0842  0.0235
  156SAPE   H8X17444   5.015   5.040   9.272  1.5830 -0.8759  1.3484
  156SAPE   H8Y17445   4.958   4.874   9.333 -0.6682 -1.2513 -0.0776
  156SAPE   C3917446   4.967   4.898   9.127 -0.1922 -0.3742  0.7143
  156SAPE   H9X17447   4.972   4.787   9.119 -0.6001 -0.3735  0.4433
  156SAPE   H9Y17448   5.014   4.939   9.035  0.2880  0.7051  1.4320
  156SAPE  C31017449   4.816   4.924   9.127 -0.0425  0.3536 -0.4020
  156SAPE  H10X17450   4.789   5.029   9.150 -3.0418 -0.5034  0.1934
  156SAPE  H10Y17451   4.772   4.861   9.207 -1.0220  0.6110 -0.7292
  156SAPE  C31117452   4.751   4.881   8.993 -0.0823  0.3284 -0.4253
  156SAPE  H11X17453   4.645   4.852   9.008  0.2439 -0.0616  1.1387
  156SAPE  H11Y17454   4.808   4.794   8.953  0.2831 -0.3191  1.4824
  156SAPE  C31217455   4.752   4.997   8.886  0.6180  0.3949  0.0186
  156SAPE  H12X17456   4.859   5.027   8.877  1.6047 -3.2869 -1.6100
  156SAPE  H12Y17457   4.692   5.083   8.921  0.9490  0.3529  0.7073
  156SAPE  C31317458   4.707   4.934   8.762  0.0261  0.2556 -0.1601
  156SAPE  H13X17459   4.603   4.897   8.774 -0.0335  0.8732  1.2921
  156SAPE  H13Y17460   4.768   4.842   8.743 -2.4137 -1.3293 -0.6117
  156SAPE  C31417461   4.732   5.025   8.642  0.1846  0.7452 -0.1935
  156SAPE  H14X17462   4.838   5.060   8.647  0.9064 -1.4003 -0.2044
  156SAPE  H14Y17463   4.657   5.107   8.651 -1.0222 -0.4475  0.9053
  156SAPE  C31517464   4.703   4.974   8.497  1.1034  0.1353  0.8177
  156SAPE  H15X17465   4.593   4.969   8.489  1.0719  0.3542  1.1103
  156SAPE  H15Y17466   4.742   4.870   8.493  0.8088 -0.0896  2.9971
  156SAPE  C31617467   4.737   5.061   8.373  0.3667  0.5681  0.4375
  156SAPE  H16X17468   4.696   5.000   8.290 -1.4286 -0.9972  2.4199
  156SAPE  H16Y17469   4.847   5.052   8.356 -0.0485 -1.3936 -1.4134
  156SAPE  C31717470   4.687   5.206   8.369  0.7943  0.2091  0.3056
  156SAPE  H17X17471   4.745   5.258   8.448  0.4875 -1.4919  1.6611
  156SAPE  H17Y17472   4.582   5.207   8.404  0.7084 -2.4008  0.1953
  156SAPE  C31817473   4.707   5.266   8.226 -0.5272  0.3264 -0.4600
  156SAPE  H18X17474   4.646   5.204   8.155  0.5677 -1.3272  0.0109
  156SAPE  H18Y17475   4.815   5.263   8.203  0.0090 -0.4261  2.0188
  156SAPE  H18Z17476   4.673   5.371   8.223  1.9292  1.1324 -0.8217
  157SAPE     N17477   3.346   5.185  10.726  0.0617 -0.1527 -0.3102
  157SAPE   HN117478   3.315   5.244  10.646  1.0941 -0.1781 -0.7328
  157SAPE   HN217479   3.364   5.235  10.816 -0.4275  0.6157 -0.6354
  157SAPE   HN317480   3.438   5.144  10.700 -0.2682  0.5780 -2.6606
  157SAPE   C1217481   3.268   5.057  10.733 -0.7233 -0.4295 -0.6266
  157SAPE  H12A17482   3.160   5.075  10.748 -0.6370 -2.2727  2.9003
  157SAPE  H12B17483   3.297   5.001  10.825 -0.7553 -0.8564 -0.8725
  157SAPE   C1117484   3.281   4.946  10.630 -0.4902  0.0524 -0.9483
  157SAPE  H11A17485   3.279   4.995  10.531  1.2026  1.0909 -0.4867
  157SAPE  H11B17486   3.196   4.874  10.633  0.9115 -1.6375 -1.3329
  157SAPE     P17487   3.527   4.904  10.568 -0.6494 -0.4759  0.1696
  157SAPE   O1317488   3.539   5.045  10.611 -0.4896 -0.5305 -0.1252
  157SAPE   O1417489   3.632   4.811  10.616  0.2907 -0.1034  0.1879
  157SAPE   O1217490   3.398   4.857  10.637  0.8274 -0.0810 -0.5779
  157SAPE   O1117491   3.500   4.891  10.418  0.2677  0.3751  0.0650
  157SAPE    C117492   3.397   4.802  10.363 -0.3857 -0.4638  1.3595
  157SAPE    HA17493   3.386   4.703  10.414  0.0702 -1.0163  0.3946
  157SAPE    HB17494   3.299   4.854  10.356 -0.2750 -0.4208  0.1704
  157SAPE    C217495   3.438   4.770  10.218 -0.1396 -0.8658  0.7240
  157SAPE    HS17496   3.537   4.720  10.222  0.7484  0.9898  4.2445
  157SAPE   O2117497   3.450   4.898  10.138 -0.3610  0.1820 -0.6039
  157SAPE   C2117498   3.559   4.917  10.065 -0.6843 -0.1003  0.1862
  157SAPE   O2217499   3.656   4.843  10.057  0.1901  0.3182 -0.0109
  157SAPE   C2217500   3.554   5.047   9.997 -0.5000 -0.5841  0.0869
  157SAPE   H2R17501   3.462   5.045   9.935 -1.0115 -0.4078  0.8269
  157SAPE   H2S17502   3.557   5.126  10.075 -0.0874 -0.1736 -0.3462
  157SAPE    C317503   3.334   4.678  10.154  0.3747  0.6758  0.3230
  157SAPE    HX17504   3.248   4.748  10.160  0.5875  0.9044  0.6979
  157SAPE    HY17505   3.315   4.596  10.226 -1.3077  0.8409  0.0961
  157SAPE   O3117506   3.343   4.641  10.016  0.7639  0.1400 -0.2690
  157SAPE   C3117507   3.440   4.557   9.989 -0.6106  0.1215  0.3677
  157SAPE   O3217508   3.505   4.493  10.069  0.4118  0.1521  0.2371
  157SAPE   C3217509   3.455   4.544   9.841 -0.6135 -0.5243  0.8138
  157SAPE   H2X17510   3.450   4.642   9.788 -0.3597 -0.6921  0.4743
  157SAPE   H2Y17511   3.370   4.487   9.797 -0.8774  0.2815  0.2544
  157SAPE   C2317512   3.674   5.074   9.898  0.0178  0.8218 -0.8537
  157SAPE   H3R17513   3.671   4.983   9.834  0.4268  1.2356 -1.4644
  157SAPE   H3S17514   3.764   5.068   9.963 -1.9208  0.6615  1.9088
  157SAPE   C2417515   3.662   5.203   9.824 -0.2338 -0.1169  0.5930
  157SAPE   H4R17516   3.637   5.285   9.895 -3.5057  2.2816 -3.1489
  157SAPE   H4S17517   3.575   5.193   9.756  0.4761  2.4249 -0.7380
  157SAPE   C2517518   3.776   5.243   9.737  0.0966 -0.3153 -0.3212
  157SAPE   H5R17519   3.868   5.282   9.783 -0.7478  0.0909  1.0560
  157SAPE   C2617520   3.782   5.240   9.600  0.8822  0.2068 -0.1064
  157SAPE   H6R17521   3.880   5.270   9.560 -0.0102  3.3689 -0.0798
  157SAPE   C2717522   3.677   5.184   9.509 -0.2582 -0.5194 -0.2136
  157SAPE   H7R17523   3.722   5.194   9.408 -0.5581  0.8459 -0.2153
  157SAPE   H7S17524   3.584   5.244   9.519  0.1409  0.0136  0.3200
  157SAPE   C2817525   3.649   5.034   9.529 -0.0491 -0.5964  0.3588
  157SAPE   H8R17526   3.699   4.985   9.614  2.9571  2.2077  0.2927
  157SAPE   C2917527   3.579   4.959   9.445  0.6702 -0.4325  0.0429
  157SAPE   H9R17528   3.559   4.855   9.474  1.3830 -0.3716  0.7886
  157SAPE  C21017529   3.526   5.011   9.309  0.0073  0.5308 -0.9288
  157SAPE  H10R17530   3.538   4.920   9.246  1.8093 -1.3033  1.9062
  157SAPE  H10S17531   3.593   5.088   9.266  0.0413  0.4856 -0.9569
  157SAPE  C21117532   3.382   5.052   9.301 -0.1534  1.1659  0.6633
  157SAPE  H11R17533   3.334   5.064   9.400 -3.2170 -0.4977 -0.5537
  157SAPE  C21217534   3.313   5.084   9.189 -0.8425 -0.7397 -0.1655
  157SAPE  H12R17535   3.207   5.109   9.201  0.3637  4.1992  1.2539
  157SAPE  C21317536   3.365   5.066   9.047 -0.3282  0.0756 -0.5717
  157SAPE  H13R17537   3.414   4.967   9.052 -0.4051  0.1307  1.9646
  157SAPE  H13S17538   3.450   5.133   9.021  0.4809 -0.4474  0.7081
  157SAPE  C21417539   3.257   5.066   8.936  0.0964  0.5425 -0.2394
  157SAPE  H14R17540   3.256   5.157   8.875  0.7413  0.3476 -0.5479
  157SAPE  C21517541   3.158   4.975   8.920 -0.5579 -0.0295 -0.4352
  157SAPE  H15R17542   3.074   4.998   8.853 -0.8669  4.4489  1.3406
  157SAPE  C21617543   3.133   4.850   8.999  0.5861  0.2660 -0.1486
  157SAPE  H16R17544   3.042   4.846   9.062  1.0703  0.5775  0.5736
  157SAPE  H16S17545   3.215   4.822   9.069 -0.5982 -3.0675 -0.0301
  157SAPE  C21717546   3.127   4.728   8.903 -0.3063  0.6866 -0.2455
  157SAPE  H17R17547   3.137   4.633   8.959  0.3968  1.0251  0.2136
  157SAPE  H17S17548   3.208   4.722   8.826 -0.1903 -2.5502  0.0630
  157SAPE  C21817549   2.987   4.717   8.837 -0.1157 -0.0932  0.3145
  157SAPE  H18R17550   2.964   4.799   8.766  0.3566  1.3859  1.8280
  157SAPE  H18S17551   2.913   4.740   8.916 -0.7926  1.3087 -0.7161
  157SAPE  C21917552   2.975   4.581   8.770  0.0267 -0.4269 -0.1300
  157SAPE  H19R17553   2.868   4.551   8.768  0.4847 -2.1199 -0.0221
  157SAPE  H19S17554   3.031   4.504   8.826  1.9433  1.3733  0.4804
  157SAPE  C22017555   3.023   4.575   8.625  0.1324 -0.5030  0.0648
  157SAPE  H20R17556   3.131   4.599   8.624 -0.4958  2.5738  0.2477
  157SAPE  H20S17557   2.974   4.662   8.577  1.0693 -0.5318 -0.9783
  157SAPE  H20T17558   2.988   4.486   8.567 -1.7432  0.9157 -1.0451
  157SAPE   C3317559   3.574   4.470   9.787 -0.2848 -0.1566  0.5759
  157SAPE   H3X17560   3.598   4.376   9.843  0.2051 -0.5827 -0.3426
  157SAPE   H3Y17561   3.660   4.540   9.798 -1.9227  1.8429  0.9030
  157SAPE   C3417562   3.562   4.432   9.640  0.6737 -0.3605  0.0385
  157SAPE   H4X17563   3.471   4.369   9.632 -0.4233  1.5567 -4.1223
  157SAPE   H4Y17564   3.646   4.375   9.595 -0.2136  0.5237 -2.8775
  157SAPE   C3517565   3.527   4.551   9.549  0.0173 -0.1878 -0.3574
  157SAPE   H5X17566   3.606   4.629   9.556 -3.0299  2.9160  1.1180
  157SAPE   H5Y17567   3.432   4.602   9.575  0.3462  1.2183 -1.8035
  157SAPE   C3617568   3.516   4.502   9.403 -0.4795  0.5564  0.4226
  157SAPE   H6X17569   3.420   4.449   9.410  0.6593 -1.5727  0.2248
  157SAPE   H6Y17570   3.596   4.430   9.375 -1.2694  0.3377 -1.3316
  157SAPE   C3717571   3.515   4.614   9.300  0.1091  0.0292  0.1127
  157SAPE   H7X17572   3.605   4.676   9.319  0.1367 -0.2114  0.7845
  157SAPE   H7Y17573   3.429   4.671   9.342  1.8709  1.1528  2.3308
  157SAPE   C3817574   3.511   4.569   9.158  0.8638 -0.3043  0.9627
  157SAPE   H8X17575   3.421   4.509   9.134  0.6682 -0.5417  2.2545
  157SAPE   H8Y17576   3.608   4.515   9.149  0.9642  0.1548 -0.7720
  157SAPE   C3917577   3.535   4.684   9.053  0.0632  0.0205  0.1781
  157SAPE   H9X17578   3.601   4.760   9.101  0.5976 -0.6784  0.5571
  157SAPE   H9Y17579   3.443   4.740   9.026 -1.2774 -2.2240  0.0016
  157SAPE  C31017580   3.600   4.627   8.925 -0.3325  0.4539 -0.5115
  157SAPE  H10X17581   3.690   4.564   8.946 -2.3503 -2.3596 -0.0799
  157SAPE  H10Y17582   3.630   4.717   8.867  0.7172  1.2406  1.2074
  157SAPE  C31117583   3.497   4.537   8.853  0.1882  0.2615 -0.3432
  157SAPE  H11X17584   3.397   4.586   8.856  0.6432  1.1569  0.8102
  157SAPE  H11Y17585   3.481   4.448   8.917  0.1071 -0.5544 -1.4939
  157SAPE  C31217586   3.538   4.510   8.703 -0.0357  0.4621  0.5330
  157SAPE  H12X17587   3.527   4.401   8.685 -2.1799  0.5338  1.1932
  157SAPE  H12Y17588   3.647   4.528   8.693 -0.1262  0.7696  0.1077
  157SAPE  C31317589   3.448   4.590   8.608 -0.3198  0.0974 -0.0994
  157SAPE  H13X17590   3.339   4.567   8.617 -0.6131  0.1815 -2.8142
  157SAPE  H13Y17591   3.475   4.561   8.504  1.4530  1.3760 -0.0105
  157SAPE  C31417592   3.453   4.737   8.607 -0.1969 -0.7643 -0.4172
  157SAPE  H14X17593   3.541   4.767   8.547  1.6015  0.6980  2.8123
  157SAPE  H14Y17594   3.475   4.766   8.712 -0.6534  1.6923 -0.9671
  157SAPE  C31517595   3.323   4.794   8.554 -0.1532  1.1700 -0.1659
  157SAPE  H15X17596   3.232   4.775   8.614  0.3938 -0.9520  0.0229
  157SAPE  H15Y17597   3.302   4.742   8.458  2.0485  0.2795 -0.1949
  157SAPE  C31617598   3.332   4.943   8.530  0.3421  0.4722  0.3378
  157SAPE  H16X17599   3.408   4.958   8.449  0.1396 -2.5223 -0.4927
  157SAPE  H16Y17600   3.352   5.005   8.620  0.1813  0.1479  0.5947
  157SAPE  C31717601   3.194   5.001   8.490  0.5751  0.3181 -0.5666
  157SAPE  H17X17602   3.120   5.014   8.572 -0.7452  2.7444 -2.1020
  157SAPE  H17Y17603   3.155   4.931   8.413 -1.8368  0.9887 -0.0090
  157SAPE  C31817604   3.203   5.139   8.430  0.1920 -0.0788 -0.4326
  157SAPE  H18X17605   3.296   5.154   8.371  0.8008 -2.6384 -0.1600
  157SAPE  H18Y17606   3.213   5.220   8.505 -0.0576 -1.7304  1.4279
  157SAPE  H18Z17607   3.114   5.159   8.367  0.7611  0.2925 -1.1224
  158SAPE     N17608   5.439   4.959  10.807  0.5160 -0.2768 -0.0544
  158SAPE   HN117609   5.455   4.887  10.733 -1.0651 -0.8047  0.1153
  158SAPE   HN217610   5.446   5.055  10.768  3.0460  0.4838  2.0930
  158SAPE   HN317611   5.504   4.943  10.887  1.6970  0.9818 -0.7318
  158SAPE   C1217612   5.294   4.955  10.842 -0.3462 -0.3704 -0.5470
  158SAPE  H12A17613   5.282   5.036  10.917  0.2172  1.3592 -2.2755
  158SAPE  H12B17614   5.273   4.852  10.876 -1.3643 -0.3496 -1.0785
  158SAPE   C1117615   5.198   4.995  10.726  0.2483  0.2075  0.0149
  158SAPE  H11A17616   5.097   4.995  10.773  0.2375  1.4933  0.0249
  158SAPE  H11B17617   5.206   4.924  10.642 -1.5011 -0.2890  0.2433
  158SAPE     P17618   5.137   5.210  10.585  0.0879 -0.0163  0.2172
  158SAPE   O1317619   5.000   5.197  10.642 -0.0958 -0.3732  0.4900
  158SAPE   O1417620   5.173   5.350  10.559  0.7368  0.3562  0.2418
  158SAPE   O1217621   5.234   5.128  10.683  0.2774  0.1784 -0.3167
  158SAPE   O1117622   5.157   5.122  10.462 -0.1879  0.0374  0.3403
  158SAPE    C117623   5.274   5.098  10.385  0.3574  0.1387 -0.2622
  158SAPE    HA17624   5.369   5.130  10.433  0.4059 -3.5310  2.3462
  158SAPE    HB17625   5.294   4.990  10.370 -0.5034 -0.2379  1.1399
  158SAPE    C217626   5.263   5.179  10.260 -0.9914 -0.3987  0.2770
  158SAPE    HS17627   5.266   5.287  10.288  1.0423 -0.5422  0.6588
  158SAPE   O2117628   5.156   5.137  10.173 -0.6839 -0.1357 -0.2032
  158SAPE   C2117629   5.081   5.231  10.131 -0.8475  0.0489 -0.3889
  158SAPE   O2217630   5.092   5.351  10.167  0.0301 -0.1557  0.4871
  158SAPE   C2217631   4.993   5.172  10.030 -0.1416  0.4560  0.7162
  158SAPE   H2R17632   5.045   5.095   9.970  0.0811  0.6764  0.6218
  158SAPE   H2S17633   4.916   5.115  10.085  1.1237 -2.1826 -0.1733
  158SAPE    C317634   5.402   5.149  10.193  0.9300  0.4022 -0.0883
  158SAPE    HX17635   5.408   5.038  10.195 -0.7815  0.3109  2.6640
  158SAPE    HY17636   5.487   5.184  10.256  2.3583 -1.4508 -0.9434
  158SAPE   O3117637   5.396   5.202  10.057  0.2902 -0.1353  0.6063
  158SAPE   C3117638   5.443   5.328  10.048  0.8649  0.1213 -0.3458
  158SAPE   O3217639   5.482   5.396  10.139 -0.1307  0.1235 -0.3191
  158SAPE   C3217640   5.438   5.379   9.897 -0.3347 -0.1093 -0.4979
  158SAPE   H2X17641   5.548   5.390   9.883  0.2296 -3.2617  0.9852
  158SAPE   H2Y17642   5.398   5.482   9.899  1.7972  0.7461 -0.3491
  158SAPE   C2317643   4.947   5.283   9.931  0.1313  0.1438 -0.1521
  158SAPE   H3R17644   5.040   5.326   9.890  0.6618 -0.9359 -0.1093
  158SAPE   H3S17645   4.888   5.364   9.979 -1.0142  0.2520 -1.7451
  158SAPE   C2417646   4.872   5.215   9.820 -0.5116  0.3047  0.4586
  158SAPE   H4R17647   4.789   5.149   9.852 -0.0569 -0.1453  0.7172
  158SAPE   H4S17648   4.943   5.146   9.768 -2.5015 -1.1028 -0.4311
  158SAPE   C2517649   4.804   5.312   9.728  0.0010 -0.3076  0.2984
  158SAPE   H5R17650   4.754   5.398   9.775 -1.3311 -0.7347 -0.3143
  158SAPE   C2617651   4.811   5.301   9.598 -0.2583  0.3096  0.0679
  158SAPE   H6R17652   4.754   5.376   9.542  0.1741 -0.6738 -1.7246
  158SAPE   C2717653   4.876   5.192   9.500  0.6547 -0.7232 -0.3070
  158SAPE   H7R17654   4.801   5.151   9.429  0.7792 -1.5829  0.0560
  158SAPE   H7S17655   4.903   5.099   9.554 -2.0126 -0.9097  0.8088
  158SAPE   C2817656   4.992   5.254   9.435 -0.1552  0.0999  0.1473
  158SAPE   H8R17657   5.079   5.258   9.502  0.7747  2.6212 -1.1541
  158SAPE   C2917658   4.997   5.335   9.333  0.2885 -0.0825  0.4065
  158SAPE   H9R17659   5.096   5.368   9.297 -0.6502  1.0079 -1.1897
  158SAPE  C21017660   4.880   5.359   9.239 -0.5312 -0.1530  0.6881
  158SAPE  H10R17661   4.789   5.373   9.302 -0.4399 -0.8288  0.9710
  158SAPE  H10S17662   4.862   5.270   9.175 -1.6139 -0.1391  0.9622
  158SAPE  C21117663   4.889   5.478   9.151 -0.3147  0.4454 -0.0025
  158SAPE  H11R17664   4.934   5.564   9.203 -2.1667  0.3792  1.7663
  158SAPE  C21217665   4.856   5.481   9.022 -0.0115 -0.0936  0.3777
  158SAPE  H12R17666   4.893   5.573   8.974  2.6220 -0.8625  0.8484
  158SAPE  C21317667   4.786   5.376   8.935 -0.1550  0.5289 -0.0161
  158SAPE  H13R17668   4.745   5.293   8.997 -2.2132  1.8743  0.4747
  158SAPE  H13S17669   4.875   5.339   8.879 -1.3634  1.4825 -2.6660
  158SAPE  C21417670   4.671   5.402   8.839  0.1553  0.2459  0.5566
  158SAPE  H14R17671   4.584   5.341   8.869 -0.5517  0.0624 -1.7451
  158SAPE  C21517672   4.681   5.479   8.727  0.2517  0.2569 -0.4904
  158SAPE  H15R17673   4.594   5.501   8.664  1.1262 -1.5254 -2.3537
  158SAPE  C21617674   4.794   5.565   8.682 -0.0294 -0.5640 -0.7273
  158SAPE  H16R17675   4.853   5.592   8.772  0.7004 -1.6007 -0.8937
  158SAPE  H16S17676   4.736   5.656   8.657 -0.5903 -0.4389  0.9181
  158SAPE  C21717677   4.895   5.517   8.569  0.2033  0.3600 -0.0652
  158SAPE  H17R17678   4.978   5.590   8.562  1.5923 -1.1619  0.1827
  158SAPE  H17S17679   4.842   5.521   8.471  3.2903  1.0903 -1.7431
  158SAPE  C21817680   4.944   5.374   8.607 -0.0101  0.5398  0.4125
  158SAPE  H18R17681   4.854   5.311   8.617  0.5096 -0.1032  1.1589
  158SAPE  H18S17682   5.002   5.369   8.703  1.0243  1.2754 -0.1586
  158SAPE  C21917683   5.034   5.313   8.495  0.1624 -0.3647 -0.3563
  158SAPE  H19R17684   5.122   5.378   8.474  1.1605 -0.9049  2.0849
  158SAPE  H19S17685   4.971   5.315   8.403  1.1717 -1.7912 -1.1006
  158SAPE  C22017686   5.085   5.170   8.528  0.7677  1.1661 -0.0506
  158SAPE  H20R17687   4.998   5.102   8.530  2.0887 -0.5565  0.2681
  158SAPE  H20S17688   5.120   5.154   8.632 -0.7404 -0.3853  0.2293
  158SAPE  H20T17689   5.152   5.129   8.450 -0.0131 -0.0246 -0.0966
  158SAPE   C3317690   5.375   5.284   9.797  0.2250 -0.0827  0.1740
  158SAPE   H3X17691   5.267   5.310   9.798  0.6254  1.6398 -0.6980
  158SAPE   H3Y17692   5.388   5.175   9.817 -0.8265 -0.0163  1.2800
  158SAPE   C3417693   5.425   5.310   9.655  0.6338  0.0525 -0.0769
  158SAPE   H4X17694   5.512   5.379   9.652  1.6849 -1.2760 -1.9292
  158SAPE   H4Y17695   5.344   5.359   9.597  0.0205  0.3900  1.0603
  158SAPE   C3517696   5.464   5.187   9.573 -0.1849  0.2390 -0.2386
  158SAPE   H5X17697   5.381   5.114   9.589 -3.2256  3.3150 -1.2785
  158SAPE   H5Y17698   5.561   5.155   9.617 -0.8118 -1.0365  0.2575
  158SAPE   C3617699   5.479   5.221   9.422  0.2150  0.0481 -1.0168
  158SAPE   H6X17700   5.542   5.312   9.416  0.0751  0.1015 -1.7633
  158SAPE   H6Y17701   5.381   5.253   9.379  0.1897  2.0433  0.4368
  158SAPE   C3717702   5.520   5.113   9.328 -0.1739  0.2780  0.1187
  158SAPE   H7X17703   5.437   5.060   9.276  0.5857 -2.1680  1.2821
  158SAPE   H7Y17704   5.587   5.041   9.380 -0.5068 -0.1277 -0.0075
  158SAPE   C3817705   5.611   5.155   9.205 -0.5470  0.3356  0.5491
  158SAPE   H8X17706   5.705   5.199   9.244 -0.5078  0.4543  0.3205
  158SAPE   H8Y17707   5.553   5.225   9.141 -2.7704 -1.2281  0.7987
  158SAPE   C3917708   5.631   5.037   9.115  0.2622  0.1824 -0.5914
  158SAPE   H9X17709   5.534   4.985   9.100 -0.7914  1.2478  2.0475
  158SAPE   H9Y17710   5.690   4.969   9.180  0.9655  1.4272  0.1004
  158SAPE  C31017711   5.694   5.072   8.981 -0.2669 -0.1637 -0.1663
  158SAPE  H10X17712   5.732   4.981   8.930  0.8547 -0.2088  0.7228
  158SAPE  H10Y17713   5.788   5.129   8.993  0.0730 -0.7176 -0.2002
  158SAPE  C31117714   5.591   5.151   8.887 -0.6645  0.0902 -0.1001
  158SAPE  H11X17715   5.581   5.251   8.935  0.5555 -0.5817  1.6094
  158SAPE  H11Y17716   5.490   5.107   8.878 -0.6167 -0.6301  2.4709
  158SAPE  C31217717   5.651   5.184   8.748  0.5388  0.4253 -0.3742
  158SAPE  H12X17718   5.758   5.213   8.754  0.6750 -0.4340  1.9441
  158SAPE  H12Y17719   5.588   5.264   8.704  1.3614  1.4648  0.3133
  158SAPE  C31317720   5.649   5.072   8.641 -0.2607 -0.1184 -0.4045
  158SAPE  H13X17721   5.687   4.997   8.712 -2.7629 -1.1762 -0.1480
  158SAPE  H13Y17722   5.723   5.088   8.560  0.4979  1.0288  0.4988
  158SAPE  C31417723   5.507   5.037   8.587 -0.8213 -1.5451  0.1936
  158SAPE  H14X17724   5.429   5.042   8.666 -0.1651 -0.8436  0.8078
  158SAPE  H14Y17725   5.513   4.930   8.556  0.2264 -1.7219  0.9604
  158SAPE  C31517726   5.471   5.114   8.462 -0.2789 -0.1214  0.3431
  158SAPE  H15X17727   5.366   5.095   8.433 -1.1940  3.3439  1.1554
  158SAPE  H15Y17728   5.534   5.071   8.380 -1.8830  2.3739 -2.3009
  158SAPE  C31617729   5.500   5.269   8.467 -0.0539  0.1880  0.0574
  158SAPE  H16X17730   5.610   5.288   8.474 -0.3261  1.3662  1.1503
  158SAPE  H16Y17731   5.451   5.318   8.553  0.0209  1.6508 -0.7103
  158SAPE  C31717732   5.446   5.337   8.341  0.4417 -0.6788 -0.0098
  158SAPE  H17X17733   5.337   5.318   8.333 -0.0159  0.7948  2.0708
  158SAPE  H17Y17734   5.503   5.287   8.260  0.2221 -2.8213  1.1233
  158SAPE  C31817735   5.464   5.493   8.333  0.2966  0.6819 -0.7383
  158SAPE  H18X17736   5.447   5.538   8.233  1.0021  1.4660 -0.5140
  158SAPE  H18Y17737   5.566   5.521   8.366 -0.2762 -0.2696  2.0060
  158SAPE  H18Z17738   5.399   5.532   8.414  1.8005  0.5378  0.5635
  159SAPE     N17739   4.464   1.844   6.261  0.3155  0.0150 -0.0154
  159SAPE   HN117740   4.382   1.786   6.287  0.2631  1.2388  2.6824
  159SAPE   HN217741   4.508   1.784   6.188  1.1087 -1.3171  1.5093
  159SAPE   HN317742   4.541   1.835   6.330  0.4303 -0.7323 -0.2298
  159SAPE   C1217743   4.423   1.985   6.209 -0.0881  0.1656 -0.8790
  159SAPE  H12A17744   4.337   2.012   6.274 -0.3581  0.0239 -1.1767
  159SAPE  H12B17745   4.390   1.989   6.103 -2.1730  2.2005 -0.1864
  159SAPE   C1117746   4.539   2.080   6.239  0.1644 -0.1037 -0.2096
  159SAPE  H11A17747   4.508   2.182   6.208  3.4097  1.2574  0.8697
  159SAPE  H11B17748   4.627   2.055   6.177  0.1359  0.4459 -0.4648
  159SAPE     P17749   4.708   2.172   6.420 -0.7369  0.4230 -0.0535
  159SAPE   O1317750   4.823   2.123   6.346 -0.2250 -0.5260  0.7133
  159SAPE   O1417751   4.656   2.312   6.397 -0.4669  0.2727 -0.0424
  159SAPE   O1217752   4.586   2.075   6.379 -0.6616 -0.4672  0.2195
  159SAPE   O1117753   4.725   2.133   6.571  0.0600 -0.2313 -0.0026
  159SAPE    C117754   4.624   2.099   6.662  0.7253  0.1163  0.5332
  159SAPE    HA17755   4.532   2.158   6.647  1.5228  1.1585 -0.3491
  159SAPE    HB17756   4.600   1.991   6.665  2.5377 -0.2971  1.2725
  159SAPE    C217757   4.683   2.127   6.808  0.6157  0.1640  0.0769
  159SAPE    HS17758   4.614   2.065   6.870 -0.3794  0.9991 -0.1782
  159SAPE   O2117759   4.683   2.268   6.848  0.1643 -0.0736 -0.5993
  159SAPE   C2117760   4.563   2.325   6.864 -0.4108  0.1211  0.8692
  159SAPE   O2217761   4.458   2.263   6.873  0.3849 -0.0926  0.5030
  159SAPE   C2217762   4.584   2.477   6.873 -0.1559  0.6480  0.1707
  159SAPE   H2R17763   4.644   2.494   6.781  0.0648  0.5538  0.2962
  159SAPE   H2S17764   4.485   2.528   6.868 -1.0200 -1.1266 -1.0632
  159SAPE    C317765   4.832   2.078   6.811 -0.2148  0.1674 -0.4692
  159SAPE    HX17766   4.902   2.143   6.754 -2.2815  0.5727 -2.5955
  159SAPE    HY17767   4.828   1.976   6.766  0.4126  0.8373 -2.0963
  159SAPE   O3117768   4.878   2.079   6.950 -0.3654 -0.5844  0.1521
  159SAPE   C3117769   4.991   2.014   6.970  0.1706  0.3152 -0.2495
  159SAPE   O3217770   5.066   1.967   6.880 -0.1802 -0.3048 -0.1023
  159SAPE   C3217771   5.010   1.996   7.124 -0.0798  0.4299 -0.2666
  159SAPE   H2X17772   4.929   2.038   7.187 -1.0701 -3.3088  1.0622
  159SAPE   H2Y17773   5.105   2.052   7.137  0.0469  0.2409 -0.3717
  159SAPE   C2317774   4.675   2.516   6.992 -0.0434 -0.1363 -0.3805
  159SAPE   H3R17775   4.743   2.602   6.976 -0.0126 -0.3715 -1.6136
  159SAPE   H3S17776   4.756   2.444   7.019  0.2111  1.2063  2.6005
  159SAPE   C2417777   4.595   2.549   7.124  0.3717 -0.2751  0.1882
  159SAPE   H4R17778   4.522   2.627   7.095 -0.0645 -0.2392  1.3606
  159SAPE   H4S17779   4.672   2.580   7.198  0.4607 -1.6170  0.6724
  159SAPE   C2517780   4.520   2.431   7.183 -0.0545 -0.4750 -1.0016
  159SAPE   H5R17781   4.473   2.359   7.114  2.3155 -1.7490 -1.3260
  159SAPE   C2617782   4.524   2.383   7.310  0.2171 -0.6252  0.3420
  159SAPE   H6R17783   4.478   2.284   7.319  0.5841 -0.9261 -1.0573
  159SAPE   C2717784   4.586   2.452   7.426 -0.5030 -0.6970 -0.0064
  159SAPE   H7R17785   4.596   2.562   7.419  0.2327 -0.7648  0.0227
  159SAPE   H7S17786   4.691   2.416   7.422 -1.5166 -3.6985 -3.4098
  159SAPE   C2817787   4.510   2.413   7.547  0.5876 -0.6168 -0.3791
  159SAPE   H8R17788   4.416   2.359   7.530 -0.2276  0.8789 -0.6753
  159SAPE   C2917789   4.553   2.446   7.670  0.0729  0.3614 -0.5119
  159SAPE   H9R17790   4.493   2.409   7.753  0.0457  1.3312 -0.0879
  159SAPE  C21017791   4.682   2.515   7.714 -0.3688  0.0438 -0.1216
  159SAPE  H10R17792   4.655   2.612   7.760 -1.4543  0.4788 -1.6345
  159SAPE  H10S17793   4.733   2.542   7.620  0.1712 -0.1588  0.1096
  159SAPE  C21117794   4.769   2.435   7.806  0.1754  0.1209 -0.0862
  159SAPE  H11R17795   4.852   2.383   7.755 -0.0732  0.5579 -0.9528
  159SAPE  C21217796   4.747   2.418   7.934  0.0327 -0.4646 -0.7953
  159SAPE  H12R17797   4.809   2.341   7.985  0.9790  1.4305  0.9953
  159SAPE  C21317798   4.635   2.469   8.021 -0.0005 -0.0439  0.6839
  159SAPE  H13R17799   4.609   2.381   8.083 -0.2257 -1.4546 -1.3610
  159SAPE  H13S17800   4.543   2.500   7.966  1.4793 -1.4649 -2.7425
  159SAPE  C21417801   4.692   2.586   8.092 -0.4437  0.3464  0.0564
  159SAPE  H14R17802   4.676   2.685   8.046 -1.7011  1.2422  2.3256
  159SAPE  C21517803   4.776   2.585   8.200  0.3679 -0.1186  0.2569
  159SAPE  H15R17804   4.802   2.681   8.245 -1.6288 -0.4492  2.1921
  159SAPE  C21617805   4.836   2.467   8.273 -0.3129  1.0372 -0.4523
  159SAPE  H16R17806   4.786   2.371   8.248  3.2568 -0.9088 -0.4041
  159SAPE  H16S17807   4.821   2.480   8.382 -2.7716  1.2173 -0.7933
  159SAPE  C21717808   4.987   2.417   8.264  0.2405  0.0878 -0.5594
  159SAPE  H17R17809   5.018   2.326   8.319  0.1298 -0.6212 -1.6478
  159SAPE  H17S17810   5.045   2.490   8.324  0.4877 -0.0405 -0.6412
  159SAPE  C21817811   5.052   2.414   8.124  0.2843 -1.0490 -0.0570
  159SAPE  H18R17812   5.022   2.503   8.065  0.2695 -0.4892  0.7937
  159SAPE  H18S17813   5.000   2.335   8.066 -2.4591  0.7741 -0.1180
  159SAPE  C21917814   5.207   2.411   8.120 -0.3197 -0.2320  1.1864
  159SAPE  H19R17815   5.243   2.327   8.184  0.7806  0.2857  1.2563
  159SAPE  H19S17816   5.232   2.507   8.171 -2.9360  1.3840 -0.4685
  159SAPE  C22017817   5.263   2.404   7.979 -0.3651 -0.3612  0.5645
  159SAPE  H20R17818   5.373   2.414   7.974 -0.4432 -0.5047 -2.1767
  159SAPE  H20S17819   5.212   2.481   7.917  1.5619 -0.6139 -1.3854
  159SAPE  H20T17820   5.235   2.304   7.941  0.9602 -1.1425  1.6179
  159SAPE   C3317821   5.017   1.843   7.167  0.4029 -0.1237 -0.0473
  159SAPE   H3X17822   5.081   1.793   7.091  0.2246 -0.9164  0.3249
  159SAPE   H3Y17823   4.918   1.796   7.150  0.3116  0.7370 -1.9557
  159SAPE   C3417824   5.060   1.814   7.310  0.0236  0.0174 -0.2370
  159SAPE   H4X17825   4.970   1.831   7.373 -2.4698 -1.4780 -3.2756
  159SAPE   H4Y17826   5.136   1.884   7.352  2.5790 -2.5163 -0.4696
  159SAPE   C3517827   5.095   1.664   7.340 -0.2538  0.3243  0.7813
  159SAPE   H5X17828   5.191   1.647   7.287 -1.7562 -0.3671 -1.7992
  159SAPE   H5Y17829   5.035   1.585   7.290  1.5203 -1.6592  1.7109
  159SAPE   C3617830   5.122   1.653   7.487 -0.3554 -0.5595 -0.6731
  159SAPE   H6X17831   5.038   1.678   7.556 -0.4112  0.4136 -1.0824
  159SAPE   H6Y17832   5.199   1.729   7.510 -1.3988  0.3063  0.0055
  159SAPE   C3717833   5.194   1.523   7.517  0.7185 -0.4237  0.1967
  159SAPE   H7X17834   5.274   1.497   7.445  0.8579 -1.0552  0.5726
  159SAPE   H7Y17835   5.124   1.436   7.515 -1.0006  0.9415 -0.9309
  159SAPE   C3817836   5.262   1.515   7.660  0.4836  0.0013 -0.0083
  159SAPE   H8X17837   5.353   1.578   7.670 -0.3949  0.9923  1.9548
  159SAPE   H8Y17838   5.296   1.409   7.665 -2.3414 -0.8698  1.6535
  159SAPE   C3917839   5.162   1.541   7.772 -0.0992  0.1600 -0.8729
  159SAPE   H9X17840   5.077   1.470   7.758 -1.6291  1.5549  1.0205
  159SAPE   H9Y17841   5.121   1.644   7.778 -0.0137  0.2040 -1.0287
  159SAPE  C31017842   5.226   1.504   7.908  0.0714 -0.2978 -0.1557
  159SAPE  H10X17843   5.324   1.556   7.903 -0.4644  0.7065 -0.3284
  159SAPE  H10Y17844   5.236   1.394   7.898  2.1484 -0.1936  0.4981
  159SAPE  C31117845   5.146   1.523   8.037 -0.1343  0.5612 -0.3087
  159SAPE  H11X17846   5.051   1.465   8.031  0.6346 -0.9973  1.7596
  159SAPE  H11Y17847   5.115   1.630   8.040  0.9974  0.8944 -0.0354
  159SAPE  C31217848   5.220   1.485   8.163 -0.0046 -0.4865 -0.0788
  159SAPE  H12X17849   5.314   1.544   8.169 -1.0424  1.0157  2.6751
  159SAPE  H12Y17850   5.249   1.377   8.164 -0.3716 -0.6213 -1.9364
  159SAPE  C31317851   5.137   1.518   8.289 -0.6495 -0.1893 -0.2453
  159SAPE  H13X17852   5.032   1.480   8.292 -1.5638  2.2746  0.6486
  159SAPE  H13Y17853   5.134   1.628   8.305 -1.8338 -0.1529 -0.6796
  159SAPE  C31417854   5.212   1.462   8.417 -0.3337  0.3824 -0.9742
  159SAPE  H14X17855   5.306   1.521   8.423 -0.0803 -0.0763 -0.4328
  159SAPE  H14Y17856   5.242   1.355   8.412 -1.1622  0.1396 -0.8260
  159SAPE  C31517857   5.127   1.475   8.543 -0.0542  0.1427  0.6545
  159SAPE  H15X17858   5.037   1.410   8.532  0.2301 -0.0729 -0.5105
  159SAPE  H15Y17859   5.098   1.582   8.546 -1.4937 -0.1852 -0.6693
  159SAPE  C31617860   5.211   1.421   8.657 -0.3225  0.2251  0.7982
  159SAPE  H16X17861   5.282   1.504   8.677  0.1086  0.5952 -2.0843
  159SAPE  H16Y17862   5.269   1.329   8.634  0.1107  0.1567  2.1170
  159SAPE  C31717863   5.123   1.377   8.781 -0.1936  0.8061 -0.2316
  159SAPE  H17X17864   5.194   1.330   8.851  1.2817  2.1126 -0.8180
  159SAPE  H17Y17865   5.053   1.292   8.763  2.1370 -1.5383  1.4198
  159SAPE  C31817866   5.052   1.491   8.850 -0.4995  0.7377 -0.0671
  159SAPE  H18X17867   5.123   1.574   8.870 -0.8026  1.0713 -0.3599
  159SAPE  H18Y17868   4.999   1.452   8.939 -0.1471 -1.5248 -0.7945
  159SAPE  H18Z17869   4.985   1.541   8.777 -1.0017 -0.1402 -0.2097
  160SAPE     N17870   3.243   3.662   6.356 -0.4044 -0.3152  0.5026
  160SAPE   HN117871   3.150   3.698   6.328  0.2091  0.9163  0.0064
  160SAPE   HN217872   3.266   3.709   6.446  2.2320  1.0463 -0.8277
  160SAPE   HN317873   3.305   3.685   6.276  0.4535  0.4792  1.3807
  160SAPE   C1217874   3.224   3.519   6.400 -0.5652  0.3724 -0.4295
  160SAPE  H12A17875   3.321   3.468   6.415  1.6051  4.6267  0.8351
  160SAPE  H12B17876   3.158   3.480   6.320  0.1182  1.1259 -1.3629
  160SAPE   C1117877   3.136   3.515   6.527 -0.5412 -0.2877  0.4661
  160SAPE  H11A17878   3.188   3.562   6.613  1.4415  2.1078 -1.9407
  160SAPE  H11B17879   3.116   3.408   6.547 -1.4179 -0.0302  1.0001
  160SAPE     P17880   2.876   3.516   6.476  0.0916  0.0094 -0.3413
  160SAPE   O1317881   2.778   3.622   6.439 -0.4140  0.3849 -0.9449
  160SAPE   O1417882   2.899   3.407   6.378  0.1839  0.4564  0.5617
  160SAPE   O1217883   3.017   3.582   6.504  0.3914 -0.2166  0.0586
  160SAPE   O1117884   2.833   3.444   6.614 -0.0973  0.1164 -0.7602
  160SAPE    C117885   2.843   3.502   6.744 -0.2361 -0.0240  0.2337
  160SAPE    HA17886   2.909   3.591   6.751  0.9302 -0.6342 -2.3768
  160SAPE    HB17887   2.739   3.528   6.776 -0.4374  0.1271 -0.5412
  160SAPE    C217888   2.924   3.413   6.846 -0.4098  0.0385  0.3725
  160SAPE    HS17889   3.024   3.407   6.800 -0.6041  0.6243 -0.1351
  160SAPE   O2117890   2.851   3.288   6.859 -0.4682  0.0096  0.0767
  160SAPE   C2117891   2.931   3.180   6.874 -0.0110 -0.1320 -0.1951
  160SAPE   O2217892   3.054   3.189   6.869  0.0099  0.0539 -0.0339
  160SAPE   C2217893   2.848   3.059   6.899 -0.5797  0.0130 -0.4483
  160SAPE   H2R17894   2.781   3.053   6.811 -1.5554 -0.5449  0.3233
  160SAPE   H2S17895   2.917   2.972   6.905 -1.7473 -0.8612  0.8445
  160SAPE    C317896   2.943   3.494   6.982 -0.4382 -0.4155  0.4167
  160SAPE    HX17897   2.840   3.512   7.018 -1.0128  2.4396 -2.3502
  160SAPE    HY17898   2.986   3.595   6.965  1.1050 -1.0421  0.4897
  160SAPE   O3117899   3.015   3.412   7.080 -0.0687  0.3767 -0.9745
  160SAPE   C3117900   3.142   3.403   7.062 -1.1662 -0.3831  0.5237
  160SAPE   O3217901   3.203   3.468   6.980  0.4039  0.1703  0.1329
  160SAPE   C3217902   3.203   3.285   7.144  0.1704 -0.0984  0.4458
  160SAPE   H2X17903   3.286   3.242   7.084 -0.4091 -1.5935  0.6919
  160SAPE   H2Y17904   3.127   3.204   7.153 -0.7775  0.5827 -1.1171
  160SAPE   C2317905   2.770   3.050   7.034  0.2592 -0.3359 -0.1696
  160SAPE   H3R17906   2.706   2.960   7.034 -0.4790  0.1220 -3.0895
  160SAPE   H3S17907   2.705   3.140   7.042  1.3096  0.5433 -1.2033
  160SAPE   C2417908   2.862   3.044   7.153  0.0006 -0.2996 -0.5168
  160SAPE   H4R17909   2.942   3.118   7.136 -0.7105  0.5063 -0.3765
  160SAPE   H4S17910   2.911   2.944   7.148 -1.5265 -1.0166 -2.0996
  160SAPE   C2517911   2.794   3.058   7.287  0.2940  0.0347 -0.0708
  160SAPE   H5R17912   2.728   3.147   7.285  0.5438  0.1978 -1.3915
  160SAPE   C2617913   2.792   2.982   7.400 -0.0558 -0.0924  0.1650
  160SAPE   H6R17914   2.746   3.031   7.487  0.5580 -0.7516  0.8634
  160SAPE   C2717915   2.865   2.851   7.442  0.2842 -0.1336 -0.3772
  160SAPE   H7R17916   2.896   2.850   7.548  1.2611 -3.9917 -0.6476
  160SAPE   H7S17917   2.962   2.844   7.387  0.1246 -1.1804 -0.5326
  160SAPE   C2817918   2.799   2.726   7.391  0.2224 -0.5178  0.4826
  160SAPE   H8R17919   2.725   2.737   7.311 -0.2755 -1.0240  0.8674
  160SAPE   C2917920   2.815   2.608   7.448 -0.8276  0.2992  0.6607
  160SAPE   H9R17921   2.776   2.511   7.412  1.8275 -0.5606  0.0327
  160SAPE  C21017922   2.906   2.576   7.566 -0.2883 -0.2502 -0.3463
  160SAPE  H10R17923   2.853   2.610   7.657  1.8844 -2.8408  1.9697
  160SAPE  H10S17924   2.998   2.637   7.568 -0.4082 -0.0231 -1.2521
  160SAPE  C21117925   2.942   2.430   7.586 -0.0987  0.2681 -0.5443
  160SAPE  H11R17926   3.010   2.392   7.508 -0.4001  3.3688 -2.4281
  160SAPE  C21217927   2.889   2.346   7.681  0.4738 -0.1539 -0.6299
  160SAPE  H12R17928   2.921   2.241   7.673  0.5816 -0.1534 -0.2255
  160SAPE  C21317929   2.793   2.383   7.787  0.0376  0.2501 -0.2745
  160SAPE  H13R17930   2.701   2.417   7.735 -0.4890 -0.2364  0.3249
  160SAPE  H13S17931   2.806   2.484   7.832  2.8292 -0.2871  0.2049
  160SAPE  C21417932   2.762   2.279   7.894  0.3662 -0.3109  0.0689
  160SAPE  H14R17933   2.689   2.203   7.863 -1.0583  1.1426 -0.1625
  160SAPE  C21517934   2.812   2.282   8.020  0.1513 -0.0958  0.5055
  160SAPE  H15R17935   2.781   2.207   8.094 -1.4664 -0.2514 -0.3105
  160SAPE  C21617936   2.900   2.380   8.089  0.4243  0.0358  0.0622
  160SAPE  H16R17937   2.967   2.427   8.014 -1.3837  2.4396 -0.1139
  160SAPE  H16S17938   2.958   2.330   8.170 -1.9840  1.6119  2.8611
  160SAPE  C21717939   2.810   2.494   8.139 -0.4467 -0.4079 -0.2838
  160SAPE  H17R17940   2.722   2.463   8.200 -0.8367  0.4649 -0.4085
  160SAPE  H17S17941   2.771   2.551   8.053 -2.3661  0.1070  0.8860
  160SAPE  C21817942   2.879   2.585   8.241  0.3783 -0.0241 -0.4553
  160SAPE  H18R17943   2.972   2.613   8.188  3.5122 -2.5335  3.3639
  160SAPE  H18S17944   2.923   2.536   8.331 -1.7409  0.1391  0.7275
  160SAPE  C21917945   2.795   2.704   8.285 -0.1519 -0.1694  0.4494
  160SAPE  H19R17946   2.756   2.762   8.198 -1.1145 -0.2419  0.8273
  160SAPE  H19S17947   2.859   2.771   8.347 -0.2857 -0.3962  0.8314
  160SAPE  C22017948   2.678   2.659   8.366 -0.0905 -0.1359  0.2642
  160SAPE  H20R17949   2.712   2.590   8.446 -2.6590 -0.6379  0.9614
  160SAPE  H20S17950   2.597   2.616   8.303  0.9178  0.3103 -1.3640
  160SAPE  H20T17951   2.634   2.751   8.410 -1.3200 -0.2039 -0.7846
  160SAPE   C3317952   3.277   3.320   7.276  0.3861  0.4753 -0.5142
  160SAPE   H3X17953   3.350   3.403   7.263  0.5502  0.0943 -2.1008
  160SAPE   H3Y17954   3.334   3.231   7.310 -0.5990  0.1693  0.3715
  160SAPE   C3417955   3.177   3.339   7.391 -0.5429 -0.1728  0.5445
  160SAPE   H4X17956   3.101   3.260   7.377 -1.2396  0.4676  0.6556
  160SAPE   H4Y17957   3.123   3.435   7.375  1.0567  0.6110 -0.2799
  160SAPE   C3517958   3.235   3.314   7.530 -0.2096 -0.0881 -0.4049
  160SAPE   H5X17959   3.307   3.230   7.523  1.1668  1.1241 -1.1896
  160SAPE   H5Y17960   3.152   3.291   7.599 -0.1949  1.6412  0.2121
  160SAPE   C3617961   3.312   3.441   7.579 -1.0233 -0.0138 -0.1117
  160SAPE   H6X17962   3.296   3.527   7.509 -0.2463  0.7419  0.6214
  160SAPE   H6Y17963   3.421   3.420   7.577 -0.5022  2.3567  1.1383
  160SAPE   C3717964   3.279   3.475   7.729  0.4044  0.1468 -0.0174
  160SAPE   H7X17965   3.299   3.379   7.782  0.4629  1.0172  1.5750
  160SAPE   H7Y17966   3.174   3.509   7.738 -0.8633 -2.7972 -2.7678
  160SAPE   C3817967   3.369   3.581   7.786 -0.1755  0.1172  0.3048
  160SAPE   H8X17968   3.347   3.685   7.753  0.7028  1.0287  2.4748
  160SAPE   H8Y17969   3.470   3.563   7.743 -0.0123  0.5780  0.4913
  160SAPE   C3917970   3.366   3.579   7.938 -0.3433 -0.4751 -0.0594
  160SAPE   H9X17971   3.350   3.473   7.967  1.6864 -0.6548  0.4369
  160SAPE   H9Y17972   3.273   3.630   7.972  1.9156  2.6792  1.5775
  160SAPE  C31017973   3.487   3.664   7.994 -0.2635  0.1753 -0.7944
  160SAPE  H10X17974   3.471   3.764   7.949 -3.5090  0.4844  0.8843
  160SAPE  H10Y17975   3.583   3.611   7.978  1.2706  0.9021  4.9610
  160SAPE  C31117976   3.477   3.674   8.148  0.3332 -0.3475 -1.0664
  160SAPE  H11X17977   3.383   3.728   8.169  0.1375 -0.7069 -1.0220
  160SAPE  H11Y17978   3.560   3.736   8.188  0.4376 -0.7935 -0.5827
  160SAPE  C31217979   3.478   3.542   8.222 -0.3302  0.0357  0.2656
  160SAPE  H12X17980   3.393   3.471   8.216 -0.3091 -0.3225  3.2803
  160SAPE  H12Y17981   3.477   3.574   8.329  1.4410 -0.3828  0.4352
  160SAPE  C31317982   3.605   3.463   8.200  0.8513  0.1929 -0.0158
  160SAPE  H13X17983   3.690   3.535   8.209 -0.1876  1.4553 -0.2913
  160SAPE  H13Y17984   3.617   3.422   8.098 -0.3684 -1.3399  0.4463
  160SAPE  C31417985   3.621   3.358   8.318 -0.0807 -0.6821 -0.2815
  160SAPE  H14X17986   3.549   3.274   8.305  1.0286 -1.8879  1.1389
  160SAPE  H14Y17987   3.602   3.412   8.413  2.1373  0.9971 -0.7574
  160SAPE  C31517988   3.757   3.291   8.327  0.5527 -0.4629  0.3020
  160SAPE  H15X17989   3.835   3.365   8.353  2.4914 -1.4373 -2.5400
  160SAPE  H15Y17990   3.782   3.239   8.232  0.8436  0.3106 -0.0464
  160SAPE  C31617991   3.772   3.195   8.448 -0.7072 -0.2716 -0.4545
  160SAPE  H16X17992   3.712   3.105   8.425 -3.2702  1.5231 -0.9939
  160SAPE  H16Y17993   3.723   3.241   8.537 -0.6226 -0.7538 -0.1614
  160SAPE  C31717994   3.911   3.135   8.477 -0.2395  0.2620 -0.3229
  160SAPE  H17X17995   3.981   3.142   8.390  1.8472  0.5033  1.3317
  160SAPE  H17Y17996   3.906   3.032   8.519 -0.7410  0.9743  1.4091
  160SAPE  C31817997   3.991   3.220   8.573 -0.0835  0.0472  0.1841
  160SAPE  H18X17998   3.973   3.330   8.573 -1.5786 -0.1878 -0.1949
  160SAPE  H18Y17999   4.097   3.189   8.580 -0.9335 -2.9627  0.2250
  160SAPE  H18Z18000   3.961   3.204   8.679  0.2983 -2.3041 -0.0361
  161SAPE     N18001   5.762   1.226   6.433 -0.1705  0.5109 -0.3059
  161SAPE   HN118002   5.834   1.257   6.365  0.3215 -1.5621 -0.7605
  161SAPE   HN218003   5.680   1.288   6.418 -1.2230 -1.4961 -3.5374
  161SAPE   HN318004   5.809   1.253   6.521  1.9422 -3.1196 -0.2088
  161SAPE   C1218005   5.714   1.084   6.420  0.5891 -0.1312  0.1151
  161SAPE  H12A18006   5.684   1.066   6.314  1.0094 -2.4626  0.3601
  161SAPE  H12B18007   5.633   1.064   6.493 -0.9389  2.2371 -0.8816
  161SAPE   C1118008   5.834   0.987   6.444 -0.1285 -0.3153 -0.6847
  161SAPE  H11A18009   5.804   0.881   6.453  1.1892 -0.5799  1.0677
  161SAPE  H11B18010   5.886   1.000   6.542 -0.2265 -0.2948 -0.6357
  161SAPE     P18011   6.041   0.894   6.308 -0.0381 -0.2844  0.0265
  161SAPE   O1318012   5.987   0.803   6.205  0.4067 -0.1764  0.4493
  161SAPE   O1418013   6.179   0.950   6.284  0.4399 -0.8826 -0.4636
  161SAPE   O1218014   5.929   1.001   6.335  0.2261  0.1632 -0.1225
  161SAPE   O1118015   6.039   0.809   6.444  0.2233  0.4536 -0.9644
  161SAPE    C118016   6.137   0.836   6.547  0.6233 -0.2826 -0.2719
  161SAPE    HA18017   6.231   0.784   6.520  2.2100  1.7727  1.1898
  161SAPE    HB18018   6.129   0.944   6.571  1.6850 -0.7737  2.4016
  161SAPE    C218019   6.095   0.769   6.684 -0.6669  0.6334  0.2923
  161SAPE    HS18020   6.082   0.660   6.669  2.4189  0.0379  1.4670
  161SAPE   O2118021   5.985   0.835   6.740 -0.4489 -0.7238  0.0885
  161SAPE   C2118022   5.870   0.769   6.726 -0.1600  0.2248 -0.3307
  161SAPE   O2218023   5.856   0.649   6.694 -0.2908 -0.0485 -0.3912
  161SAPE   C2218024   5.751   0.857   6.764 -0.4435 -0.0942  0.3813
  161SAPE   H2R18025   5.801   0.954   6.788  0.1308 -0.0498 -0.9786
  161SAPE   H2S18026   5.686   0.863   6.674  0.6849  1.9175 -0.3405
  161SAPE    C318027   6.212   0.768   6.780  0.5307 -0.3904 -0.2501
  161SAPE    HX18028   6.267   0.865   6.779  0.5090 -0.3826 -1.2771
  161SAPE    HY18029   6.280   0.699   6.724  0.7294  0.1086 -0.6304
  161SAPE   O3118030   6.172   0.724   6.913  0.0823 -0.0323 -0.3310
  161SAPE   C3118031   6.153   0.588   6.933 -0.0171  0.0408 -0.6765
  161SAPE   O3218032   6.167   0.504   6.848  0.3076 -0.2751 -0.1408
  161SAPE   C3218033   6.100   0.561   7.073 -0.0172 -0.0146 -0.1581
  161SAPE   H2X18034   6.035   0.645   7.107  0.2383 -0.8243  2.4506
  161SAPE   H2Y18035   6.189   0.557   7.139  0.4877  1.0755 -0.7645
  161SAPE   C2318036   5.676   0.815   6.891  0.3360  0.3119 -0.0054
  161SAPE   H3R18037   5.596   0.743   6.867 -0.0740 -0.3250  3.0073
  161SAPE   H3S18038   5.619   0.908   6.911  0.8902  0.7128 -0.2801
  161SAPE   C2418039   5.767   0.779   7.005 -0.4309  0.1985  0.0428
  161SAPE   H4R18040   5.846   0.857   7.008  1.9243 -2.0325 -2.0858
  161SAPE   H4S18041   5.819   0.683   6.987  2.2205  1.2626  1.7114
  161SAPE   C2518042   5.686   0.778   7.141  0.2547 -0.8584  0.6933
  161SAPE   H5R18043   5.577   0.770   7.133  0.2295  0.4292 -0.5485
  161SAPE   C2618044   5.733   0.822   7.264 -0.0656 -0.1305  0.2038
  161SAPE   H6R18045   5.653   0.816   7.338 -1.6019 -0.3562 -1.4407
  161SAPE   C2718046   5.870   0.866   7.314  0.2473  0.0368  0.3668
  161SAPE   H7R18047   5.876   0.970   7.353  0.4930  1.1797 -2.6008
  161SAPE   H7S18048   5.940   0.875   7.228 -0.5272  3.3222 -0.0007
  161SAPE   C2818049   5.922   0.766   7.413 -0.6665  0.3385  0.4091
  161SAPE   H8R18050   5.983   0.685   7.369 -1.7646 -0.3852  0.1830
  161SAPE   C2918051   5.900   0.778   7.551  0.8044  0.5025  0.9095
  161SAPE   H9R18052   5.936   0.698   7.618  1.5662  0.4130  0.4018
  161SAPE  C21018053   5.806   0.880   7.612 -0.5112 -0.3359  0.2552
  161SAPE  H10R18054   5.753   0.839   7.700 -1.2969  0.5589  0.2058
  161SAPE  H10S18055   5.735   0.928   7.542 -1.1701 -0.6781  0.6890
  161SAPE  C21118056   5.895   0.987   7.661 -0.1026 -1.0461  0.5787
  161SAPE  H11R18057   5.927   1.052   7.579  0.9561 -1.2115  0.8456
  161SAPE  C21218058   5.959   1.003   7.778  0.7903 -0.2474  0.8820
  161SAPE  H12R18059   6.023   1.091   7.794 -0.6122  1.0135 -0.2221
  161SAPE  C21318060   5.945   0.902   7.888 -0.0848 -0.3811  0.1325
  161SAPE  H13R18061   6.037   0.913   7.950 -1.3824 -0.3803  2.1011
  161SAPE  H13S18062   5.943   0.797   7.850  0.1803 -0.1745 -0.4541
  161SAPE  C21418063   5.821   0.926   7.964  0.2153 -0.1340 -0.1385
  161SAPE  H14R18064   5.731   0.920   7.903 -0.3318 -2.2246  0.8384
  161SAPE  C21518065   5.803   0.934   8.099  0.1056  0.4125  0.8576
  161SAPE  H15R18066   5.704   0.938   8.146 -0.4150  0.1012 -0.2081
  161SAPE  C21618067   5.914   0.948   8.198 -0.4503  0.7082  0.3099
  161SAPE  H16R18068   6.013   0.941   8.148 -1.8350 -2.6026 -2.2349
  161SAPE  H16S18069   5.904   0.860   8.264 -1.6775  1.5975  1.3237
  161SAPE  C21718070   5.891   1.065   8.294  0.0378 -0.2253  0.6262
  161SAPE  H17R18071   5.786   1.061   8.330 -0.3669  1.5954 -0.2770
  161SAPE  H17S18072   5.897   1.155   8.228 -1.3756  0.8823  1.9726
  161SAPE  C21818073   5.991   1.067   8.412  0.0185  0.6388 -0.6940
  161SAPE  H18R18074   6.091   1.068   8.365 -0.5781 -1.4165 -2.0287
  161SAPE  H18S18075   5.965   0.977   8.472 -0.9861  0.4752 -1.3678
  161SAPE  C21918076   5.980   1.202   8.496 -0.4537  0.7807 -0.1623
  161SAPE  H19R18077   5.877   1.215   8.536  0.2841  0.8910  1.7846
  161SAPE  H19S18078   6.012   1.281   8.426  2.0377  0.2446  0.2956
  161SAPE  C22018079   6.054   1.195   8.626  0.2321 -0.1523 -0.0304
  161SAPE  H20R18080   6.042   1.279   8.698  2.7228  0.1171  0.1404
  161SAPE  H20S18081   6.160   1.170   8.602 -0.3081 -1.9597 -0.5595
  161SAPE  H20T18082   6.015   1.108   8.682  0.4856 -0.9158 -1.0316
  161SAPE   C3318083   6.034   0.420   7.083  1.1287 -0.1756 -0.0254
  161SAPE   H3X18084   6.114   0.350   7.052  2.8234  1.1777  1.1096
  161SAPE   H3Y18085   5.945   0.407   7.018  1.2973  3.7753 -1.2340
  161SAPE   C3418086   5.976   0.388   7.228 -0.0643 -0.4634  0.2813
  161SAPE   H4X18087   5.910   0.298   7.226  0.3788 -0.7807 -0.3857
  161SAPE   H4Y18088   5.903   0.469   7.250  0.6787  0.4278 -0.4739
  161SAPE   C3518089   6.087   0.374   7.335  0.0209  0.0137  0.1285
  161SAPE   H5X18090   6.135   0.473   7.344  1.6760 -0.7829  0.1843
  161SAPE   H5Y18091   6.160   0.301   7.293 -1.3480 -1.6849  0.6631
  161SAPE   C3618092   6.033   0.332   7.469  1.2817 -0.5901  0.8220
  161SAPE   H6X18093   5.993   0.230   7.454 -0.1615  0.1169 -0.2118
  161SAPE   H6Y18094   5.959   0.406   7.504  1.6933  0.1199  0.2141
  161SAPE   C3718095   6.134   0.340   7.584 -0.2503 -0.5052  0.4246
  161SAPE   H7X18096   6.181   0.438   7.605 -2.5136  0.5289  0.8270
  161SAPE   H7Y18097   6.223   0.278   7.560 -0.0631 -0.0259 -0.1264
  161SAPE   C3818098   6.073   0.296   7.722  0.3553  0.3087  0.4705
  161SAPE   H8X18099   6.021   0.200   7.704 -1.5870  1.3763  0.2213
  161SAPE   H8Y18100   5.990   0.364   7.750 -1.4581  0.4264 -4.6488
  161SAPE   C3918101   6.182   0.282   7.834  0.7766 -0.3767  0.6801
  161SAPE   H9X18102   6.179   0.382   7.883  2.4303  0.4004 -0.7677
  161SAPE   H9Y18103   6.283   0.254   7.797  1.7067  0.7091  2.3213
  161SAPE  C31018104   6.145   0.184   7.950 -0.3960  0.3032  0.8580
  161SAPE  H10X18105   6.218   0.177   8.033  2.5028  1.0638 -1.5143
  161SAPE  H10Y18106   6.127   0.084   7.904 -0.6017 -0.0876  1.7755
  161SAPE  C31118107   6.013   0.223   8.022 -0.5301  0.2410 -0.0109
  161SAPE  H11X18108   5.943   0.247   7.939  1.3888 -0.2531 -1.8370
  161SAPE  H11Y18109   6.032   0.308   8.091 -2.1126 -0.3504  1.1718
  161SAPE  C31218110   5.953   0.112   8.110 -0.5487 -0.2567  0.1747
  161SAPE  H12X18111   5.972   0.018   8.054  2.3830  1.7717 -2.3744
  161SAPE  H12Y18112   5.843   0.120   8.126 -0.4905 -0.9126  0.9385
  161SAPE  C31318113   6.024   0.087   8.244  0.4246 -0.4355  0.1451
  161SAPE  H13X18114   6.087   0.179   8.249  2.1260 -1.3870 -2.4488
  161SAPE  H13Y18115   6.077  -0.010   8.244 -1.2773 -1.3843 -0.3558
  161SAPE  C31418116   5.926   0.098   8.363  0.5110 -0.6723 -0.5492
  161SAPE  H14X18117   5.876  -0.001   8.360 -2.7316  0.9315 -1.8353
  161SAPE  H14Y18118   5.847   0.174   8.351  0.8429 -0.2435 -0.0273
  161SAPE  C31518119   5.990   0.139   8.498  0.4710 -0.4490  0.2595
  161SAPE  H15X18120   5.973   0.249   8.509  0.9759 -0.4352  1.0031
  161SAPE  H15Y18121   6.094   0.099   8.504 -0.1333 -1.9575  0.8696
  161SAPE  C31618122   5.908   0.086   8.625 -0.0719 -0.3836  0.3999
  161SAPE  H16X18123   5.805   0.076   8.586  0.5187 -1.8728 -0.7958
  161SAPE  H16Y18124   5.914   0.166   8.702  1.1032 -2.2214  2.2719
  161SAPE  C31718125   5.963  -0.047   8.692 -0.1171 -0.5084  0.3930
  161SAPE  H17X18126   6.029  -0.106   8.625  0.2370  0.6080 -0.2482
  161SAPE  H17Y18127   5.871  -0.109   8.697  0.1086 -0.8767  0.0588
  161SAPE  C31818128   6.043  -0.023   8.819  0.4346 -0.6113 -0.4700
  161SAPE  H18X18129   6.104  -0.112   8.847  1.2992  0.4316  1.0542
  161SAPE  H18Y18130   5.982  -0.002   8.910  2.2601 -1.2175  0.9412
  161SAPE  H18Z18131   6.123   0.051   8.799  0.8873 -0.9880 -0.0692
  162SAPE     N18132   4.297   4.278   5.633  0.3557  0.3313 -0.4229
  162SAPE   HN118133   4.310   4.305   5.533  1.3049  0.9379 -0.1416
  162SAPE   HN218134   4.387   4.304   5.677  0.6937 -0.0268 -0.9043
  162SAPE   HN318135   4.289   4.174   5.627 -0.3010  0.3263  0.4650
  162SAPE   C1218136   4.166   4.333   5.684 -0.9512 -0.0169  0.5956
  162SAPE  H12A18137   4.089   4.342   5.604 -2.9794 -0.7007  2.4327
  162SAPE  H12B18138   4.201   4.430   5.725 -1.2731  0.5829 -0.5142
  162SAPE   C1118139   4.112   4.260   5.810 -0.1431 -0.6981 -0.4824
  162SAPE  H11A18140   4.073   4.161   5.779 -1.1035  0.0962 -1.8997
  162SAPE  H11B18141   4.025   4.315   5.852 -0.9704 -1.9093 -0.6088
  162SAPE     P18142   4.253   4.336   6.028  0.2745 -0.2479  0.3203
  162SAPE   O1318143   4.373   4.288   6.101  0.1875 -0.2431 -0.7465
  162SAPE   O1418144   4.271   4.477   5.970 -0.2564  0.3780 -0.4937
  162SAPE   O1218145   4.216   4.239   5.907 -0.3908 -0.2205 -0.5172
  162SAPE   O1118146   4.124   4.330   6.118 -0.1481  0.5272 -0.4301
  162SAPE    C118147   4.074   4.201   6.174 -0.2526  0.2709  0.4101
  162SAPE    HA18148   3.966   4.191   6.151 -0.2687 -2.1095  1.4143
  162SAPE    HB18149   4.136   4.120   6.131  0.5982  0.0714  1.9600
  162SAPE    C218150   4.084   4.196   6.327 -0.1730  0.0974 -0.1892
  162SAPE    HS18151   4.057   4.298   6.362 -1.2400  0.0578 -0.9000
  162SAPE   O2118152   4.217   4.168   6.355  0.1570 -0.1026 -0.4587
  162SAPE   C2118153   4.278   4.229   6.456 -0.2522  0.8047  1.0557
  162SAPE   O2218154   4.222   4.302   6.537  0.1385 -0.4655  0.2983
  162SAPE   C2218155   4.427   4.202   6.452 -0.0832  0.2874 -0.1421
  162SAPE   H2R18156   4.470   4.202   6.350  2.8196  0.4188  1.0113
  162SAPE   H2S18157   4.484   4.277   6.512 -0.2086  1.4483 -1.4464
  162SAPE    C318158   3.986   4.096   6.382  0.7969  1.1992 -0.2256
  162SAPE    HX18159   4.015   3.996   6.343  0.2980  1.1918 -0.5744
  162SAPE    HY18160   3.883   4.121   6.350  0.5227  1.9676  1.2020
  162SAPE   O3118161   3.987   4.106   6.532  0.6244 -0.0094  0.0508
  162SAPE   C3118162   3.895   4.189   6.585  0.3327  0.2034  0.5176
  162SAPE   O3218163   3.814   4.254   6.521 -0.3253  0.3175 -0.2683
  162SAPE   C3218164   3.912   4.198   6.737  0.5070  0.1848  0.3102
  162SAPE   H2X18165   3.842   4.124   6.783 -0.8322 -0.3846 -2.5446
  162SAPE   H2Y18166   3.868   4.296   6.764 -0.7197 -0.4816  0.7669
  162SAPE   C2318167   4.462   4.062   6.516 -0.2129 -0.5301  0.6290
  162SAPE   H3R18168   4.572   4.059   6.529  0.1684 -1.6745 -2.3895
  162SAPE   H3S18169   4.439   3.981   6.442  0.1036 -0.2343  0.2013
  162SAPE   C2418170   4.407   4.031   6.654  0.0302  0.0209 -0.3186
  162SAPE   H4R18171   4.299   4.050   6.639 -0.6875 -0.8725  3.2085
  162SAPE   H4S18172   4.438   4.112   6.723  2.5899 -2.0409  1.0447
  162SAPE   C2518173   4.448   3.896   6.709  0.2410 -0.0971 -0.3767
  162SAPE   H5R18174   4.482   3.828   6.629 -2.6938 -1.2626 -0.7070
  162SAPE   C2618175   4.440   3.845   6.832  0.1207  0.2450 -0.3089
  162SAPE   H6R18176   4.500   3.755   6.854  2.0712  1.2837 -1.2591
  162SAPE   C2718177   4.388   3.923   6.954 -0.2446  0.1176  0.1304
  162SAPE   H7R18178   4.288   3.889   6.989 -0.1167  0.4351  0.8064
  162SAPE   H7S18179   4.370   4.031   6.938 -0.1943  0.2512  0.9878
  162SAPE   C2818180   4.481   3.916   7.067  0.3730  0.4587 -0.0499
  162SAPE   H8R18181   4.488   3.816   7.113 -1.8463  0.3171  0.0320
  162SAPE   C2918182   4.563   4.013   7.115 -0.4012  0.1488  0.1881
  162SAPE   H9R18183   4.639   3.980   7.188  1.6358  2.1195 -0.9771
  162SAPE  C21018184   4.589   4.154   7.065  0.4513  0.2230  0.0383
  162SAPE  H10R18185   4.553   4.218   7.148 -2.8512 -2.5358  0.8372
  162SAPE  H10S18186   4.532   4.170   6.971 -1.0959 -0.5388  0.8345
  162SAPE  C21118187   4.738   4.179   7.033  0.0285 -0.6530 -0.1854
  162SAPE  H11R18188   4.781   4.144   6.938  1.0725 -0.1820  0.1084
  162SAPE  C21218189   4.828   4.221   7.121 -0.4788  0.4574 -0.2364
  162SAPE  H12R18190   4.931   4.240   7.088 -1.2085  3.6824 -0.8349
  162SAPE  C21318191   4.810   4.261   7.266 -0.6679  0.6090  1.0604
  162SAPE  H13R18192   4.907   4.271   7.319  0.0065  1.5773 -0.3018
  162SAPE  H13S18193   4.748   4.183   7.313 -1.2631  0.4701  0.0601
  162SAPE  C21418194   4.740   4.395   7.282  0.8719  0.0293 -0.3625
  162SAPE  H14R18195   4.670   4.420   7.201  0.6469 -0.4522 -0.3161
  162SAPE  C21518196   4.736   4.469   7.394 -0.7350 -0.4446 -0.3960
  162SAPE  H15R18197   4.699   4.572   7.381  2.8327  0.9842  0.1583
  162SAPE  C21618198   4.822   4.443   7.516 -0.3093 -0.7988 -0.3686
  162SAPE  H16R18199   4.888   4.531   7.532 -1.0140 -0.0547 -1.4469
  162SAPE  H16S18200   4.895   4.361   7.503 -0.4683 -1.0360  0.2494
  162SAPE  C21718201   4.734   4.413   7.642 -1.3432  0.7580 -0.4787
  162SAPE  H17R18202   4.657   4.337   7.616 -1.5664  1.7311 -2.6994
  162SAPE  H17S18203   4.684   4.511   7.657 -1.1910  0.6923  0.5305
  162SAPE  C21818204   4.837   4.380   7.751 -0.0350 -0.3338  0.4685
  162SAPE  H18R18205   4.915   4.458   7.750 -0.9199  0.5699 -1.6938
  162SAPE  H18S18206   4.886   4.281   7.735 -0.9339 -0.9160  1.2874
  162SAPE  C21918207   4.769   4.365   7.887 -0.1741 -0.0771 -0.1370
  162SAPE  H19R18208   4.684   4.292   7.882 -0.7432  0.4250  1.7423
  162SAPE  H19S18209   4.731   4.464   7.919 -0.8689 -0.3857  0.0225
  162SAPE  C22018210   4.875   4.311   7.992 -0.7017  0.0171 -0.1180
  162SAPE  H20R18211   4.842   4.313   8.098  0.3153 -1.8315  0.2567
  162SAPE  H20S18212   4.964   4.377   7.983 -0.5993 -0.1424 -0.2649
  162SAPE  H20T18213   4.910   4.212   7.956  1.0544  0.6254 -0.1272
  162SAPE   C3318214   4.061   4.195   6.794 -0.1622  0.2101 -0.4386
  162SAPE   H3X18215   4.127   4.270   6.745 -0.3876  0.1330 -0.8606
  162SAPE   H3Y18216   4.113   4.099   6.774  0.9146  0.5473  0.7041
  162SAPE   C3418217   4.074   4.198   6.947 -0.1938 -0.0279  0.0226
  162SAPE   H4X18218   4.035   4.293   6.989  0.0605 -0.3112  0.9074
  162SAPE   H4Y18219   4.183   4.189   6.968 -0.2655 -2.8902 -0.6405
  162SAPE   C3518220   4.019   4.072   7.017 -0.3071 -0.5821  0.9306
  162SAPE   H5X18221   4.056   3.977   6.973 -0.0911 -0.7587  1.5009
  162SAPE   H5Y18222   3.909   4.080   7.002  0.2146  0.5680 -2.8646
  162SAPE   C3618223   4.046   4.082   7.177 -0.5575  0.3495  0.4134
  162SAPE   H6X18224   3.977   4.002   7.213 -1.2964  1.0825  0.6517
  162SAPE   H6Y18225   4.006   4.175   7.222  0.9030  0.5034  1.3944
  162SAPE   C3718226   4.184   4.041   7.219  0.0821  0.3068  0.3269
  162SAPE   H7X18227   4.253   4.118   7.178 -2.6140  2.0411 -1.1185
  162SAPE   H7Y18228   4.217   3.944   7.177  0.9112  0.8957 -0.3718
  162SAPE   C3818229   4.200   4.052   7.363  0.4262 -0.3159 -0.1579
  162SAPE   H8X18230   4.144   3.972   7.416 -1.3106  1.7449  1.1935
  162SAPE   H8Y18231   4.156   4.144   7.406 -0.2816  0.7486 -3.0789
  162SAPE   C3918232   4.346   4.046   7.408 -0.2791 -0.0557  0.0368
  162SAPE   H9X18233   4.396   4.140   7.375 -2.5014  1.4683  0.9086
  162SAPE   H9Y18234   4.405   3.958   7.376 -0.4138 -0.3530  0.6027
  162SAPE  C31018235   4.354   4.057   7.561  0.6520 -0.0990 -0.3707
  162SAPE  H10X18236   4.260   4.018   7.607  0.1946  1.3558 -0.0574
  162SAPE  H10Y18237   4.349   4.165   7.588 -0.1559 -0.6714  1.9343
  162SAPE  C31118238   4.479   4.003   7.621 -0.5776 -0.2196  0.1559
  162SAPE  H11X18239   4.556   4.061   7.566  1.2297 -0.7375  2.0715
  162SAPE  H11Y18240   4.480   3.896   7.591 -1.4560 -0.5580  1.3218
  162SAPE  C31218241   4.492   4.030   7.764 -0.1037  0.4769  0.0162
  162SAPE  H12X18242   4.401   3.975   7.797  0.0194  0.0880 -0.2868
  162SAPE  H12Y18243   4.482   4.138   7.788 -1.7480  0.1771  0.7579
  162SAPE  C31318244   4.624   3.985   7.830 -0.4142  0.2818 -0.5749
  162SAPE  H13X18245   4.708   4.049   7.797  0.4507  0.4508  1.8805
  162SAPE  H13Y18246   4.650   3.879   7.808  1.8512  0.9286 -1.1737
  162SAPE  C31418247   4.618   3.999   7.983 -0.2545 -1.2395  0.2971
  162SAPE  H14X18248   4.531   3.938   8.016 -1.4407  0.1202 -0.2863
  162SAPE  H14Y18249   4.590   4.101   8.016 -0.1440 -0.8813 -0.6998
  162SAPE  C31518250   4.740   3.938   8.057  0.2702  0.1519  0.5857
  162SAPE  H15X18251   4.827   3.997   8.023 -1.1695 -0.4668 -4.6113
  162SAPE  H15Y18252   4.750   3.835   8.016  1.8067  0.3480  0.4476
  162SAPE  C31618253   4.741   3.932   8.208 -0.6760 -0.2092  0.5554
  162SAPE  H16X18254   4.836   3.883   8.240 -0.0431  0.8740  0.3705
  162SAPE  H16Y18255   4.656   3.875   8.250 -0.9367 -0.6436 -0.5353
  162SAPE  C31718256   4.730   4.070   8.278 -0.1914 -0.0143  0.2941
  162SAPE  H17X18257   4.637   4.119   8.244  0.4623  0.0057 -1.5372
  162SAPE  H17Y18258   4.819   4.124   8.237  1.1251 -2.5714 -0.3054
  162SAPE  C31818259   4.727   4.047   8.429  0.3696  0.5918 -0.2737
  162SAPE  H18X18260   4.825   4.003   8.458 -0.0204  0.4307  0.8385
  162SAPE  H18Y18261   4.637   3.987   8.455 -0.1179  0.5137 -2.1281
  162SAPE  H18Z18262   4.726   4.142   8.487  0.6837  2.9928 -4.0459
  163SAPE     N18263   3.051   1.590   6.584 -0.0022 -0.0185 -0.6344
  163SAPE   HN118264   3.142   1.621   6.543 -0.2971 -0.4486 -1.6228
  163SAPE   HN218265   3.044   1.487   6.571  0.5013 -0.5009  2.5706
  163SAPE   HN318266   2.976   1.639   6.532 -0.1613  0.0605 -0.3275
  163SAPE   C1218267   3.046   1.622   6.729  0.3908 -0.1362  0.0249
  163SAPE  H12A18268   3.140   1.677   6.746  0.4364 -0.8001  2.1394
  163SAPE  H12B18269   3.066   1.525   6.780  1.8901  1.1717  1.9944
  163SAPE   C1118270   2.904   1.675   6.774  0.1485  0.3352 -0.2578
  163SAPE  H11A18271   2.922   1.725   6.872 -0.4470 -1.5569  0.8536
  163SAPE  H11B18272   2.833   1.592   6.794  0.7162 -0.1781 -0.3761
  163SAPE     P18273   2.865   1.924   6.695  0.0664  0.1198 -0.2909
  163SAPE   O1318274   3.002   1.964   6.659  0.0654  0.0252  0.3056
  163SAPE   O1418275   2.755   1.973   6.612 -0.0336  0.3801  0.1254
  163SAPE   O1218276   2.852   1.771   6.676  0.0761  0.4342  0.1317
  163SAPE   O1118277   2.843   1.942   6.851 -0.4018 -0.4316  0.3668
  163SAPE    C118278   2.707   1.963   6.900  0.3971 -0.1521 -0.6423
  163SAPE    HA18279   2.666   2.051   6.846 -1.3296 -0.5867 -0.1018
  163SAPE    HB18280   2.642   1.874   6.882  0.7027 -0.7343  1.0188
  163SAPE    C218281   2.709   1.997   7.057  0.4550 -0.0399 -0.2437
  163SAPE    HS18282   2.600   2.008   7.079  0.0813 -3.5571 -0.0213
  163SAPE   O2118283   2.792   2.110   7.056 -0.2473 -0.3453 -0.4291
  163SAPE   C2118284   2.763   2.201   7.149 -0.3404  0.2436 -0.5497
  163SAPE   O2218285   2.664   2.200   7.219 -1.0445  0.4155  0.4479
  163SAPE   C2218286   2.868   2.312   7.151  0.0113  0.2098 -0.2550
  163SAPE   H2R18287   2.918   2.312   7.051 -0.2177 -1.5503 -0.3986
  163SAPE   H2S18288   2.822   2.409   7.180  1.4727  0.9061 -0.2560
  163SAPE    C318289   2.760   1.879   7.144  0.4326 -0.6264 -0.0381
  163SAPE    HX18290   2.862   1.863   7.102 -1.1244 -2.9642 -3.0990
  163SAPE    HY18291   2.706   1.788   7.111  0.7309 -0.3217 -1.3866
  163SAPE   O3118292   2.761   1.913   7.283  0.1925  0.2347 -0.1377
  163SAPE   C3118293   2.666   1.858   7.354  0.7407 -0.2777  0.0599
  163SAPE   O3218294   2.580   1.785   7.317  0.1277 -0.4724 -0.3236
  163SAPE   C3218295   2.681   1.905   7.495  0.3946 -0.1100 -0.5155
  163SAPE   H2X18296   2.595   1.968   7.525 -1.6465 -2.1037 -1.9655
  163SAPE   H2Y18297   2.761   1.981   7.502 -0.2854  0.4614  1.1700
  163SAPE   C2318298   2.986   2.287   7.249 -0.0089  0.7918  0.4871
  163SAPE   H3R18299   3.044   2.197   7.221  2.0930  2.5714 -1.0103
  163SAPE   H3S18300   2.941   2.265   7.349 -0.0555 -0.9352  0.1002
  163SAPE   C2418301   3.080   2.408   7.245  0.2676 -0.2995 -0.0580
  163SAPE   H4R18302   3.164   2.402   7.317 -1.1277  0.0773  1.6281
  163SAPE   H4S18303   3.035   2.506   7.271  0.4026  0.1708 -1.5526
  163SAPE   C2518304   3.151   2.434   7.116 -0.1038  0.8303 -0.0584
  163SAPE   H5R18305   3.161   2.338   7.064  3.5147  0.8761  0.4122
  163SAPE   C2618306   3.179   2.545   7.047  0.0467 -0.1546 -0.0964
  163SAPE   H6R18307   3.215   2.531   6.944 -0.2069  1.2496 -0.3896
  163SAPE   C2718308   3.149   2.687   7.086 -0.4195 -0.3917  0.5494
  163SAPE   H7R18309   3.121   2.700   7.193 -1.7281 -3.7200  0.6595
  163SAPE   H7S18310   3.067   2.733   7.027 -1.6438  0.0300  2.5116
  163SAPE   C2818311   3.274   2.766   7.062 -0.9298 -0.0171 -0.3692
  163SAPE   H8R18312   3.289   2.810   6.962 -1.4654  3.9929  1.2165
  163SAPE   C2918313   3.352   2.809   7.163  0.2446  0.3506 -0.5375
  163SAPE   H9R18314   3.432   2.877   7.132 -0.0322  0.3830 -1.1925
  163SAPE  C21018315   3.330   2.779   7.311 -0.5358  0.1170  0.4280
  163SAPE  H10R18316   3.424   2.781   7.371 -0.5440 -1.7716  0.5133
  163SAPE  H10S18317   3.303   2.674   7.334  1.7964 -0.3797  1.0567
  163SAPE  C21118318   3.231   2.878   7.370  0.3336  0.2483 -0.3159
  163SAPE  H11R18319   3.163   2.925   7.298 -0.1434  2.5610  1.5880
  163SAPE  C21218320   3.219   2.913   7.498 -0.1283 -0.3071 -0.0970
  163SAPE  H12R18321   3.147   2.992   7.523 -0.8871 -1.1129  0.2887
  163SAPE  C21318322   3.314   2.861   7.599  0.0771 -0.9522  0.4627
  163SAPE  H13R18323   3.370   2.951   7.633 -0.8110 -1.0570  2.2429
  163SAPE  H13S18324   3.388   2.785   7.567 -1.3907 -1.6640 -1.3259
  163SAPE  C21418325   3.231   2.807   7.717  0.3275 -0.2370  0.7971
  163SAPE  H14R18326   3.204   2.701   7.706 -0.4345 -0.0374  0.7314
  163SAPE  C21518327   3.165   2.868   7.821  0.6937 -0.5042  0.0562
  163SAPE  H15R18328   3.114   2.807   7.897 -0.2581  0.8334  0.5032
  163SAPE  C21618329   3.168   3.017   7.851 -0.2769 -0.3036 -0.0960
  163SAPE  H16R18330   3.066   3.055   7.828 -0.0542  0.1598 -0.3138
  163SAPE  H16S18331   3.236   3.081   7.792 -0.8181  1.0056  0.6596
  163SAPE  C21718332   3.195   3.066   7.997 -0.3170 -0.7601  0.5322
  163SAPE  H17R18333   3.200   3.177   7.991 -2.3061 -0.7467 -1.7141
  163SAPE  H17S18334   3.296   3.026   8.023  1.3901  1.7167 -1.9725
  163SAPE  C21818335   3.101   3.032   8.110 -0.3380  0.4932  0.0668
  163SAPE  H18R18336   3.105   2.922   8.118  1.0971  0.6057  1.2342
  163SAPE  H18S18337   3.001   3.071   8.080 -1.1435 -1.6605 -0.1041
  163SAPE  C21918338   3.143   3.089   8.249 -0.0153 -0.1402  0.0986
  163SAPE  H19R18339   3.156   3.196   8.221 -0.4245 -0.5755 -1.8470
  163SAPE  H19S18340   3.241   3.048   8.281 -0.2261 -1.1230 -0.4805
  163SAPE  C22018341   3.041   3.077   8.362 -0.0616  0.8921  0.5092
  163SAPE  H20R18342   3.025   2.973   8.397  0.1183  1.7955  3.4329
  163SAPE  H20S18343   2.947   3.122   8.324 -0.0002 -0.0091 -0.7012
  163SAPE  H20T18344   3.066   3.151   8.442 -2.9343  2.7709 -0.2436
  163SAPE   C3318345   2.692   1.792   7.601  0.0404  0.8741  0.0539
  163SAPE   H3X18346   2.782   1.733   7.573 -1.0851 -0.6743 -0.3835
  163SAPE   H3Y18347   2.598   1.732   7.597 -0.7592  2.1845 -0.8233
  163SAPE   C3418348   2.718   1.847   7.739  0.1124  0.5114  0.4411
  163SAPE   H4X18349   2.790   1.930   7.720 -0.9546  1.1467 -0.8890
  163SAPE   H4Y18350   2.763   1.765   7.798 -3.6386  0.3412  3.2372
  163SAPE   C3518351   2.588   1.891   7.812  0.0171 -0.1943 -0.0230
  163SAPE   H5X18352   2.512   1.816   7.781  0.0858 -0.4592  0.4492
  163SAPE   H5Y18353   2.549   1.994   7.796 -3.0101 -1.4620 -1.2434
  163SAPE   C3618354   2.616   1.898   7.965  0.0547  0.5252 -0.3743
  163SAPE   H6X18355   2.690   1.980   7.973  0.2265  0.2393  1.3281
  163SAPE   H6Y18356   2.667   1.804   7.993 -0.4958  0.2759 -0.1941
  163SAPE   C3718357   2.485   1.915   8.043 -0.9578  0.5329 -0.5622
  163SAPE   H7X18358   2.431   1.820   8.022 -0.1583  0.3823 -2.0949
  163SAPE   H7Y18359   2.421   1.997   8.004 -1.5128 -0.3655 -1.5730
  163SAPE   C3818360   2.500   1.928   8.194 -0.0556  0.5573  0.5716
  163SAPE   H8X18361   2.554   1.838   8.230  0.8082  1.1699  0.8210
  163SAPE   H8Y18362   2.399   1.920   8.239  0.2421  0.2192  1.1840
  163SAPE   C3918363   2.566   2.056   8.231  0.2168 -0.0431  0.2555
  163SAPE   H9X18364   2.531   2.132   8.159 -1.3363 -1.9749 -1.0804
  163SAPE   H9Y18365   2.678   2.056   8.232  0.2241 -0.1026 -0.3189
  163SAPE  C31018366   2.527   2.101   8.370  0.5475  0.2694 -0.5734
  163SAPE  H10X18367   2.526   2.016   8.441  0.2258 -2.3350 -3.5635
  163SAPE  H10Y18368   2.418   2.123   8.361  0.4538 -0.0002 -0.1114
  163SAPE  C31118369   2.603   2.216   8.416 -0.0021  0.4069  0.0274
  163SAPE  H11X18370   2.609   2.299   8.343  0.2770  0.7336  0.4222
  163SAPE  H11Y18371   2.708   2.190   8.440  0.3754  1.0300 -0.9359
  163SAPE  C31218372   2.541   2.293   8.532 -0.7321  0.2149 -1.0787
  163SAPE  H12X18373   2.443   2.334   8.500 -1.5519 -1.1033 -0.2937
  163SAPE  H12Y18374   2.608   2.375   8.564  0.6705 -1.4379  0.3309
  163SAPE  C31318375   2.531   2.226   8.670  0.3933  0.5794  0.5715
  163SAPE  H13X18376   2.629   2.183   8.700  0.2507 -1.0153 -1.2054
  163SAPE  H13Y18377   2.456   2.145   8.671 -0.6465  1.4813 -1.1239
  163SAPE  C31418378   2.486   2.312   8.784  0.2276  0.2604 -0.7375
  163SAPE  H14X18379   2.384   2.350   8.763  0.3510  0.5326 -0.8432
  163SAPE  H14Y18380   2.557   2.397   8.789 -0.6330  0.9469 -0.2815
  163SAPE  C31518381   2.477   2.244   8.921 -0.0360  0.3397  0.0861
  163SAPE  H15X18382   2.574   2.194   8.940 -1.5017 -2.4575  0.4950
  163SAPE  H15Y18383   2.399   2.166   8.914 -1.6587  1.8962  0.2948
  163SAPE  C31618384   2.433   2.345   9.025  0.0632 -0.5757 -0.2477
  163SAPE  H16X18385   2.325   2.372   9.013  0.6458  1.6501 -0.6706
  163SAPE  H16Y18386   2.496   2.436   9.013 -0.4006 -0.4615 -1.9300
  163SAPE  C31718387   2.445   2.298   9.171  0.2832 -0.0751  0.5002
  163SAPE  H17X18388   2.537   2.236   9.176  0.4184  0.1128  0.3030
  163SAPE  H17Y18389   2.356   2.244   9.212 -0.0019 -0.1603 -0.2355
  163SAPE  C31818390   2.471   2.414   9.271  0.1112  0.3599 -0.2877
  163SAPE  H18X18391   2.380   2.477   9.280  0.9332  1.4485  0.6090
  163SAPE  H18Y18392   2.558   2.476   9.240 -0.6839  0.5376 -2.2278
  163SAPE  H18Z18393   2.485   2.366   9.370 -2.9128  0.4702  0.2292
  164SAPE     N18394   6.366   5.907   5.722 -0.3473 -0.0680 -0.6948
  164SAPE   HN118395   6.431   5.932   5.799  0.0507  0.1828 -1.1101
  164SAPE   HN218396   6.415   5.902   5.630  0.7659  1.9851 -0.2330
  164SAPE   HN318397   6.304   5.991   5.717 -0.2407  0.0443 -0.1819
  164SAPE   C1218398   6.278   5.784   5.748 -0.7936  0.3441  0.2326
  164SAPE  H12A18399   6.348   5.701   5.721  0.4023  1.8661 -1.4914
  164SAPE  H12B18400   6.202   5.784   5.667 -0.8647 -0.9669  0.2877
  164SAPE   C1118401   6.211   5.794   5.887  0.3827 -0.7454 -0.1006
  164SAPE  H11A18402   6.285   5.819   5.966 -0.1051  1.4111 -0.2849
  164SAPE  H11B18403   6.167   5.698   5.922 -0.1776 -1.1390 -1.8498
  164SAPE     P18404   6.057   5.951   6.032 -0.6443  0.1343 -0.1344
  164SAPE   O1318405   6.158   6.044   6.084 -0.0281 -0.3494 -0.0280
  164SAPE   O1418406   5.918   5.996   6.006 -0.1393  0.2946  0.1706
  164SAPE   O1218407   6.106   5.892   5.895  0.2381 -0.0999  0.0603
  164SAPE   O1118408   6.056   5.821   6.115 -0.4365  0.0580  0.4648
  164SAPE    C118409   5.947   5.792   6.200 -0.0815  0.0462  0.0587
  164SAPE    HA18410   5.851   5.822   6.154 -1.0693 -0.1297  1.9913
  164SAPE    HB18411   5.942   5.681   6.214  0.1582  0.2468  1.8472
  164SAPE    C218412   5.966   5.856   6.338 -0.3240 -0.5727 -0.1906
  164SAPE    HS18413   5.960   5.967   6.340 -0.1718 -0.5383 -1.3540
  164SAPE   O2118414   6.085   5.800   6.400  0.2941  0.0902  0.2295
  164SAPE   C2118415   6.170   5.895   6.439 -0.5871  0.7588  0.3621
  164SAPE   O2218416   6.162   6.014   6.417  0.2868 -0.4830  0.6682
  164SAPE   C2218417   6.286   5.841   6.526 -0.0300  0.0263  0.9416
  164SAPE   H2R18418   6.287   5.730   6.518  0.1494  0.0878 -0.0353
  164SAPE   H2S18419   6.383   5.874   6.483 -0.1724 -0.3974  0.2826
  164SAPE    C318420   5.839   5.806   6.416 -0.1488  0.1506  0.9816
  164SAPE    HX18421   5.838   5.696   6.397  1.1380  0.4715 -1.1150
  164SAPE    HY18422   5.750   5.847   6.364  0.2261  0.9346  0.9556
  164SAPE   O3118423   5.843   5.822   6.554 -0.1468  0.1537  0.0291
  164SAPE   C3118424   5.743   5.773   6.623  0.0245  0.1556 -0.0275
  164SAPE   O3218425   5.639   5.731   6.574 -0.0625 -1.0331  0.2637
  164SAPE   C3218426   5.771   5.792   6.768 -0.7211  0.2307 -0.8592
  164SAPE   H2X18427   5.831   5.885   6.774 -0.4645  0.0430 -0.4881
  164SAPE   H2Y18428   5.826   5.704   6.807  1.7141  2.1480  0.1690
  164SAPE   C2318429   6.261   5.873   6.673  0.2147 -0.2030 -0.5871
  164SAPE   H3R18430   6.331   5.815   6.737  0.0588  0.1785 -0.0624
  164SAPE   H3S18431   6.160   5.837   6.701  0.7271  1.2175  3.4818
  164SAPE   C2418432   6.285   6.013   6.717  0.2137 -0.5045 -0.5860
  164SAPE   H4R18433   6.263   6.022   6.825  2.0525 -0.5503 -0.1793
  164SAPE   H4S18434   6.213   6.078   6.663  2.2916  3.0274  0.7121
  164SAPE   C2518435   6.426   6.046   6.683 -0.7072 -0.7471  0.5882
  164SAPE   H5R18436   6.441   6.074   6.578 -0.6105 -1.2545  0.4649
  164SAPE   C2618437   6.537   6.046   6.765 -0.8589 -0.0763  0.6581
  164SAPE   H6R18438   6.630   6.080   6.718 -0.7580  0.8111  1.4967
  164SAPE   C2718439   6.557   6.027   6.909 -0.3269  0.2153  0.1733
  164SAPE   H7R18440   6.643   5.961   6.933 -1.0122 -1.2987 -1.3856
  164SAPE   H7S18441   6.461   5.984   6.944  1.0354 -2.5432  0.6548
  164SAPE   C2818442   6.590   6.154   6.984  0.6352  0.0861  0.7689
  164SAPE   H8R18443   6.655   6.218   6.923 -0.5477 -2.2728 -3.1190
  164SAPE   C2918444   6.554   6.184   7.111 -0.7085 -0.0489  0.3073
  164SAPE   H9R18445   6.571   6.287   7.145  0.7686 -0.0224 -0.4828
  164SAPE  C21018446   6.480   6.096   7.203  0.4543  0.3341 -0.3253
  164SAPE  H10R18447   6.454   5.996   7.161 -0.9832  1.3573 -1.9072
  164SAPE  H10S18448   6.377   6.136   7.216  1.2559  2.7911 -1.2796
  164SAPE  C21118449   6.551   6.094   7.337  0.1179 -0.2671  0.3127
  164SAPE  H11R18450   6.646   6.039   7.337  0.4119  0.2197 -0.6055
  164SAPE  C21218451   6.505   6.124   7.457  0.0523 -0.4959 -0.4675
  164SAPE  H12R18452   6.575   6.110   7.541  0.7446 -0.3830 -1.0133
  164SAPE  C21318453   6.372   6.183   7.485  0.3104 -0.7062  0.4295
  164SAPE  H13R18454   6.366   6.265   7.410 -0.6411 -0.3655  0.8771
  164SAPE  H13S18455   6.379   6.229   7.586  0.7576 -0.7049  0.3978
  164SAPE  C21418456   6.240   6.103   7.486 -0.0957  0.2907  0.1375
  164SAPE  H14R18457   6.165   6.132   7.412 -0.7546 -1.2883  0.1712
  164SAPE  C21518458   6.202   6.006   7.565  0.2511  0.1482 -0.0436
  164SAPE  H15R18459   6.112   5.946   7.545  0.2211  0.2200 -0.1221
  164SAPE  C21618460   6.283   5.951   7.673  0.2443  0.4380 -0.6121
  164SAPE  H16R18461   6.387   5.990   7.674  0.3943  0.1198  3.1779
  164SAPE  H16S18462   6.287   5.841   7.659 -1.8064  0.2407  0.1494
  164SAPE  C21718463   6.218   5.972   7.810  0.4612 -1.4399  0.6706
  164SAPE  H17R18464   6.116   5.927   7.810 -0.5692  0.8347  1.9895
  164SAPE  H17S18465   6.203   6.079   7.836  2.1683 -1.2808  1.0629
  164SAPE  C21818466   6.289   5.904   7.932  0.5946 -0.1104  0.3154
  164SAPE  H18R18467   6.398   5.923   7.942  0.8313 -0.1810 -1.8852
  164SAPE  H18S18468   6.290   5.795   7.910 -1.5386 -0.1211  0.1945
  164SAPE  C21918469   6.214   5.929   8.059 -0.2969  0.5053  0.0502
  164SAPE  H19R18470   6.116   5.881   8.038  0.8245 -1.4696 -0.8105
  164SAPE  H19S18471   6.198   6.039   8.065  0.7951  0.6813 -0.2596
  164SAPE  C22018472   6.284   5.876   8.185  0.1213  0.3935 -0.1086
  164SAPE  H20R18473   6.393   5.897   8.195  0.2778 -0.8068  0.6914
  164SAPE  H20S18474   6.277   5.766   8.180 -1.0536  0.4061  1.0199
  164SAPE  H20T18475   6.232   5.913   8.276 -1.9984 -1.7287 -0.4327
  164SAPE   C3318476   5.643   5.812   6.860 -0.4501  0.3866  0.2349
  164SAPE   H3X18477   5.572   5.728   6.848 -0.0305  0.1401 -0.5308
  164SAPE   H3Y18478   5.592   5.907   6.833 -2.8652 -1.0447 -0.3544
  164SAPE   C3418479   5.692   5.822   7.006 -0.4834 -0.3663 -0.4033
  164SAPE   H4X18480   5.651   5.914   7.052 -0.3524 -0.7788  0.5492
  164SAPE   H4Y18481   5.799   5.849   7.001 -0.2374 -1.4311 -1.1585
  164SAPE   C3518482   5.666   5.700   7.089  0.1766 -0.3096  0.4800
  164SAPE   H5X18483   5.722   5.610   7.057 -1.5667 -1.9948  2.0989
  164SAPE   H5Y18484   5.563   5.662   7.071 -0.2167  0.5737  0.7955
  164SAPE   C3618485   5.666   5.724   7.241  0.2275 -0.0582  0.1096
  164SAPE   H6X18486   5.591   5.799   7.272 -0.9149 -1.3866  0.6356
  164SAPE   H6Y18487   5.765   5.763   7.274 -0.3143  1.1940  0.2429
  164SAPE   C3718488   5.623   5.595   7.325 -0.3182  0.1825 -0.0587
  164SAPE   H7X18489   5.522   5.564   7.291  1.2480 -4.0043 -1.2265
  164SAPE   H7Y18490   5.602   5.614   7.432 -1.9863  1.3119 -0.5624
  164SAPE   C3818491   5.709   5.469   7.315  0.3286 -0.5713  0.2121
  164SAPE   H8X18492   5.700   5.440   7.208 -2.8844  1.2163 -0.0608
  164SAPE   H8Y18493   5.661   5.382   7.366 -1.3972  0.4009  0.3011
  164SAPE   C3918494   5.855   5.487   7.358  0.6070 -0.2500 -0.0791
  164SAPE   H9X18495   5.865   5.537   7.457  2.3263 -3.3985  1.4207
  164SAPE   H9Y18496   5.913   5.555   7.291  0.1230 -0.5248 -0.7783
  164SAPE  C31018497   5.922   5.348   7.367  0.4125 -0.8693 -0.0826
  164SAPE  H10X18498   5.933   5.304   7.265  3.0602  1.4173 -0.8629
  164SAPE  H10Y18499   5.859   5.296   7.441 -0.6458  3.4194  2.2168
  164SAPE  C31118500   6.060   5.354   7.424 -0.5037 -0.1953  0.1672
  164SAPE  H11X18501   6.063   5.416   7.516 -1.4854 -1.0568  0.7973
  164SAPE  H11Y18502   6.124   5.409   7.352  3.1272  0.0444  3.4008
  164SAPE  C31218503   6.141   5.229   7.458 -0.2538  0.2655  0.3182
  164SAPE  H12X18504   6.175   5.161   7.377 -2.9944  0.2897 -0.9061
  164SAPE  H12Y18505   6.077   5.165   7.522  0.9656  0.5041  1.8059
  164SAPE  C31318506   6.263   5.251   7.552  0.1828  0.2396  0.5138
  164SAPE  H13X18507   6.229   5.286   7.652  1.0398 -0.3841  1.0322
  164SAPE  H13Y18508   6.332   5.327   7.509 -0.3063 -0.0183 -0.7440
  164SAPE  C31418509   6.354   5.128   7.562  0.3860  0.2269 -0.0912
  164SAPE  H14X18510   6.372   5.098   7.456 -1.9757 -0.4471 -0.3182
  164SAPE  H14Y18511   6.304   5.041   7.610  1.7341 -0.0375  0.8780
  164SAPE  C31518512   6.485   5.159   7.630 -0.4487 -0.1467 -0.5011
  164SAPE  H15X18513   6.553   5.228   7.576 -1.4410  1.1752 -0.1083
  164SAPE  H15Y18514   6.548   5.069   7.640 -0.3815 -0.0399  0.0347
  164SAPE  C31618515   6.479   5.201   7.783 -0.1192  0.2433  0.4636
  164SAPE  H16X18516   6.418   5.294   7.788  0.5971  0.6801  1.0749
  164SAPE  H16Y18517   6.581   5.219   7.823 -0.6342  0.1338  1.8707
  164SAPE  C31718518   6.413   5.095   7.878 -0.6138  0.7994  0.1791
  164SAPE  H17X18519   6.484   5.014   7.906 -1.2280 -0.4487 -1.7527
  164SAPE  H17Y18520   6.324   5.055   7.824 -0.1084  0.3676 -0.3470
  164SAPE  C31818521   6.372   5.152   8.015 -0.5771 -0.7339 -0.8823
  164SAPE  H18X18522   6.466   5.180   8.067  0.0090  0.8219 -2.6829
  164SAPE  H18Y18523   6.333   5.078   8.088  0.4187  0.9135  1.3958
  164SAPE  H18Z18524   6.305   5.241   8.007 -2.4086 -2.0115 -0.1158
  165SAPE     N18525   5.980   1.803   6.339 -0.6329  0.1513 -0.1635
  165SAPE   HN118526   5.986   1.880   6.269 -0.0258  1.4658  1.2833
  165SAPE   HN218527   5.958   1.845   6.432  0.2231 -1.1790  0.6590
  165SAPE   HN318528   6.073   1.761   6.356 -0.6414  0.5292  0.8181
  165SAPE   C1218529   5.892   1.677   6.311  0.5283  0.1954 -0.0418
  165SAPE  H12A18530   5.785   1.709   6.314  0.5131  0.0897  0.4647
  165SAPE  H12B18531   5.899   1.615   6.402  0.0148  0.3858  0.1287
  165SAPE   C1118532   5.951   1.604   6.189 -0.3006 -0.0999  0.1614
  165SAPE  H11A18533   5.977   1.685   6.117  0.5845  0.0190  0.6146
  165SAPE  H11B18534   5.872   1.535   6.151  0.0331 -0.7858  0.7113
  165SAPE     P18535   6.080   1.378   6.221 -0.0403  0.0571  0.1887
  165SAPE   O1318536   5.968   1.328   6.304  0.2997 -0.1005  0.2108
  165SAPE   O1418537   6.084   1.325   6.085 -0.3694 -0.2915 -0.3926
  165SAPE   O1218538   6.071   1.539   6.218 -0.8283 -0.5362  0.7893
  165SAPE   O1118539   6.217   1.348   6.296 -0.2821 -0.5192 -0.1068
  165SAPE    C118540   6.263   1.442   6.398  0.0479  0.3817 -0.4239
  165SAPE    HA18541   6.368   1.419   6.423  0.0287 -0.0298 -0.7093
  165SAPE    HB18542   6.264   1.547   6.362  1.9403 -0.1177 -1.9042
  165SAPE    C218543   6.186   1.423   6.534 -0.5987 -0.5872  0.0300
  165SAPE    HS18544   6.077   1.431   6.511 -0.4844 -0.0055 -0.3100
  165SAPE   O2118545   6.231   1.527   6.625  0.0758  0.0433  0.0598
  165SAPE   C2118546   6.176   1.643   6.629 -0.1178 -0.9466  0.5293
  165SAPE   O2218547   6.073   1.675   6.572 -0.1187  0.1138 -0.4276
  165SAPE   C2218548   6.262   1.738   6.714  0.2828 -0.3228 -0.2668
  165SAPE   H2R18549   6.369   1.707   6.709  0.7480  1.2472 -0.3715
  165SAPE   H2S18550   6.264   1.840   6.670 -1.9428 -0.4130 -0.6116
  165SAPE    C318551   6.208   1.276   6.588 -0.0468  0.2588 -0.4789
  165SAPE    HX18552   6.319   1.278   6.575  0.0776  1.9840  0.7237
  165SAPE    HY18553   6.161   1.199   6.523  0.1614  0.8102 -1.2901
  165SAPE   O3118554   6.167   1.262   6.726  0.0183  0.1058  0.4465
  165SAPE   C3118555   6.030   1.252   6.741 -0.5682  0.0807 -0.0421
  165SAPE   O3218556   5.946   1.275   6.656  0.5440 -0.1723 -0.1969
  165SAPE   C3218557   6.002   1.187   6.878 -0.1301 -0.4906 -0.0891
  165SAPE   H2X18558   6.100   1.210   6.926 -0.8771  3.3879 -0.2327
  165SAPE   H2Y18559   5.994   1.077   6.864 -0.5959 -0.4267 -0.3242
  165SAPE   C2318560   6.221   1.756   6.861 -0.5804  0.1129 -0.2070
  165SAPE   H3R18561   6.111   1.764   6.869 -0.7000  0.7672 -2.1735
  165SAPE   H3S18562   6.267   1.850   6.897  0.5534  0.2349 -1.9221
  165SAPE   C2418563   6.264   1.634   6.949 -0.0213  0.3052  0.7930
  165SAPE   H4R18564   6.360   1.662   6.998  0.2091 -0.2522  0.6619
  165SAPE   H4S18565   6.277   1.544   6.886 -0.1922  0.4466  0.5553
  165SAPE   C2518566   6.168   1.581   7.059  0.2816  0.1512  0.3931
  165SAPE   H5R18567   6.094   1.507   7.026  0.3228 -0.6949  2.1340
  165SAPE   C2618568   6.179   1.607   7.189 -0.4956 -0.1765 -0.8364
  165SAPE   H6R18569   6.103   1.564   7.256  0.9653 -1.4974  0.0262
  165SAPE   C2718570   6.291   1.687   7.258  0.1855 -0.0979  0.3594
  165SAPE   H7R18571   6.253   1.789   7.285  0.7590  0.3878 -0.6447
  165SAPE   H7S18572   6.364   1.731   7.187 -0.8693  2.3503  0.7108
  165SAPE   C2818573   6.366   1.629   7.374 -0.1323  0.0645  0.0645
  165SAPE   H8R18574   6.386   1.522   7.360 -1.7047 -0.0175 -1.7554
  165SAPE   C2918575   6.386   1.682   7.496  0.7234  0.2322 -0.2099
  165SAPE   H9R18576   6.439   1.623   7.572  0.6060  1.3077  0.7113
  165SAPE  C21018577   6.337   1.821   7.546 -0.3787  0.3279 -0.5803
  165SAPE  H10R18578   6.335   1.904   7.473 -3.2682  0.9810  0.1739
  165SAPE  H10S18579   6.414   1.849   7.621 -1.8893  1.4591  0.5775
  165SAPE  C21118580   6.191   1.824   7.603  0.2828  0.4596 -0.3380
  165SAPE  H11R18581   6.110   1.863   7.539 -0.4450  0.7463  0.7551
  165SAPE  C21218582   6.161   1.784   7.730  0.5312 -0.4182  0.5124
  165SAPE  H12R18583   6.054   1.789   7.757 -0.1842 -1.5800 -1.9961
  165SAPE  C21318584   6.250   1.735   7.838 -0.1747 -0.7812 -0.1986
  165SAPE  H13R18585   6.330   1.669   7.798 -1.1985 -2.5543  0.6360
  165SAPE  H13S18586   6.192   1.669   7.905  3.9070 -1.6831  2.6716
  165SAPE  C21418587   6.315   1.847   7.925 -0.4856 -0.4496  0.4866
  165SAPE  H14R18588   6.331   1.943   7.874 -1.7610 -0.9405 -0.8716
  165SAPE  C21518589   6.371   1.815   8.042  0.2721 -0.2166 -0.2793
  165SAPE  H15R18590   6.416   1.891   8.108 -2.0803 -1.0606  2.4250
  165SAPE  C21618591   6.391   1.675   8.104 -0.4762 -0.1270  0.5089
  165SAPE  H16R18592   6.492   1.649   8.065 -0.7031  1.2271 -1.0126
  165SAPE  H16S18593   6.327   1.592   8.069 -1.0442 -0.6869  2.8150
  165SAPE  C21718594   6.393   1.662   8.250  0.1770  0.1532 -0.2851
  165SAPE  H17R18595   6.399   1.555   8.279 -0.3613  0.0912 -0.3940
  165SAPE  H17S18596   6.293   1.691   8.290  0.4631  1.8761 -0.7609
  165SAPE  C21818597   6.500   1.740   8.328 -0.3118  0.1653 -0.1478
  165SAPE  H18R18598   6.471   1.846   8.345  0.7043  0.2940  0.7999
  165SAPE  H18S18599   6.596   1.732   8.274 -0.0960 -0.0636  0.2695
  165SAPE  C21918600   6.517   1.664   8.462 -0.5052  0.0619 -0.5053
  165SAPE  H19R18601   6.536   1.557   8.439 -2.3454 -0.3217 -0.3055
  165SAPE  H19S18602   6.422   1.687   8.515 -0.4249 -0.8345  0.0343
  165SAPE  C22018603   6.638   1.714   8.545  0.1532 -0.7330 -0.2313
  165SAPE  H20R18604   6.629   1.667   8.646 -4.8386  0.5448  0.0594
  165SAPE  H20S18605   6.649   1.825   8.553  0.5519 -1.0123  5.1692
  165SAPE  H20T18606   6.731   1.684   8.493 -0.1982  1.1269 -1.9720
  165SAPE   C3318607   5.884   1.252   6.951  0.8500 -0.7884  0.3692
  165SAPE   H3X18608   5.787   1.223   6.905  1.2022 -0.3666 -0.6509
  165SAPE   H3Y18609   5.889   1.359   6.925  0.5540 -0.7670  0.4047
  165SAPE   C3418610   5.884   1.223   7.101  0.2531  0.6601  0.2191
  165SAPE   H4X18611   5.992   1.203   7.118  0.1571 -1.1093 -1.0855
  165SAPE   H4Y18612   5.821   1.141   7.141  0.5171  1.0015  1.3615
  165SAPE   C3518613   5.828   1.342   7.173 -0.3483 -0.4294 -0.6074
  165SAPE   H5X18614   5.719   1.345   7.151 -0.9165  1.5750  2.1109
  165SAPE   H5Y18615   5.874   1.436   7.135  1.7160 -0.5627  1.4403
  165SAPE   C3618616   5.880   1.337   7.320  0.7493  0.2583  0.5441
  165SAPE   H6X18617   5.991   1.333   7.313  0.6330 -1.2280 -0.7724
  165SAPE   H6Y18618   5.845   1.246   7.373 -1.9595  0.9361 -0.0466
  165SAPE   C3718619   5.834   1.451   7.412  0.4063  0.0637 -0.0585
  165SAPE   H7X18620   5.735   1.448   7.461  0.8512 -1.0577  0.8039
  165SAPE   H7Y18621   5.836   1.537   7.341  1.0092 -0.0187 -0.1494
  165SAPE   C3818622   5.942   1.488   7.512  0.7590 -0.4619 -0.6962
  165SAPE   H8X18623   5.924   1.577   7.575 -0.5188 -1.3242  0.1895
  165SAPE   H8Y18624   6.032   1.514   7.453  1.1358 -0.3939 -0.1027
  165SAPE   C3918625   5.965   1.363   7.601  0.0062 -0.3795 -0.1912
  165SAPE   H9X18626   6.024   1.291   7.540  0.9674 -0.6363  1.0207
  165SAPE   H9Y18627   5.861   1.337   7.626 -0.6126  2.6760  0.6078
  165SAPE  C31018628   6.043   1.407   7.727  0.4338  0.5200 -0.1248
  165SAPE  H10X18629   6.127   1.477   7.706 -0.5039  1.8666  0.4969
  165SAPE  H10Y18630   6.082   1.313   7.770 -0.4114 -1.1728 -2.9207
  165SAPE  C31118631   5.951   1.460   7.835 -0.3899  0.2014 -0.4318
  165SAPE  H11X18632   5.853   1.407   7.831  0.4123 -1.3392  0.1625
  165SAPE  H11Y18633   5.937   1.570   7.832 -1.8174  0.0085 -1.4648
  165SAPE  C31218634   6.008   1.420   7.971  0.0413 -0.2401  0.1459
  165SAPE  H12X18635   6.117   1.440   7.980  0.3761 -1.2378 -1.5508
  165SAPE  H12Y18636   6.001   1.309   7.982  1.0795 -0.4971 -1.6986
  165SAPE  C31318637   5.927   1.474   8.089  0.6026 -0.0044 -0.1483
  165SAPE  H13X18638   5.937   1.394   8.166 -0.5252 -0.7071 -0.7232
  165SAPE  H13Y18639   5.818   1.487   8.078  0.5365  0.2370  0.7466
  165SAPE  C31418640   5.972   1.613   8.141 -0.3021 -0.0395  0.6482
  165SAPE  H14X18641   5.946   1.675   8.052 -0.2151 -2.4261 -1.1007
  165SAPE  H14Y18642   6.080   1.617   8.164 -0.5123  1.7288  1.3684
  165SAPE  C31518643   5.898   1.659   8.265 -0.0516 -0.7501  0.5171
  165SAPE  H15X18644   5.928   1.601   8.355 -0.2038 -1.4548  0.1097
  165SAPE  H15Y18645   5.791   1.650   8.235 -0.0159 -0.4340  0.2886
  165SAPE  C31618646   5.904   1.813   8.279  0.0660  0.5058 -0.8489
  165SAPE  H16X18647   5.855   1.869   8.197 -0.2961  1.7333  0.1741
  165SAPE  H16Y18648   6.009   1.848   8.286 -0.0973  0.7028  0.8776
  165SAPE  C31718649   5.833   1.841   8.410 -0.0142  0.5722 -0.8462
  165SAPE  H17X18650   5.893   1.790   8.488 -2.3995  2.5925  2.4209
  165SAPE  H17Y18651   5.729   1.802   8.418 -0.1674  1.2666  0.7859
  165SAPE  C31818652   5.827   1.993   8.448  0.1252  0.7318 -0.0127
  165SAPE  H18X18653   5.771   2.014   8.542 -1.1395  0.6969 -0.7510
  165SAPE  H18Y18654   5.774   2.038   8.361  1.8693  0.8834 -1.0227
  165SAPE  H18Z18655   5.931   2.030   8.456  0.9266 -1.1019 -1.5890
  166SAPE     N18656   5.468   5.007   6.008  0.9377  0.3995  0.8852
  166SAPE   HN118657   5.463   4.984   5.907  2.2584 -0.1320  0.9356
  166SAPE   HN218658   5.551   4.951   6.034  1.3500 -0.1018 -1.4317
  166SAPE   HN318659   5.380   4.974   6.053  1.5711 -0.8947  1.1927
  166SAPE   C1218660   5.485   5.152   6.034 -0.4457 -0.2110  0.1868
  166SAPE  H12A18661   5.534   5.154   6.134  1.7008 -1.1613 -0.7988
  166SAPE  H12B18662   5.383   5.195   6.038 -0.1307  0.4556  1.3314
  166SAPE   C1118663   5.562   5.224   5.930 -0.4308  0.3004  0.2780
  166SAPE  H11A18664   5.560   5.334   5.947 -4.6865  0.1434  1.4465
  166SAPE  H11B18665   5.509   5.215   5.833  1.6875  1.9469 -1.0650
  166SAPE     P18666   5.826   5.239   5.903  0.1228 -0.2526  0.0403
  166SAPE   O1318667   5.883   5.151   5.802 -0.1336 -0.1915  0.4359
  166SAPE   O1418668   5.808   5.384   5.870  0.3796  0.2390  0.8189
  166SAPE   O1218669   5.695   5.168   5.931  0.3545 -0.1489  0.4010
  166SAPE   O1118670   5.912   5.224   6.033  0.1643 -0.5244 -0.0280
  166SAPE    C118671   5.901   5.108   6.118 -0.0740 -0.2384  0.8464
  166SAPE    HA18672   5.829   5.041   6.066 -0.4113  0.3276  0.5756
  166SAPE    HB18673   5.995   5.050   6.126 -0.0906 -0.7531 -2.0553
  166SAPE    C218674   5.847   5.153   6.258 -0.3997  0.0221  0.2166
  166SAPE    HS18675   5.756   5.213   6.238 -2.4037 -3.0539 -0.2339
  166SAPE   O2118676   5.950   5.228   6.324 -0.0816 -0.6922  0.4147
  166SAPE   C2118677   5.906   5.333   6.385  0.6231  0.3251  0.1591
  166SAPE   O2218678   5.797   5.387   6.369 -0.6557 -0.6018  0.1580
  166SAPE   C2218679   6.011   5.340   6.493  0.2001 -0.7678  0.5965
  166SAPE   H2R18680   5.983   5.268   6.574  0.6594 -1.0802  0.4814
  166SAPE   H2S18681   6.116   5.320   6.461  0.4358  1.0033  0.2573
  166SAPE    C318682   5.795   5.035   6.343  0.1010  0.1415 -0.5098
  166SAPE    HX18683   5.874   4.957   6.341  0.5684  0.5342  1.5792
  166SAPE    HY18684   5.708   5.002   6.283  0.2826 -1.1573 -0.0764
  166SAPE   O3118685   5.769   5.067   6.479  0.0320  0.3408  0.3471
  166SAPE   C3118686   5.644   5.101   6.504  0.7358 -0.3300  0.2141
  166SAPE   O3218687   5.552   5.105   6.418 -0.2295  0.0153 -0.7360
  166SAPE   C3218688   5.624   5.138   6.646 -0.0323 -0.2253  0.2411
  166SAPE   H2X18689   5.721   5.117   6.696  0.5342  1.6451 -0.0368
  166SAPE   H2Y18690   5.551   5.064   6.683  0.1933 -0.5483  0.0454
  166SAPE   C2318691   6.013   5.476   6.552  0.4342 -0.1395  0.6215
  166SAPE   H3R18692   5.919   5.523   6.588  0.5223  1.4652 -1.1442
  166SAPE   H3S18693   6.042   5.549   6.472  1.1660  0.2581  1.2400
  166SAPE   C2418694   6.114   5.482   6.666  0.0726 -0.2786  0.3401
  166SAPE   H4R18695   6.131   5.589   6.692 -0.7951 -0.2237  0.6907
  166SAPE   H4S18696   6.215   5.447   6.633  0.5210  1.0751  0.2469
  166SAPE   C2518697   6.069   5.415   6.792 -0.6226 -0.1777  0.0383
  166SAPE   H5R18698   6.022   5.316   6.780  0.0186 -0.1353 -3.4604
  166SAPE   C2618699   6.083   5.456   6.918  0.4304 -0.2917 -0.1040
  166SAPE   H6R18700   6.059   5.389   7.002  0.3814 -1.1851 -0.8154
  166SAPE   C2718701   6.156   5.580   6.965  0.8184  0.2663 -0.5160
  166SAPE   H7R18702   6.215   5.618   6.879  0.9558 -0.2427 -0.6482
  166SAPE   H7S18703   6.236   5.548   7.036  0.1882 -1.4808 -0.5762
  166SAPE   C2818704   6.075   5.699   7.015  0.1833 -0.2889 -0.2411
  166SAPE   H8R18705   5.987   5.729   6.958  0.7350  1.3583 -0.2455
  166SAPE   C2918706   6.095   5.774   7.121  0.3717  0.5960  0.4653
  166SAPE   H9R18707   6.022   5.856   7.131  0.5273  1.0054 -1.5755
  166SAPE  C21018708   6.213   5.759   7.213 -0.6124  0.6827  0.1294
  166SAPE  H10R18709   6.252   5.857   7.246  1.1135  0.4242 -1.0784
  166SAPE  H10S18710   6.297   5.715   7.155 -1.9431  1.0296 -2.0872
  166SAPE  C21118711   6.188   5.682   7.345  0.2333  0.2370 -0.3231
  166SAPE  H11R18712   6.083   5.677   7.378  0.7894 -1.7774  1.1603
  166SAPE  C21218713   6.286   5.622   7.415  0.5050  0.2196 -0.0419
  166SAPE  H12R18714   6.260   5.586   7.516  1.1418  0.3796  0.1785
  166SAPE  C21318715   6.436   5.618   7.390  0.2378 -0.1996 -0.6437
  166SAPE  H13R18716   6.459   5.619   7.282  0.5319 -2.0327 -0.6234
  166SAPE  H13S18717   6.471   5.525   7.441  0.9582  0.3339 -0.1602
  166SAPE  C21418718   6.499   5.741   7.461  1.0100 -0.5354 -0.8150
  166SAPE  H14R18719   6.457   5.840   7.437 -0.3049 -1.1264 -0.9779
  166SAPE  C21518720   6.597   5.747   7.552  0.2030  0.4550 -0.4449
  166SAPE  H15R18721   6.630   5.846   7.586  1.1743 -0.1164  0.3001
  166SAPE  C21618722   6.678   5.630   7.603  0.2348  0.1991 -0.1930
  166SAPE  H16R18723   6.784   5.652   7.577  0.3936  0.8848  1.0209
  166SAPE  H16S18724   6.649   5.530   7.564 -0.8730  0.1386  0.7488
  166SAPE  C21718725   6.681   5.612   7.761 -0.2181  0.2798  0.3271
  166SAPE  H17R18726   6.730   5.516   7.787 -0.3388  0.0684 -0.2353
  166SAPE  H17S18727   6.578   5.592   7.798  0.1616 -0.2792  1.1206
  166SAPE  C21818728   6.743   5.727   7.837 -0.2420 -0.2259 -0.0890
  166SAPE  H18R18729   6.670   5.809   7.851  0.4792  0.2110  1.2870
  166SAPE  H18S18730   6.814   5.781   7.770 -0.9363  0.9174  0.0803
  166SAPE  C21918731   6.822   5.683   7.964  0.6565 -0.7258  0.7313
  166SAPE  H19R18732   6.892   5.605   7.926  1.3816  0.4147 -0.3047
  166SAPE  H19S18733   6.751   5.628   8.029  1.6289 -1.9452  0.7902
  166SAPE  C22018734   6.899   5.790   8.034  0.3430 -0.1495  0.0134
  166SAPE  H20R18735   6.992   5.816   7.979  1.5349 -3.1750  0.5454
  166SAPE  H20S18736   6.919   5.759   8.139 -0.8797  1.4664  0.7396
  166SAPE  H20T18737   6.832   5.878   8.042  0.9223  0.2546  0.5064
  166SAPE   C3318738   5.590   5.299   6.661  0.1681 -0.1280  0.1597
  166SAPE   H3X18739   5.482   5.324   6.657  0.4008  0.6934 -1.6064
  166SAPE   H3Y18740   5.638   5.343   6.571  1.4799  0.2340  1.0173
  166SAPE   C3418741   5.662   5.370   6.776  0.0169  0.4746 -0.4135
  166SAPE   H4X18742   5.610   5.468   6.787 -0.0927  0.4008 -0.2719
  166SAPE   H4Y18743   5.765   5.396   6.744  1.5320 -2.6605  1.6407
  166SAPE   C3518744   5.648   5.290   6.903 -0.3494  0.5198 -0.4370
  166SAPE   H5X18745   5.686   5.357   6.983  0.4064  1.6053 -1.6849
  166SAPE   H5Y18746   5.706   5.195   6.897 -1.3557 -0.0293 -1.7244
  166SAPE   C3618747   5.496   5.264   6.940  0.3556  0.4224  0.3051
  166SAPE   H6X18748   5.437   5.206   6.866 -1.4321  2.0876  0.3794
  166SAPE   H6Y18749   5.442   5.361   6.945 -0.1682  0.1647 -0.2639
  166SAPE   C3718750   5.485   5.191   7.073 -0.4546 -0.3535  0.5719
  166SAPE   H7X18751   5.577   5.221   7.128 -0.9132  0.4963  0.8868
  166SAPE   H7Y18752   5.484   5.080   7.066  2.8870 -0.3590 -1.0643
  166SAPE   C3818753   5.370   5.237   7.166  0.3090 -0.3959  0.1899
  166SAPE   H8X18754   5.273   5.196   7.130  1.5501 -1.3253 -2.2045
  166SAPE   H8Y18755   5.372   5.348   7.158  1.4629 -0.4751 -0.6174
  166SAPE   C3918756   5.389   5.193   7.307 -0.2380  0.4623  0.2164
  166SAPE   H9X18757   5.492   5.219   7.339 -0.3006  1.5470 -0.4796
  166SAPE   H9Y18758   5.362   5.085   7.315  1.3020  0.1583  1.6564
  166SAPE  C31018759   5.293   5.258   7.411 -0.2708  0.0976  0.2892
  166SAPE  H10X18760   5.188   5.227   7.394 -0.1787  0.2174 -0.4775
  166SAPE  H10Y18761   5.299   5.368   7.403 -2.2595  0.1115 -1.4077
  166SAPE  C31118762   5.324   5.216   7.556 -0.4877  0.9918  0.0055
  166SAPE  H11X18763   5.425   5.251   7.587  0.3564 -1.8130  0.5722
  166SAPE  H11Y18764   5.343   5.107   7.557  3.4184  1.5832 -0.0008
  166SAPE  C31218765   5.230   5.270   7.666 -0.4155 -0.1102  0.2233
  166SAPE  H12X18766   5.127   5.251   7.631 -0.2114 -1.2169  0.1916
  166SAPE  H12Y18767   5.255   5.377   7.683 -2.4030  0.2241  1.0367
  166SAPE  C31318768   5.230   5.203   7.803 -0.4239  0.4416  0.1617
  166SAPE  H13X18769   5.336   5.179   7.827  0.2894  0.8147 -2.4891
  166SAPE  H13Y18770   5.169   5.112   7.786 -1.1070  0.7306  1.0123
  166SAPE  C31418771   5.169   5.286   7.918 -0.2643 -0.5403 -0.3641
  166SAPE  H14X18772   5.154   5.212   8.000  0.4751 -0.5068 -0.1943
  166SAPE  H14Y18773   5.068   5.315   7.882 -1.6303  1.6868  4.8372
  166SAPE  C31518774   5.253   5.406   7.968 -0.1830 -0.5504 -0.3807
  166SAPE  H15X18775   5.266   5.475   7.883  2.6437 -1.4052 -0.6768
  166SAPE  H15Y18776   5.358   5.377   7.987 -0.3563 -0.2890  1.0673
  166SAPE  C31618777   5.186   5.469   8.084  1.0237 -0.2520 -1.2899
  166SAPE  H16X18778   5.223   5.565   8.124  1.0396 -0.5769 -0.5103
  166SAPE  H16Y18779   5.189   5.409   8.178 -2.2576 -0.2351 -1.1206
  166SAPE  C31718780   5.034   5.490   8.066 -0.0016 -0.4413  0.4587
  166SAPE  H17X18781   4.983   5.392   8.057 -2.0934  0.9460 -3.8482
  166SAPE  H17Y18782   5.028   5.548   7.972  1.8145  1.4761  1.4888
  166SAPE  C31818783   4.973   5.555   8.187 -0.3504  0.0336  0.3870
  166SAPE  H18X18784   4.990   5.665   8.188 -1.9068  0.2922 -0.4468
  166SAPE  H18Y18785   5.017   5.518   8.283  0.6097 -0.9887 -0.4282
  166SAPE  H18Z18786   4.863   5.544   8.190 -0.1647 -1.7823  1.9742
  167SAPE     N18787   0.354   3.869   6.014  0.0168  0.1372 -0.3255
  167SAPE   HN118788   0.388   3.900   5.921  1.3301 -0.5031 -0.0707
  167SAPE   HN218789   0.425   3.878   6.089 -0.2823 -1.0298  0.1035
  167SAPE   HN318790   0.339   3.767   6.006 -0.0733  0.2186 -1.2379
  167SAPE   C1218791   0.220   3.922   6.054 -0.7276 -0.1248  0.5724
  167SAPE  H12A18792   0.154   3.917   5.965 -0.1717  0.9188  0.0894
  167SAPE  H12B18793   0.217   4.031   6.073 -0.3213  0.0750 -0.4575
  167SAPE   C1118794   0.172   3.836   6.166 -0.4548  0.3233  0.0189
  167SAPE  H11A18795   0.062   3.850   6.178 -0.3660  0.6284  0.4852
  167SAPE  H11B18796   0.225   3.860   6.260  2.1347 -2.1902 -0.7212
  167SAPE     P18797   0.206   3.579   6.246 -0.0785 -0.1184  0.2034
  167SAPE   O1318798   0.137   3.450   6.203  0.6253  0.0329  0.2671
  167SAPE   O1418799   0.351   3.568   6.284  0.4520 -0.4573  0.0338
  167SAPE   O1218800   0.195   3.694   6.135 -0.6987 -0.4220 -0.0340
  167SAPE   O1118801   0.123   3.651   6.359 -0.1554  0.0085 -0.1516
  167SAPE    C118802   0.150   3.635   6.501  0.2240 -0.4614  0.2649
  167SAPE    HA18803   0.170   3.529   6.530 -0.5418 -0.7089 -0.0640
  167SAPE    HB18804   0.241   3.695   6.519  1.3551 -1.5653 -1.6045
  167SAPE    C218805   0.035   3.696   6.591  0.6275  1.0169 -0.3189
  167SAPE    HS18806  -0.056   3.634   6.576  1.2838 -0.6264  2.2660
  167SAPE   O2118807   0.019   3.828   6.538  0.1232 -0.9593 -0.1157
  167SAPE   C2118808  -0.104   3.871   6.552 -0.0309  0.0275  0.3446
  167SAPE   O2218809  -0.198   3.813   6.596 -0.0437  0.3312 -0.7649
  167SAPE   C2218810  -0.104   4.027   6.528 -0.0597 -0.1341  0.7243
  167SAPE   H2R18811  -0.000   4.060   6.553  1.0814 -2.0516 -1.2645
  167SAPE   H2S18812  -0.121   4.036   6.419  2.2060  0.2864  0.3780
  167SAPE    C318813   0.068   3.697   6.743 -0.4045 -0.7503  0.4072
  167SAPE    HX18814  -0.022   3.742   6.790 -1.3913 -2.5144  0.2128
  167SAPE    HY18815   0.148   3.775   6.750 -1.5658  0.6102 -1.1830
  167SAPE   O3118816   0.096   3.565   6.790 -0.2808 -0.8946 -0.2697
  167SAPE   C3118817   0.144   3.562   6.904  0.2067  0.4243 -0.4162
  167SAPE   O3218818   0.181   3.663   6.967  0.0008 -0.1780 -0.3950
  167SAPE   C3218819   0.155   3.414   6.950 -0.5424  1.4693 -0.2176
  167SAPE   H2X18820   0.242   3.370   6.897 -0.0577  0.0010  1.7271
  167SAPE   H2Y18821   0.068   3.355   6.916  0.2122 -0.3454  0.9502
  167SAPE   C2318822  -0.213   4.115   6.605  0.6010 -0.1031  0.1474
  167SAPE   H3R18823  -0.312   4.075   6.576 -0.3660  2.6351 -0.3619
  167SAPE   H3S18824  -0.209   4.215   6.559  3.0660 -0.3420 -0.2533
  167SAPE   C2418825  -0.198   4.149   6.754  0.2192 -0.0166 -0.5603
  167SAPE   H4R18826  -0.226   4.063   6.819 -0.6153 -0.0044 -0.8944
  167SAPE   H4S18827  -0.272   4.227   6.781 -0.1036  0.9461 -3.9507
  167SAPE   C2518828  -0.057   4.186   6.797  0.3025  0.1226 -0.4863
  167SAPE   H5R18829   0.018   4.114   6.760  1.0929  0.8541 -0.3235
  167SAPE   C2618830  -0.012   4.289   6.872 -1.3327 -0.2855 -0.3708
  167SAPE   H6R18831   0.097   4.291   6.888 -1.4025  0.9789 -0.0042
  167SAPE   C2718832  -0.098   4.406   6.920  0.3848  1.0073 -0.2531
  167SAPE   H7R18833  -0.162   4.368   7.003  0.5129 -0.5451 -0.8454
  167SAPE   H7S18834  -0.175   4.425   6.842 -1.1406  0.3956  1.0700
  167SAPE   C2818835  -0.017   4.524   6.965  0.2793  0.2481  0.4403
  167SAPE   H8R18836   0.048   4.558   6.883 -0.6652  1.1395  0.0462
  167SAPE   C2918837  -0.001   4.577   7.088 -0.6978 -0.5221 -0.3505
  167SAPE   H9R18838   0.063   4.666   7.095 -0.7997 -0.4199 -0.7292
  167SAPE  C21018839  -0.076   4.533   7.214 -0.2797  0.3484  0.4023
  167SAPE  H10R18840  -0.133   4.439   7.204  1.5028 -0.7957  0.7602
  167SAPE  H10S18841  -0.154   4.609   7.235 -0.9409  0.0872 -1.0229
  167SAPE  C21118842   0.031   4.528   7.324  0.0673  0.2190  0.3475
  167SAPE  H11R18843   0.136   4.512   7.293  0.5003  0.7161  1.5210
  167SAPE  C21218844   0.017   4.546   7.459  0.6780  0.4319  0.0776
  167SAPE  H12R18845   0.094   4.535   7.536  0.8865  2.7251  0.2291
  167SAPE  C21318846  -0.115   4.569   7.533  0.1762  0.8165  0.2399
  167SAPE  H13R18847  -0.130   4.480   7.598  2.1979 -0.7587 -1.3741
  167SAPE  H13S18848  -0.201   4.565   7.463  0.2682  0.7750  0.1298
  167SAPE  C21418849  -0.130   4.684   7.627  0.5761  0.2778  0.1657
  167SAPE  H14R18850  -0.069   4.768   7.589 -1.6999  1.8538 -0.1252
  167SAPE  C21518851  -0.200   4.697   7.741  0.3895 -0.6616 -0.6796
  167SAPE  H15R18852  -0.207   4.793   7.794 -2.0302 -0.9896 -0.3354
  167SAPE  C21618853  -0.281   4.591   7.813 -0.9047  0.3902 -0.1026
  167SAPE  H16R18854  -0.221   4.499   7.824 -0.3613  0.6676 -0.6616
  167SAPE  H16S18855  -0.376   4.567   7.761  1.2479 -1.9418 -3.1656
  167SAPE  C21718856  -0.311   4.649   7.950  0.0759  0.5824 -0.0427
  167SAPE  H17R18857  -0.379   4.572   7.992 -1.0056 -0.3133 -3.2457
  167SAPE  H17S18858  -0.381   4.735   7.939 -2.0301 -1.1656 -0.5992
  167SAPE  C21818859  -0.189   4.677   8.032 -0.2555  0.0355 -0.5250
  167SAPE  H18R18860  -0.138   4.763   7.984  0.1284  0.5920  0.8594
  167SAPE  H18S18861  -0.121   4.590   8.020  0.2565  0.2681  0.6155
  167SAPE  C21918862  -0.228   4.693   8.183  0.1854 -0.0540 -0.0044
  167SAPE  H19R18863  -0.290   4.613   8.230  1.3278 -0.6017  0.6085
  167SAPE  H19S18864  -0.271   4.795   8.187  1.6231  0.5139  1.6155
  167SAPE  C22018865  -0.102   4.685   8.274 -0.5035  0.4123  0.1166
  167SAPE  H20R18866  -0.033   4.764   8.237  0.2093 -1.1775 -2.0523
  167SAPE  H20S18867  -0.037   4.596   8.258 -1.8639 -0.3994 -0.9352
  167SAPE  H20T18868  -0.134   4.706   8.378 -0.5415 -1.3005  0.4644
  167SAPE   C3318869   0.181   3.397   7.094  0.4734 -0.1571  0.8456
  167SAPE   H3X18870   0.284   3.413   7.132  0.7630 -0.5648  0.2350
  167SAPE   H3Y18871   0.168   3.287   7.108  0.4445 -0.2661  0.0287
  167SAPE   C3418872   0.084   3.463   7.189 -0.2692  0.0232 -0.3030
  167SAPE   H4X18873  -0.022   3.452   7.158  0.1969 -3.4385 -0.9532
  167SAPE   H4Y18874   0.103   3.572   7.196 -0.9597  0.1084  0.2922
  167SAPE   C3518875   0.095   3.418   7.331  0.1348 -0.5116  0.5735
  167SAPE   H5X18876   0.205   3.417   7.347  0.3081  1.1282 -0.3912
  167SAPE   H5Y18877   0.049   3.317   7.332  1.0283 -0.9540 -1.0429
  167SAPE   C3618878   0.029   3.512   7.433 -0.2401  0.4914 -0.2348
  167SAPE   H6X18879  -0.080   3.506   7.410 -0.6033  1.5801  1.1482
  167SAPE   H6Y18880   0.073   3.613   7.420  0.3967  0.5186  2.0040
  167SAPE   C3718881   0.053   3.460   7.578 -0.0875 -0.1959  0.3086
  167SAPE   H7X18882   0.163   3.468   7.592  0.1078  2.5509 -2.2965
  167SAPE   H7Y18883   0.010   3.358   7.584  0.1655 -0.2119  2.0103
  167SAPE   C3818884  -0.021   3.541   7.681  0.7550  0.0800 -0.1346
  167SAPE   H8X18885  -0.132   3.538   7.689  0.8488 -0.7946  0.9617
  167SAPE   H8Y18886   0.012   3.644   7.656 -1.3039  0.7107 -0.3134
  167SAPE   C3918887   0.037   3.505   7.821 -0.9041  0.0011  0.2024
  167SAPE   H9X18888   0.142   3.539   7.835 -1.0752 -0.7759  3.7742
  167SAPE   H9Y18889   0.040   3.394   7.824  0.7284 -0.0467 -2.1262
  167SAPE  C31018890  -0.045   3.578   7.930  0.2107  0.2287 -0.1760
  167SAPE  H10X18891  -0.147   3.534   7.930 -0.3033  1.3184  2.8527
  167SAPE  H10Y18892  -0.064   3.686   7.912  0.1924  0.4706  1.2320
  167SAPE  C31118893   0.008   3.538   8.069 -0.2420 -0.3068  0.5946
  167SAPE  H11X18894   0.107   3.587   8.066 -1.4807  2.2885  0.3879
  167SAPE  H11Y18895   0.002   3.427   8.078  2.0113 -0.3262  2.1875
  167SAPE  C31218896  -0.092   3.598   8.173  0.0229  0.4307 -0.8506
  167SAPE  H12X18897  -0.194   3.583   8.131 -0.5715  0.9724  0.3668
  167SAPE  H12Y18898  -0.071   3.707   8.166  0.3536  0.4105 -0.2174
  167SAPE  C31318899  -0.073   3.536   8.312 -0.3925  0.2004 -0.0814
  167SAPE  H13X18900   0.034   3.545   8.339 -1.3143  3.1716  2.9183
  167SAPE  H13Y18901  -0.087   3.427   8.293  1.0186  0.0616 -0.3870
  167SAPE  C31418902  -0.153   3.594   8.434  0.1440 -0.5483 -0.6415
  167SAPE  H14X18903  -0.262   3.575   8.430 -0.2469  1.3771 -0.0566
  167SAPE  H14Y18904  -0.129   3.703   8.441 -1.8655 -0.1000 -0.5832
  167SAPE  C31518905  -0.104   3.533   8.566  0.3708  0.2576 -0.1415
  167SAPE  H15X18906  -0.005   3.567   8.603  0.4841 -0.7577  0.5063
  167SAPE  H15Y18907  -0.091   3.424   8.547  0.8080  0.2180  0.3782
  167SAPE  C31618908  -0.191   3.555   8.688  0.1720  0.1231 -0.6666
  167SAPE  H16X18909  -0.168   3.481   8.768  0.7315 -1.0639 -1.8983
  167SAPE  H16Y18910  -0.297   3.537   8.659  0.0485  0.7720 -0.6127
  167SAPE  C31718911  -0.177   3.694   8.752  0.0657 -0.0145  0.4813
  167SAPE  H17X18912  -0.238   3.691   8.845  0.7406  1.2809  0.9750
  167SAPE  H17Y18913  -0.227   3.765   8.683 -0.2418  0.3699  1.0966
  167SAPE  C31818914  -0.038   3.743   8.792 -0.3917  0.6529  0.3089
  167SAPE  H18X18915   0.022   3.685   8.865  1.0242  1.7470  0.0415
  167SAPE  H18Y18916  -0.055   3.843   8.837 -3.7595 -0.6984  2.2110
  167SAPE  H18Z18917   0.016   3.763   8.697  0.9823  0.1519  0.9644
  168SAPE     N18918   0.906   0.034   6.530 -0.0573  0.0009 -0.2205
  168SAPE   HN118919   0.995  -0.013   6.557 -1.1448 -1.0341  1.7244
  168SAPE   HN218920   0.918   0.079   6.438  1.0351 -0.5813 -0.3608
  168SAPE   HN318921   0.890   0.109   6.601  0.6145  0.0086 -0.0742
  168SAPE   C1218922   0.780  -0.056   6.541 -0.1585  0.1442  0.7671
  168SAPE  H12A18923   0.695   0.011   6.516 -1.2877 -2.0993 -1.6754
  168SAPE  H12B18924   0.770  -0.089   6.646 -2.4142 -0.6463  0.3308
  168SAPE   C1118925   0.791  -0.171   6.439 -0.2265 -0.9538 -0.0329
  168SAPE  H11A18926   0.785  -0.136   6.334 -0.7820 -0.1626  0.2629
  168SAPE  H11B18927   0.697  -0.226   6.459  1.0302 -3.3409 -0.4692
  168SAPE     P18928   1.027  -0.270   6.382  0.5596  0.1597  0.1046
  168SAPE   O1318929   1.002  -0.299   6.235 -0.6318  0.0488 -0.4405
  168SAPE   O1418930   1.086  -0.141   6.406 -0.1145 -0.2323 -0.6918
  168SAPE   O1218931   0.893  -0.259   6.460 -0.6298  0.2596 -0.0379
  168SAPE   O1118932   1.116  -0.384   6.442 -0.4490  0.2272 -0.3463
  168SAPE    C118933   1.061  -0.520   6.456  0.2376 -0.2143  0.0876
  168SAPE    HA18934   0.950  -0.519   6.453  0.2560  1.0379 -1.0253
  168SAPE    HB18935   1.090  -0.574   6.363  0.2201  0.0551 -0.0774
  168SAPE    C218936   1.112  -0.588   6.580 -0.5438 -0.1737  0.1127
  168SAPE    HS18937   1.063  -0.685   6.605 -1.6279  0.1744 -0.6038
  168SAPE   O2118938   1.101  -0.510   6.700  1.0743 -0.0421  0.1762
  168SAPE   C2118939   0.978  -0.475   6.725 -0.3069 -0.2007 -0.2216
  168SAPE   O2218940   0.878  -0.533   6.684  0.4916 -0.0048  0.6269
  168SAPE   C2218941   0.982  -0.344   6.805  0.0705  0.6485  0.2305
  168SAPE   H2R18942   1.058  -0.367   6.882 -1.3151  0.8949  1.7020
  168SAPE   H2S18943   1.011  -0.260   6.739  0.7485 -0.8403 -1.4073
  168SAPE    C318944   1.267  -0.610   6.559 -0.0469  0.8945  0.2312
  168SAPE    HX18945   1.294  -0.509   6.521  0.5537  0.3418 -0.8204
  168SAPE    HY18946   1.288  -0.683   6.478  1.9136  2.1484 -0.4140
  168SAPE   O3118947   1.331  -0.634   6.685  0.3353  0.1944  0.1885
  168SAPE   C3118948   1.462  -0.629   6.674  0.0370  0.5992  0.0251
  168SAPE   O3218949   1.523  -0.607   6.574 -0.0227 -0.2798 -0.0908
  168SAPE   C3218950   1.529  -0.672   6.806  0.4759  0.6138  0.0544
  168SAPE   H2X18951   1.489  -0.774   6.824  0.5064  0.3523 -1.3171
  168SAPE   H2Y18952   1.485  -0.615   6.890 -0.6969 -0.2957  0.0651
  168SAPE   C2318953   0.849  -0.296   6.866 -0.3143 -0.1800 -0.3444
  168SAPE   H3R18954   0.785  -0.292   6.776  0.8838  0.4588 -1.1796
  168SAPE   H3S18955   0.849  -0.189   6.894 -0.9999 -0.5701  1.2085
  168SAPE   C2418956   0.795  -0.377   6.987 -0.8302  0.1847 -0.3127
  168SAPE   H4R18957   0.881  -0.405   7.051 -0.3370 -0.5442 -1.2735
  168SAPE   H4S18958   0.772  -0.478   6.947  1.2459 -0.4750  0.0801
  168SAPE   C2518959   0.664  -0.337   7.051  0.4900  0.9894 -0.6773
  168SAPE   H5R18960   0.577  -0.323   6.986 -0.0823  0.0711 -0.1170
  168SAPE   C2618961   0.646  -0.309   7.179 -0.2887 -0.1177 -0.6912
  168SAPE   H6R18962   0.543  -0.298   7.214 -0.0264 -2.2842  0.8846
  168SAPE   C2718963   0.755  -0.316   7.285 -0.1517  0.6882 -0.3174
  168SAPE   H7R18964   0.747  -0.223   7.346 -2.3337  1.1180 -1.1946
  168SAPE   H7S18965   0.857  -0.320   7.242  0.5024 -1.3214  1.3746
  168SAPE   C2818966   0.745  -0.441   7.362 -0.1205 -0.1030  0.6692
  168SAPE   H8R18967   0.697  -0.528   7.315  3.6243 -0.8516 -2.0917
  168SAPE   C2918968   0.785  -0.463   7.488 -0.4753  0.0831  0.2598
  168SAPE   H9R18969   0.777  -0.563   7.532 -2.2495  1.3806  3.0518
  168SAPE  C21018970   0.857  -0.363   7.579 -0.0426  0.6755  0.4693
  168SAPE  H10R18971   0.928  -0.304   7.517  0.0806 -0.2727 -0.3073
  168SAPE  H10S18972   0.929  -0.424   7.637  1.1680 -0.3533 -2.0586
  168SAPE  C21118973   0.782  -0.270   7.673  0.1365  0.1012 -0.1347
  168SAPE  H11R18974   0.680  -0.238   7.648  0.2516  2.3662  2.1275
  168SAPE  C21218975   0.839  -0.223   7.788  0.4067  0.0757  0.0764
  168SAPE  H12R18976   0.780  -0.143   7.837  0.5884  2.3850 -3.3369
  168SAPE  C21318977   0.974  -0.255   7.846  0.7018  1.2417 -0.5200
  168SAPE  H13R18978   0.973  -0.175   7.923 -0.5110  1.2550 -0.5281
  168SAPE  H13S18979   1.047  -0.234   7.765 -1.0053 -0.0426 -2.4609
  168SAPE  C21418980   0.994  -0.386   7.912  0.3500 -0.0896 -0.3873
  168SAPE  H14R18981   0.923  -0.469   7.905 -1.2515  1.2179 -0.0268
  168SAPE  C21518982   1.093  -0.407   8.002  0.8010  0.5014 -0.1956
  168SAPE  H15R18983   1.092  -0.504   8.053 -0.1204  0.3080 -0.5712
  168SAPE  C21618984   1.194  -0.307   8.057 -0.0143 -0.5991  0.0338
  168SAPE  H16R18985   1.183  -0.204   8.017 -1.1974 -0.6561  0.1840
  168SAPE  H16S18986   1.297  -0.348   8.044  0.3459  0.6453 -1.2202
  168SAPE  C21718987   1.178  -0.301   8.206  0.2449  0.1427  0.2142
  168SAPE  H17R18988   1.179  -0.400   8.256  2.0161  1.4991  2.9918
  168SAPE  H17S18989   1.080  -0.257   8.236 -1.2055 -1.7319 -1.6718
  168SAPE  C21818990   1.286  -0.211   8.268 -0.0467  0.1431  0.5086
  168SAPE  H18R18991   1.281  -0.108   8.225 -0.1523  0.1749  0.5978
  168SAPE  H18S18992   1.381  -0.254   8.230  1.0606  0.7829  2.4789
  168SAPE  C21918993   1.283  -0.181   8.420  0.2489 -0.1899 -0.8304
  168SAPE  H19R18994   1.194  -0.124   8.455  0.2377 -0.8008  0.1747
  168SAPE  H19S18995   1.368  -0.119   8.455  0.9194 -1.5723  0.0713
  168SAPE  C22018996   1.295  -0.312   8.505 -0.1105 -0.1713  0.0557
  168SAPE  H20R18997   1.378  -0.377   8.471 -0.2597  1.0561 -2.8260
  168SAPE  H20S18998   1.202  -0.373   8.502 -1.1381  1.2062  2.2392
  168SAPE  H20T18999   1.309  -0.279   8.610 -0.2460  0.4292 -0.1142
  168SAPE   C3319000   1.680  -0.655   6.817  0.4738  0.2155 -0.3967
  168SAPE   H3X19001   1.700  -0.548   6.796 -0.0259  0.7780  1.8809
  168SAPE   H3Y19002   1.734  -0.716   6.741 -0.8198 -0.2107 -1.0019
  168SAPE   C3419003   1.734  -0.672   6.958 -0.1886 -0.1349 -0.2391
  168SAPE   H4X19004   1.844  -0.656   6.964  0.3601 -3.1744 -1.2914
  168SAPE   H4Y19005   1.726  -0.781   6.978 -2.0220  0.1439  0.6251
  168SAPE   C3519006   1.662  -0.597   7.068 -0.0871 -0.2863 -0.4619
  168SAPE   H5X19007   1.557  -0.628   7.088 -0.8988  0.2439 -3.5874
  168SAPE   H5Y19008   1.655  -0.491   7.038 -0.2488 -0.8646 -2.5576
  168SAPE   C3619009   1.746  -0.601   7.200 -0.2844 -0.0091 -0.3321
  168SAPE   H6X19010   1.778  -0.704   7.225 -0.0700 -0.2329 -1.4691
  168SAPE   H6Y19011   1.680  -0.572   7.284  0.6030 -1.9283  1.0413
  168SAPE   C3719012   1.853  -0.495   7.199 -0.1336  0.5320 -0.6143
  168SAPE   H7X19013   1.805  -0.395   7.183  1.2389  1.1098 -1.1960
  168SAPE   H7Y19014   1.928  -0.504   7.118  0.6379  0.8545  0.0614
  168SAPE   C3819015   1.938  -0.480   7.332  0.3513  0.2046  0.8932
  168SAPE   H8X19016   2.010  -0.397   7.316  0.1547  0.1247 -0.4462
  168SAPE   H8Y19017   1.988  -0.578   7.347 -2.0725 -1.4491 -1.4184
  168SAPE   C3919018   1.859  -0.426   7.463  0.1108 -0.2142 -0.9481
  168SAPE   H9X19019   1.781  -0.503   7.484 -1.9064  1.7610 -1.0083
  168SAPE   H9Y19020   1.812  -0.326   7.456 -0.0244 -0.0419  1.8093
  168SAPE  C31019021   1.967  -0.419   7.577  0.7659  0.3897  0.6956
  168SAPE  H10X19022   2.032  -0.329   7.576  0.1956  0.8091 -0.4925
  168SAPE  H10Y19023   2.034  -0.507   7.562 -3.1358 -2.5133 -0.7440
  168SAPE  C31119024   1.913  -0.422   7.723 -0.1035  0.2810  0.7489
  168SAPE  H11X19025   1.998  -0.419   7.794  0.6968  1.8136 -0.2337
  168SAPE  H11Y19026   1.854  -0.513   7.745  0.1783  0.2816  1.5297
  168SAPE  C31219027   1.827  -0.301   7.763  0.1888  0.1995 -0.3120
  168SAPE  H12X19028   1.739  -0.307   7.696  0.7498  1.2261 -1.1583
  168SAPE  H12Y19029   1.875  -0.206   7.732  4.2294 -1.4594  0.5718
  168SAPE  C31319030   1.766  -0.299   7.898  0.1109 -0.1760 -0.2949
  168SAPE  H13X19031   1.737  -0.403   7.925 -3.5076  0.9380  0.4853
  168SAPE  H13Y19032   1.674  -0.237   7.891 -1.3056 -1.8694  2.3346
  168SAPE  C31419033   1.868  -0.251   8.004  0.1886 -0.2120  0.3235
  168SAPE  H14X19034   1.918  -0.159   7.967  0.4715 -0.0942  0.9852
  168SAPE  H14Y19035   1.963  -0.307   8.017  0.4977  0.1674 -0.2776
  168SAPE  C31519036   1.815  -0.212   8.145 -0.1856  0.5285  0.2215
  168SAPE  H15X19037   1.735  -0.137   8.126  0.2042  0.9364  0.1563
  168SAPE  H15Y19038   1.901  -0.164   8.197  3.0399 -3.4388 -1.1809
  168SAPE  C31619039   1.772  -0.336   8.218 -0.2697  0.1795  0.0695
  168SAPE  H16X19040   1.831  -0.421   8.178 -1.6707 -1.0091  0.4926
  168SAPE  H16Y19041   1.673  -0.360   8.174 -0.5623  3.7544 -1.3909
  168SAPE  C31719042   1.780  -0.324   8.366  0.4334  0.7143  0.5436
  168SAPE  H17X19043   1.721  -0.235   8.395 -3.5771 -1.5544 -0.2378
  168SAPE  H17Y19044   1.886  -0.303   8.393  0.4713  0.6160  0.4695
  168SAPE  C31819045   1.723  -0.440   8.454 -0.2346  0.5621  0.4854
  168SAPE  H18X19046   1.756  -0.537   8.410 -0.3475 -0.0326  1.7126
  168SAPE  H18Y19047   1.616  -0.444   8.484 -0.4875  1.6386 -0.2696
  168SAPE  H18Z19048   1.792  -0.443   8.541 -1.9810  0.4389  1.8784
  169SAPE     N19049   6.684   2.030   6.375 -1.0034  0.6861  0.5760
  169SAPE   HN119050   6.716   1.936   6.345 -3.0774 -0.3919  1.6327
  169SAPE   HN219051   6.586   2.013   6.406 -1.5094  1.4327 -0.5458
  169SAPE   HN319052   6.685   2.086   6.287  1.2547 -1.6477 -0.9536
  169SAPE   C1219053   6.773   2.088   6.477  0.6232  0.4661  0.3692
  169SAPE  H12A19054   6.798   2.017   6.559  0.2268  0.5574  0.5659
  169SAPE  H12B19055   6.735   2.184   6.517 -1.7878 -0.3764  0.1937
  169SAPE   C1119056   6.906   2.124   6.410 -0.2234  1.0130 -0.2712
  169SAPE  H11A19057   6.965   2.172   6.491  2.1241 -1.9222 -0.1450
  169SAPE  H11B19058   6.879   2.196   6.330 -0.9954 -1.9359 -2.7990
  169SAPE     P19059   7.116   2.020   6.291  0.0901  0.0743  0.2829
  169SAPE   O1319060   7.136   1.890   6.225 -0.4075  0.3160  0.1611
  169SAPE   O1419061   7.133   2.149   6.215 -0.6061  0.1903  0.5594
  169SAPE   O1219062   6.963   2.012   6.343 -0.4876  0.0805  0.0918
  169SAPE   O1119063   7.189   2.026   6.430 -0.0168 -0.9804  0.0994
  169SAPE    C119064   7.226   1.910   6.497  0.8523 -0.0859 -0.9333
  169SAPE    HA19065   7.227   1.815   6.440  2.0218 -0.3956 -0.4136
  169SAPE    HB19066   7.323   1.914   6.552  0.5351 -1.5522 -0.2436
  169SAPE    C219067   7.113   1.887   6.611  0.0823  0.5466 -0.6204
  169SAPE    HS19068   7.007   1.899   6.577 -0.8691  2.8630  2.9180
  169SAPE   O2119069   7.130   1.982   6.719  0.4181 -0.7216 -0.5316
  169SAPE   C2119070   7.035   2.001   6.808  0.1875 -0.0504 -0.5041
  169SAPE   O2219071   6.931   1.937   6.808 -0.1997 -0.2721 -0.2968
  169SAPE   C2219072   7.074   2.120   6.896 -0.6986 -1.1218  0.3632
  169SAPE   H2R19073   7.112   2.196   6.825 -1.2138  1.1336  2.4105
  169SAPE   H2S19074   6.976   2.156   6.935 -0.1827  0.9205 -0.2049
  169SAPE    C319075   7.134   1.746   6.673 -0.1676 -0.1293 -0.1776
  169SAPE    HX19076   7.103   1.674   6.594 -2.5620 -1.3302  1.7669
  169SAPE    HY19077   7.052   1.744   6.749  0.0071  1.6800  0.0795
  169SAPE   O3119078   7.270   1.737   6.727 -0.0896 -0.2762 -0.4455
  169SAPE   C3119079   7.289   1.627   6.802 -0.9759 -0.5698 -0.3486
  169SAPE   O3219080   7.209   1.548   6.837  0.1731  0.2531 -0.5568
  169SAPE   C3219081   7.435   1.633   6.852  0.4041  0.4254  0.0926
  169SAPE   H2X19082   7.470   1.738   6.861  0.8467  0.2648  0.2392
  169SAPE   H2Y19083   7.498   1.605   6.765  0.0546  1.5276 -0.5294
  169SAPE   C2319084   7.167   2.081   7.014 -0.1796  0.5401  0.2349
  169SAPE   H3R19085   7.223   2.170   7.052  1.8302  0.1272 -1.6705
  169SAPE   H3S19086   7.239   2.001   6.987 -1.1330 -0.0806 -0.4951
  169SAPE   C2419087   7.088   2.022   7.135 -0.8390 -0.0995 -0.0965
  169SAPE   H4R19088   7.008   1.950   7.110 -1.6641  1.3457 -1.7262
  169SAPE   H4S19089   7.028   2.110   7.167 -1.4665  0.3095 -2.3005
  169SAPE   C2519090   7.181   1.967   7.244  0.2194 -0.5948  0.1988
  169SAPE   H5R19091   7.226   1.870   7.217  1.1138  0.2363 -1.4075
  169SAPE   C2619092   7.192   2.026   7.367 -0.5281  0.1898  0.6180
  169SAPE   H6R19093   7.250   1.979   7.447 -1.9125  0.2276  1.6608
  169SAPE   C2719094   7.120   2.145   7.413 -0.2192  0.5295  0.7873
  169SAPE   H7R19095   7.027   2.112   7.464  0.2837 -0.6302  0.9817
  169SAPE   H7S19096   7.098   2.215   7.329 -0.1508  0.2882  0.5699
  169SAPE   C2819097   7.204   2.218   7.516 -0.0350 -0.1052  0.3374
  169SAPE   H8R19098   7.281   2.284   7.472  0.4508 -0.3250  0.8521
  169SAPE   C2919099   7.197   2.216   7.647 -0.5490  0.6227 -0.2922
  169SAPE   H9R19100   7.277   2.266   7.703 -0.6725  0.9857 -0.4371
  169SAPE  C21019101   7.099   2.134   7.737  0.0852  0.3864 -0.3119
  169SAPE  H10R19102   7.161   2.066   7.800 -1.3352  0.2758  1.0023
  169SAPE  H10S19103   7.045   2.055   7.682 -0.5563 -0.1189  1.0065
  169SAPE  C21119104   7.013   2.220   7.820  0.1397 -0.0045 -0.2662
  169SAPE  H11R19105   6.943   2.282   7.762  0.1310  1.0807  0.8792
  169SAPE  C21219106   7.022   2.259   7.949 -0.7561 -0.4514 -0.8217
  169SAPE  H12R19107   6.955   2.343   7.973 -0.8942 -0.6495 -0.5166
  169SAPE  C21319108   7.125   2.215   8.050  0.1295  0.7825  0.4358
  169SAPE  H13R19109   7.166   2.112   8.036  0.4430  1.1321 -1.2875
  169SAPE  H13S19110   7.069   2.211   8.146 -0.3127 -1.3023  0.1175
  169SAPE  C21419111   7.227   2.319   8.070  0.0991 -0.5820 -0.6041
  169SAPE  H14R19112   7.227   2.394   7.990  0.0281 -1.1087 -1.0957
  169SAPE  C21519113   7.317   2.328   8.169  0.5153  0.9996 -1.3777
  169SAPE  H15R19114   7.382   2.416   8.177  0.4653  0.8542  0.8965
  169SAPE  C21619115   7.331   2.225   8.279 -0.5427  0.2569  0.1321
  169SAPE  H16R19116   7.300   2.125   8.241  1.3363  0.0317 -0.8565
  169SAPE  H16S19117   7.254   2.244   8.357 -1.4717  0.4704 -0.8270
  169SAPE  C21719118   7.469   2.209   8.340 -0.4844 -0.4755  0.4167
  169SAPE  H17R19119   7.542   2.186   8.259 -1.0854  0.4144 -0.3824
  169SAPE  H17S19120   7.468   2.125   8.412  1.0773  0.9197  2.1300
  169SAPE  C21819121   7.511   2.332   8.419  0.1557  0.5230 -0.3014
  169SAPE  H18R19122   7.435   2.351   8.498  0.4412  0.4738 -0.0176
  169SAPE  H18S19123   7.517   2.419   8.349  0.5009  1.8311  1.3172
  169SAPE  C21919124   7.646   2.314   8.495  0.5313  0.3707 -0.6485
  169SAPE  H19R19125   7.656   2.406   8.557  0.1346 -0.3737  0.5408
  169SAPE  H19S19126   7.728   2.317   8.420  2.0141  0.3706  0.9404
  169SAPE  C22019127   7.649   2.196   8.579 -0.7194  0.2193  0.4053
  169SAPE  H20R19128   7.648   2.106   8.513  1.6723  1.6849 -1.7389
  169SAPE  H20S19129   7.561   2.203   8.647 -2.6081 -1.4098 -1.7456
  169SAPE  H20T19130   7.742   2.199   8.639 -0.6987  0.5588  0.3558
  169SAPE   C3319131   7.467   1.544   6.977 -0.0442  1.1181  0.4150
  169SAPE   H3X19132   7.577   1.553   6.983 -0.1278  1.3679  1.9154
  169SAPE   H3Y19133   7.419   1.445   6.966 -0.2351  1.2562  0.0019
  169SAPE   C3419134   7.405   1.610   7.100  0.2517  0.4365 -0.7338
  169SAPE   H4X19135   7.299   1.577   7.100  0.3076  0.0603 -3.7406
  169SAPE   H4Y19136   7.407   1.721   7.108  0.9317  0.3204  0.7524
  169SAPE   C3519137   7.462   1.552   7.235  0.0367  0.1740  0.3601
  169SAPE   H5X19138   7.572   1.548   7.226  0.1591  0.4166  1.7309
  169SAPE   H5Y19139   7.427   1.447   7.238  0.5021 -0.0095 -0.4748
  169SAPE   C3619140   7.412   1.635   7.347  0.8728  0.0099  0.4293
  169SAPE   H6X19141   7.301   1.645   7.342  0.9483  0.7389  0.1326
  169SAPE   H6Y19142   7.455   1.737   7.349 -0.0536  0.4326 -0.7480
  169SAPE   C3719143   7.451   1.577   7.485  0.5335 -0.3228  0.0825
  169SAPE   H7X19144   7.529   1.500   7.468  1.5294  0.6959 -0.0256
  169SAPE   H7Y19145   7.357   1.539   7.530  1.0396 -1.3255  0.2987
  169SAPE   C3819146   7.510   1.694   7.576  0.2307 -0.5289 -0.1473
  169SAPE   H8X19147   7.419   1.757   7.585  0.9552  0.4384  0.5136
  169SAPE   H8Y19148   7.601   1.734   7.526 -0.2046 -0.5630 -0.9657
  169SAPE   C3919149   7.544   1.651   7.719 -0.5595 -0.8058 -0.4547
  169SAPE   H9X19150   7.634   1.587   7.711 -1.5156 -2.4430  1.4890
  169SAPE   H9Y19151   7.463   1.599   7.775 -0.2209 -1.2377 -0.3699
  169SAPE  C31019152   7.578   1.769   7.813  0.4199  0.9761  0.1478
  169SAPE  H10X19153   7.504   1.850   7.796  2.2480  2.8364  0.9485
  169SAPE  H10Y19154   7.681   1.804   7.793  1.2914 -1.3856  0.2642
  169SAPE  C31119155   7.552   1.726   7.957  0.2253  0.4520 -0.1557
  169SAPE  H11X19156   7.597   1.626   7.974 -1.8404 -0.1658  1.8926
  169SAPE  H11Y19157   7.442   1.728   7.974  0.4605  0.1113  1.4977
  169SAPE  C31219158   7.602   1.831   8.068  0.2988  0.1770 -0.1351
  169SAPE  H12X19159   7.592   1.937   8.037 -0.4245  0.4490  1.0030
  169SAPE  H12Y19160   7.707   1.811   8.101  0.2469  1.7817  1.0645
  169SAPE  C31319161   7.507   1.839   8.190  0.3277  0.3463 -0.1651
  169SAPE  H13X19162   7.401   1.840   8.157  1.4288  0.8699 -3.8314
  169SAPE  H13Y19163   7.530   1.932   8.246  0.2231 -0.6096  1.5019
  169SAPE  C31419164   7.531   1.723   8.283  0.0198  0.0946 -0.2416
  169SAPE  H14X19165   7.641   1.713   8.293  0.3279  1.1734 -2.3490
  169SAPE  H14Y19166   7.492   1.630   8.236  0.9756  0.3154 -1.4877
  169SAPE  C31519167   7.477   1.746   8.422  0.0507 -0.2549  0.0167
  169SAPE  H15X19168   7.367   1.755   8.420 -0.0142 -0.2532  2.6029
  169SAPE  H15Y19169   7.518   1.836   8.472 -3.1540  0.8053  0.8073
  169SAPE  C31619170   7.500   1.628   8.509  0.0810 -0.0107  1.1544
  169SAPE  H16X19171   7.601   1.630   8.557  1.4803  0.5515 -1.7387
  169SAPE  H16Y19172   7.491   1.536   8.448 -0.0911  0.2302  0.8184
  169SAPE  C31719173   7.422   1.616   8.642 -0.0262  0.5172  0.2540
  169SAPE  H17X19174   7.442   1.514   8.681 -0.8838  0.0352 -0.5443
  169SAPE  H17Y19175   7.314   1.611   8.618  0.0826 -2.0109  0.0843
  169SAPE  C31819176   7.465   1.723   8.744  0.3939  0.3263  0.7347
  169SAPE  H18X19177   7.429   1.822   8.706 -0.4561  0.3499  1.5873
  169SAPE  H18Y19178   7.574   1.726   8.767  0.8716 -1.4854 -1.1702
  169SAPE  H18Z19179   7.416   1.707   8.842  0.2310  1.0408  0.7757
  170SAPE     N19180   0.809   5.930   6.122 -0.4525 -0.3066 -0.0680
  170SAPE   HN119181   0.894   5.929   6.061 -0.3099  1.5432  0.0894
  170SAPE   HN219182   0.738   5.872   6.072 -0.9716  0.1925  0.0882
  170SAPE   HN319183   0.766   6.024   6.118  1.4085  0.5311 -0.9569
  170SAPE   C1219184   0.828   5.880   6.260 -0.2607  0.1294 -0.0902
  170SAPE  H12A19185   0.850   5.771   6.260  0.6495  0.3061  1.1137
  170SAPE  H12B19186   0.736   5.890   6.323  0.6024 -0.1129  1.2439
  170SAPE   C1119187   0.927   5.955   6.346  0.2137 -0.2927 -0.1008
  170SAPE  H11A19188   0.912   5.909   6.445 -1.3344 -0.0104 -0.1958
  170SAPE  H11B19189   0.900   6.062   6.361  0.2879 -0.1767 -0.7721
  170SAPE     P19190   1.153   5.815   6.337  0.4349 -0.4387  0.0408
  170SAPE   O1319191   1.151   5.717   6.229  0.6201 -0.6756 -0.6425
  170SAPE   O1419192   1.289   5.862   6.378 -0.5006 -0.3910 -0.1748
  170SAPE   O1219193   1.064   5.940   6.304  0.2254  0.1073 -0.2935
  170SAPE   O1119194   1.082   5.743   6.455 -0.0367 -0.2861  0.0743
  170SAPE    C119195   1.146   5.623   6.511 -0.1650  0.3780 -0.0080
  170SAPE    HA19196   1.122   5.543   6.438  1.1265 -0.0381  0.0179
  170SAPE    HB19197   1.257   5.625   6.514 -0.1234  0.7647 -1.4398
  170SAPE    C219198   1.078   5.606   6.645 -0.4176  0.4106  0.4056
  170SAPE    HS19199   0.967   5.616   6.640 -0.5881 -0.8144  1.4176
  170SAPE   O2119200   1.130   5.693   6.740 -0.1696 -0.1072 -0.1373
  170SAPE   C2119201   1.055   5.728   6.850  0.4127 -0.2543  0.3595
  170SAPE   O2219202   0.941   5.692   6.873  0.6637  0.1129  0.1685
  170SAPE   C2219203   1.138   5.814   6.940 -0.1278 -0.8329  0.2879
  170SAPE   H2R19204   1.111   5.786   7.044  0.0260  3.1590  1.4965
  170SAPE   H2S19205   1.247   5.802   6.923  0.0011  2.5011 -1.6233
  170SAPE    C319206   1.106   5.462   6.701 -0.2461 -0.1713  0.2568
  170SAPE    HX19207   1.216   5.452   6.703 -0.2080  0.3216  0.8729
  170SAPE    HY19208   1.071   5.397   6.618 -0.1010 -0.0917  0.1331
  170SAPE   O3119209   1.054   5.435   6.832  0.8323  0.2305  0.2837
  170SAPE   C3119210   0.931   5.390   6.838  0.0310  0.3760  0.4900
  170SAPE   O3219211   0.864   5.364   6.739 -0.0227 -0.2254 -0.2716
  170SAPE   C3219212   0.885   5.358   6.988  0.1583  0.1934 -0.5485
  170SAPE   H2X19213   0.891   5.249   7.008 -3.1975 -0.1762 -1.2660
  170SAPE   H2Y19214   0.779   5.390   6.978 -0.3517 -0.5545  2.1685
  170SAPE   C2319215   1.111   5.964   6.923 -0.7559  0.3808 -0.5900
  170SAPE   H3R19216   1.010   5.972   6.967 -1.2660 -0.1956 -1.6502
  170SAPE   H3S19217   1.114   6.004   6.819  3.2672  0.2265 -0.6392
  170SAPE   C2419218   1.227   6.032   7.010 -0.3393 -0.3871  0.5197
  170SAPE   H4R19219   1.318   5.990   6.962  1.0216  2.2127  0.7138
  170SAPE   H4S19220   1.235   5.972   7.103  0.9882 -1.0556 -0.0187
  170SAPE   C2519221   1.232   6.181   7.011 -0.1973 -0.9303 -0.7181
  170SAPE   H5R19222   1.244   6.214   6.906  0.3357 -1.3940 -0.8054
  170SAPE   C2619223   1.206   6.261   7.117  0.3736 -0.5354 -0.4783
  170SAPE   H6R19224   1.208   6.371   7.109 -1.2392 -0.3321  1.5691
  170SAPE   C2719225   1.185   6.216   7.261 -0.4615  0.6059 -0.8932
  170SAPE   H7R19226   1.194   6.105   7.265  3.1079  0.8793  0.0721
  170SAPE   H7S19227   1.083   6.248   7.292 -1.0695 -1.4684 -0.6662
  170SAPE   C2819228   1.283   6.278   7.354 -0.4485  0.1907  0.1718
  170SAPE   H8R19229   1.256   6.383   7.374  1.0881  0.4939  0.6924
  170SAPE   C2919230   1.387   6.224   7.414 -0.4610  0.7801  0.0808
  170SAPE   H9R19231   1.447   6.296   7.472  0.6334 -1.2987  1.5440
  170SAPE  C21019232   1.446   6.087   7.419  0.0503 -0.4952  0.4222
  170SAPE  H10R19233   1.474   6.061   7.315  1.0217  0.2092  0.5042
  170SAPE  H10S19234   1.364   6.016   7.443 -0.0350 -1.4653 -2.5610
  170SAPE  C21119235   1.571   6.056   7.499 -0.0193 -0.2488 -0.5428
  170SAPE  H11R19236   1.632   5.974   7.458  0.9690  0.3912 -0.3722
  170SAPE  C21219237   1.608   6.110   7.617 -0.2261  0.9012  0.5924
  170SAPE  H12R19238   1.696   6.073   7.671 -0.3393  0.3518  0.4106
  170SAPE  C21319239   1.550   6.211   7.712  1.1085  0.2566 -0.0101
  170SAPE  H13R19240   1.573   6.309   7.666 -0.1070  0.7326  0.3816
  170SAPE  H13S19241   1.612   6.206   7.804  3.6744 -1.6437 -1.7579
  170SAPE  C21419242   1.408   6.188   7.759  0.5749 -0.0621 -0.9907
  170SAPE  H14R19243   1.330   6.164   7.686  0.3311 -0.7029 -0.5280
  170SAPE  C21519244   1.380   6.173   7.895 -0.1457  1.0600 -0.1164
  170SAPE  H15R19245   1.274   6.166   7.923  0.0808 -1.9431  0.1857
  170SAPE  C21619246   1.475   6.189   8.010  0.5297  0.8728 -0.0763
  170SAPE  H16R19247   1.415   6.247   8.083  2.0261  0.9080  1.1343
  170SAPE  H16S19248   1.560   6.256   7.989 -0.3473  1.9054 -0.3745
  170SAPE  C21719249   1.510   6.063   8.067 -0.3623  0.2379 -0.2784
  170SAPE  H17R19250   1.558   5.989   8.000  0.9698  0.6605  0.1792
  170SAPE  H17S19251   1.420   6.010   8.103 -1.6336  2.9700  0.7020
  170SAPE  C21819252   1.609   6.088   8.179 -0.5301 -0.7508  0.0815
  170SAPE  H18R19253   1.543   6.134   8.255 -0.8002  3.0575 -2.3437
  170SAPE  H18S19254   1.688   6.157   8.142 -1.5647 -1.8301 -4.4753
  170SAPE  C21919255   1.684   5.961   8.229 -0.1479 -0.2847 -0.4931
  170SAPE  H19R19256   1.772   5.990   8.290  0.0082 -0.0664 -0.8220
  170SAPE  H19S19257   1.736   5.908   8.147  1.6172 -0.3256  0.6254
  170SAPE  C22019258   1.606   5.852   8.305 -1.3556 -0.4756 -0.3006
  170SAPE  H20R19259   1.663   5.758   8.288 -0.4699 -0.3938  2.0505
  170SAPE  H20S19260   1.508   5.838   8.254 -0.7283 -0.5363 -1.4918
  170SAPE  H20T19261   1.592   5.868   8.414 -1.3949 -2.1910 -0.0437
  170SAPE   C3319262   0.962   5.426   7.099  0.3213 -0.1440  0.0924
  170SAPE   H3X19263   0.957   5.536   7.085  0.6528  0.0519  1.4631
  170SAPE   H3Y19264   1.063   5.380   7.101  1.1369  1.7184  2.3845
  170SAPE   C3419265   0.897   5.393   7.231 -0.5723 -0.6929 -0.2140
  170SAPE   H4X19266   0.889   5.283   7.243  0.5914 -0.9520 -1.6298
  170SAPE   H4Y19267   0.801   5.448   7.239 -0.1189  0.0832  0.0558
  170SAPE   C3519268   0.970   5.421   7.368 -0.2199 -0.0588  0.1996
  170SAPE   H5X19269   0.963   5.527   7.401  1.0284 -0.0087  0.3025
  170SAPE   H5Y19270   1.075   5.387   7.363 -0.6384 -1.2958 -0.2247
  170SAPE   C3619271   0.880   5.360   7.482  0.1215  0.1246  0.6602
  170SAPE   H6X19272   0.875   5.249   7.474 -1.6053  0.2659 -0.5388
  170SAPE   H6Y19273   0.777   5.396   7.460  0.2988 -0.3382 -0.9593
  170SAPE   C3719274   0.912   5.401   7.628 -0.3240  0.1349 -0.1544
  170SAPE   H7X19275   0.907   5.512   7.631 -2.3183  0.0283  1.3839
  170SAPE   H7Y19276   1.010   5.355   7.654  0.3520  1.5800 -0.0935
  170SAPE   C3819277   0.804   5.360   7.730  0.1980 -0.0289 -0.2153
  170SAPE   H8X19278   0.809   5.252   7.756  0.6111  0.3179  1.2051
  170SAPE   H8Y19279   0.705   5.379   7.684 -0.5072 -0.3204  1.1597
  170SAPE   C3919280   0.821   5.439   7.857 -0.1090 -1.0660  0.2876
  170SAPE   H9X19281   0.731   5.425   7.920 -0.0978  1.0936  0.8407
  170SAPE   H9Y19282   0.842   5.544   7.827  2.1757 -1.8084 -0.8618
  170SAPE  C31019283   0.938   5.399   7.951  0.2561 -0.5130 -0.0189
  170SAPE  H10X19284   1.028   5.375   7.891  1.0014  1.4269  0.2913
  170SAPE  H10Y19285   0.901   5.309   8.003  1.7673 -0.9382  0.3405
  170SAPE  C31119286   0.985   5.507   8.049 -0.3537  0.0905 -0.1378
  170SAPE  H11X19287   1.035   5.590   7.993 -0.2359  0.2898  0.2608
  170SAPE  H11Y19288   1.076   5.469   8.101 -0.7825 -0.2547  0.3620
  170SAPE  C31219289   0.881   5.561   8.156 -0.9380  0.1293 -0.2951
  170SAPE  H12X19290   0.847   5.489   8.233 -2.6512  2.5442  1.2752
  170SAPE  H12Y19291   0.785   5.579   8.103 -0.5190 -5.1779 -3.2727
  170SAPE  C31319292   0.917   5.684   8.228  0.5563  0.4354 -0.0928
  170SAPE  H13X19293   0.836   5.717   8.296 -0.1020 -0.8903 -0.2180
  170SAPE  H13Y19294   0.931   5.763   8.152  1.9096  1.0904  0.8108
  170SAPE  C31419295   1.045   5.668   8.315  0.4127  0.2166 -0.2961
  170SAPE  H14X19296   1.131   5.650   8.246  0.3047  0.2998 -0.4522
  170SAPE  H14Y19297   1.036   5.582   8.384  3.2680  1.5396  1.8416
  170SAPE  C31519298   1.082   5.792   8.401  0.3840  0.2205 -0.3100
  170SAPE  H15X19299   0.998   5.807   8.473  0.2587 -0.4153 -0.3153
  170SAPE  H15Y19300   1.085   5.877   8.330 -1.4199  1.0546  0.5807
  170SAPE  C31619301   1.218   5.796   8.469  0.8234  0.0410  0.5174
  170SAPE  H16X19302   1.237   5.892   8.521  2.9013 -0.9005  1.5935
  170SAPE  H16Y19303   1.298   5.792   8.392  0.2355  0.1154 -0.0978
  170SAPE  C31719304   1.238   5.699   8.589 -0.1303  0.6843 -0.4421
  170SAPE  H17X19305   1.217   5.596   8.554  0.2127  0.3977  0.2060
  170SAPE  H17Y19306   1.149   5.711   8.655  0.1993 -1.5391  0.4344
  170SAPE  C31819307   1.369   5.707   8.665 -0.2449  0.6927 -0.3170
  170SAPE  H18X19308   1.370   5.631   8.746 -0.0857  0.8633 -0.1612
  170SAPE  H18Y19309   1.388   5.808   8.705 -0.6854  0.1000  1.4032
  170SAPE  H18Z19310   1.453   5.673   8.600 -0.4159  3.0560 -1.8459
  171SAPE     N19311   3.017   0.164   6.060 -0.2309  0.1812 -0.3664
  171SAPE   HN119312   3.025   0.232   5.982  1.8988 -0.0057 -0.3601
  171SAPE   HN219313   2.986   0.074   6.018  1.3949  0.1155 -1.5093
  171SAPE   HN319314   2.947   0.208   6.122 -1.5354 -0.0614 -1.6402
  171SAPE   C1219315   3.146   0.134   6.135 -0.2877  0.4083  0.2252
  171SAPE  H12A19316   3.206   0.227   6.148 -0.5753  0.9402 -2.1131
  171SAPE  H12B19317   3.211   0.063   6.080 -2.3457 -2.4975  1.4379
  171SAPE   C1119318   3.108   0.087   6.271 -0.2485 -0.4107  0.2326
  171SAPE  H11A19319   3.056   0.164   6.331 -0.6718 -1.1703  0.8525
  171SAPE  H11B19320   3.209   0.074   6.315  0.0421 -0.0926 -0.3334
  171SAPE     P19321   3.096  -0.175   6.234  0.1897 -0.1370 -0.3298
  171SAPE   O1319322   3.013  -0.244   6.136 -0.1142 -0.1716  0.0899
  171SAPE   O1419323   3.239  -0.157   6.209 -0.4009  0.0335  0.5471
  171SAPE   O1219324   3.031  -0.032   6.265  0.4563  0.4686  0.1463
  171SAPE   O1119325   3.072  -0.249   6.375  0.6336  0.0659  0.8416
  171SAPE    C119326   3.119  -0.173   6.492  0.1535 -0.8854 -0.3643
  171SAPE    HA19327   3.229  -0.187   6.491  0.3550  0.5719  0.5173
  171SAPE    HB19328   3.097  -0.064   6.496 -1.7126 -1.2674  0.3347
  171SAPE    C219329   3.065  -0.235   6.623 -0.2182 -0.6295 -0.5803
  171SAPE    HS19330   2.957  -0.259   6.621 -0.3312 -0.4385  1.8807
  171SAPE   O2119331   3.092  -0.126   6.718  0.1821  0.3625  0.0043
  171SAPE   C2119332   3.000  -0.127   6.818 -0.4270 -0.2873 -0.6393
  171SAPE   O2219333   2.926  -0.218   6.847 -0.0671 -0.4851  0.5453
  171SAPE   C2219334   3.026   0.002   6.895  0.2626  0.4555 -0.1563
  171SAPE   H2R19335   3.136   0.011   6.878 -0.1865  2.6062 -2.0895
  171SAPE   H2S19336   2.970   0.083   6.845  0.4634  0.0601 -1.0401
  171SAPE    C319337   3.128  -0.377   6.661  0.1757  0.3299  0.2728
  171SAPE    HX19338   3.235  -0.376   6.632 -0.5026 -0.0797 -2.3818
  171SAPE    HY19339   3.080  -0.448   6.591  0.6392 -1.2145  1.4924
  171SAPE   O3119340   3.107  -0.409   6.795  0.8274 -0.0640 -0.3842
  171SAPE   C3119341   3.036  -0.518   6.829 -0.5283 -0.6193 -0.1267
  171SAPE   O3219342   3.005  -0.606   6.752 -0.3332 -0.7020  0.2295
  171SAPE   C3219343   2.991  -0.508   6.967  0.5110  0.1212 -0.2952
  171SAPE   H2X19344   2.930  -0.415   6.978  1.3437  0.6895 -0.3787
  171SAPE   H2Y19345   3.080  -0.517   7.032  1.4780  1.3862 -1.4034
  171SAPE   C2319346   2.992  -0.025   7.042 -0.1271 -0.1252  0.5198
  171SAPE   H3R19347   3.054  -0.108   7.083  1.8512 -0.4951 -2.9990
  171SAPE   H3S19348   2.886  -0.052   7.064  0.4262 -1.2588  1.8742
  171SAPE   C2419349   3.018   0.098   7.134  0.3131  0.5116 -0.5201
  171SAPE   H4R19350   2.990   0.065   7.237  1.3349 -0.9797 -0.7087
  171SAPE   H4S19351   2.945   0.179   7.112 -0.9728 -0.0643  1.4703
  171SAPE   C2519352   3.153   0.143   7.121 -0.0327 -0.3846 -0.1026
  171SAPE   H5R19353   3.186   0.148   7.016 -1.0712 -1.7091 -0.4893
  171SAPE   C2619354   3.230   0.180   7.227 -0.1233  0.1580 -0.6949
  171SAPE   H6R19355   3.336   0.204   7.208  0.4774 -0.6774  1.3997
  171SAPE   C2719356   3.186   0.175   7.370  0.2542 -0.2028  0.4041
  171SAPE   H7R19357   3.124   0.085   7.390  2.6107 -1.5189  2.0275
  171SAPE   H7S19358   3.105   0.250   7.383 -0.4420 -0.6813 -1.0378
  171SAPE   C2819359   3.297   0.187   7.466 -0.4719  0.1264 -0.0400
  171SAPE   H8R19360   3.400   0.213   7.439 -1.1050  2.5834 -0.1795
  171SAPE   C2919361   3.280   0.173   7.602 -0.1671  0.1203 -1.0308
  171SAPE   H9R19362   3.371   0.185   7.662  0.5456 -1.7779 -1.6854
  171SAPE  C21019363   3.153   0.154   7.676 -0.3398  0.2215  0.4062
  171SAPE  H10R19364   3.189   0.135   7.780  1.2376  1.8385  0.1718
  171SAPE  H10S19365   3.098   0.068   7.634 -0.8527  0.7503 -0.0042
  171SAPE  C21119366   3.056   0.268   7.690 -0.0332 -0.5259  0.4739
  171SAPE  H11R19367   3.091   0.366   7.657 -1.0132 -0.2447  0.2523
  171SAPE  C21219368   2.941   0.261   7.759  0.6687 -0.8058 -0.1028
  171SAPE  H12R19369   2.882   0.350   7.786  1.8617  0.3490 -1.2613
  171SAPE  C21319370   2.889   0.131   7.812 -0.5224 -0.9162 -0.6527
  171SAPE  H13R19371   2.961   0.091   7.886 -0.3080 -0.9103 -0.8608
  171SAPE  H13S19372   2.879   0.053   7.733 -0.1602 -1.0194 -0.5967
  171SAPE  C21419373   2.746   0.152   7.865  0.6149  0.4098 -0.4903
  171SAPE  H14R19374   2.669   0.181   7.792 -2.1308 -1.5540  1.5669
  171SAPE  C21519375   2.704   0.123   7.994  0.4415 -0.7319  0.3208
  171SAPE  H15R19376   2.598   0.135   8.024  0.3792 -1.6591  0.4844
  171SAPE  C21619377   2.782   0.064   8.107 -0.1681 -0.8581 -0.1939
  171SAPE  H16R19378   2.890   0.083   8.086 -0.2915 -2.1147 -2.0381
  171SAPE  H16S19379   2.760  -0.044   8.114  0.5928 -1.0336 -0.5204
  171SAPE  C21719380   2.746   0.123   8.246 -0.9180 -0.1096  0.8148
  171SAPE  H17R19381   2.788   0.223   8.268 -0.6467 -0.1580  0.5245
  171SAPE  H17S19382   2.790   0.057   8.324 -2.2316 -1.6321  0.2995
  171SAPE  C21819383   2.591   0.111   8.276 -0.3537  0.2853  0.3060
  171SAPE  H18R19384   2.564   0.004   8.291  1.2951 -0.1949 -0.0707
  171SAPE  H18S19385   2.521   0.141   8.196 -1.4549  0.4260  1.3145
  171SAPE  C21919386   2.557   0.177   8.406 -0.4060  0.3398 -0.6835
  171SAPE  H19R19387   2.591   0.123   8.497 -1.6788 -0.4998 -0.6878
  171SAPE  H19S19388   2.448   0.162   8.424 -0.2242 -0.4529 -0.2327
  171SAPE  C22019389   2.577   0.324   8.421 -0.6560 -0.7203 -0.2975
  171SAPE  H20R19390   2.554   0.380   8.328 -3.2091 -0.3945  0.4977
  171SAPE  H20S19391   2.682   0.350   8.447 -1.5073  1.4863  1.0085
  171SAPE  H20T19392   2.517   0.357   8.508  0.0061  1.6469 -0.7195
  171SAPE   C3319393   2.890  -0.618   7.012  0.1594  0.5102 -0.7183
  171SAPE   H3X19394   2.905  -0.715   6.960  0.4646 -0.2727  0.7780
  171SAPE   H3Y19395   2.786  -0.580   7.005 -0.5576  0.3633  5.4851
  171SAPE   C3419396   2.908  -0.646   7.158 -0.2076  0.4258  0.4693
  171SAPE   H4X19397   3.014  -0.671   7.180 -0.1815  1.8354  1.9827
  171SAPE   H4Y19398   2.842  -0.729   7.191 -1.0438  1.2912  0.9776
  171SAPE   C3519399   2.855  -0.532   7.250 -1.0821  0.8370  0.1160
  171SAPE   H5X19400   2.745  -0.535   7.241 -0.8879  0.1370 -2.3714
  171SAPE   H5Y19401   2.894  -0.437   7.207 -1.5410  1.7050  1.5593
  171SAPE   C3619402   2.915  -0.556   7.387 -0.4720 -0.6347 -0.7189
  171SAPE   H6X19403   3.026  -0.545   7.394 -0.8088  0.9015  3.4229
  171SAPE   H6Y19404   2.891  -0.662   7.410  0.2043 -0.6827 -0.2027
  171SAPE   C3719405   2.853  -0.462   7.485  0.4457  0.2915 -0.4636
  171SAPE   H7X19406   2.746  -0.490   7.492  0.9082 -1.4693 -0.2887
  171SAPE   H7Y19407   2.871  -0.355   7.463  1.7215  0.2887  0.5110
  171SAPE   C3819408   2.916  -0.482   7.619  0.8547 -0.7522  0.2842
  171SAPE   H8X19409   3.027  -0.486   7.617  0.8704 -0.1504 -0.2158
  171SAPE   H8Y19410   2.891  -0.586   7.649 -1.6847 -0.6313 -1.2416
  171SAPE   C3919411   2.868  -0.380   7.726 -0.1995 -0.5518  0.4880
  171SAPE   H9X19412   2.757  -0.378   7.726 -0.2373  1.1156  3.6673
  171SAPE   H9Y19413   2.902  -0.278   7.699 -0.1797 -0.5473  0.5311
  171SAPE  C31019414   2.917  -0.402   7.869 -0.0793  1.2512  0.8714
  171SAPE  H10X19415   3.027  -0.406   7.853 -0.2147 -0.3142  0.2925
  171SAPE  H10Y19416   2.879  -0.501   7.902  0.3944  1.0055  0.6859
  171SAPE  C31119417   2.889  -0.302   7.978 -0.5353  0.5573 -0.6014
  171SAPE  H11X19418   2.782  -0.311   8.004 -0.7797 -2.6115 -2.4309
  171SAPE  H11Y19419   2.921  -0.203   7.939  0.7654 -0.3481 -1.9009
  171SAPE  C31219420   2.957  -0.348   8.111 -0.3805 -0.6281  0.7295
  171SAPE  H12X19421   3.063  -0.315   8.105 -0.9068  1.0069  0.2313
  171SAPE  H12Y19422   2.966  -0.459   8.119 -2.0945 -0.8095  0.3917
  171SAPE  C31319423   2.882  -0.294   8.229  0.3349  0.4935  0.3484
  171SAPE  H13X19424   2.785  -0.347   8.237  0.1335  0.5281 -1.8064
  171SAPE  H13Y19425   2.856  -0.188   8.214 -0.8914  0.0286 -0.9103
  171SAPE  C31419426   2.949  -0.325   8.369 -0.5742 -0.5225  0.1802
  171SAPE  H14X19427   3.002  -0.422   8.361 -1.2307 -0.8847  0.1819
  171SAPE  H14Y19428   2.868  -0.351   8.441  0.0663 -0.6059  0.8772
  171SAPE  C31519429   3.019  -0.199   8.425  0.8219  0.1578  0.1193
  171SAPE  H15X19430   3.061  -0.228   8.523  0.4925 -0.5582  0.0486
  171SAPE  H15Y19431   2.948  -0.114   8.436 -2.0054 -2.0442 -0.6637
  171SAPE  C31619432   3.138  -0.154   8.332 -0.0203 -0.1416  0.5414
  171SAPE  H16X19433   3.098  -0.120   8.233 -1.1571  0.5800  1.2328
  171SAPE  H16Y19434   3.214  -0.234   8.325 -0.5457 -0.7995  2.1082
  171SAPE  C31719435   3.220  -0.037   8.387 -0.2524 -0.6823  0.2010
  171SAPE  H17X19436   3.261  -0.069   8.486  0.8475 -1.5344 -0.5132
  171SAPE  H17Y19437   3.151   0.049   8.401 -0.2691 -0.7828  0.7490
  171SAPE  C31819438   3.337  -0.000   8.298 -0.2764  0.3253  0.3990
  171SAPE  H18X19439   3.378  -0.088   8.243  0.9050  1.8127 -1.1341
  171SAPE  H18Y19440   3.427   0.055   8.333  1.0954 -1.8304  0.3890
  171SAPE  H18Z19441   3.293   0.072   8.226 -1.9278 -1.3578 -0.3300
  172SAPE     N19442   1.985   4.776   6.385  0.3872 -0.6913  0.4164
  172SAPE   HN119443   1.892   4.788   6.341  0.6004 -1.9552 -0.4254
  172SAPE   HN219444   1.969   4.716   6.469 -0.0119 -0.3253  0.5986
  172SAPE   HN319445   2.009   4.872   6.416  0.5598  0.4290 -3.0551
  172SAPE   C1219446   2.088   4.715   6.292 -0.2526  0.1342  0.3897
  172SAPE  H12A19447   2.097   4.781   6.202  0.1166  1.5239  1.4334
  172SAPE  H12B19448   2.043   4.625   6.245 -0.1977 -0.0218  0.6407
  172SAPE   C1119449   2.216   4.691   6.360  0.5483 -0.4022 -0.1768
  172SAPE  H11A19450   2.199   4.621   6.444 -0.3211 -0.3847 -0.3329
  172SAPE  H11B19451   2.245   4.784   6.414 -1.0791 -1.2138  2.1463
  172SAPE     P19452   2.428   4.729   6.191  0.2586 -0.1448 -0.1595
  172SAPE   O1319453   2.537   4.632   6.164  0.1719 -0.0558  0.3348
  172SAPE   O1419454   2.370   4.806   6.083 -0.0626 -0.1587  0.8078
  172SAPE   O1219455   2.312   4.646   6.262 -0.0283  0.0588  0.1941
  172SAPE   O1119456   2.470   4.827   6.301 -0.4285 -0.0861  0.4033
  172SAPE    C119457   2.505   4.965   6.302  0.0932 -0.2752 -0.1195
  172SAPE    HA19458   2.606   4.989   6.341 -0.0327  0.1704 -0.0650
  172SAPE    HB19459   2.518   5.011   6.202 -2.3130 -2.5721 -1.5751
  172SAPE    C219460   2.408   5.056   6.391 -0.3727 -0.4535  0.4989
  172SAPE    HS19461   2.445   5.160   6.396  1.6478 -1.1252 -0.1418
  172SAPE   O2119462   2.393   5.009   6.516 -0.0059  0.0929  0.2509
  172SAPE   C2119463   2.505   5.025   6.591  0.2994 -0.8146  0.3600
  172SAPE   O2219464   2.601   5.093   6.551  0.2501  0.2709 -0.2358
  172SAPE   C2219465   2.491   4.959   6.729 -1.1055  0.6287  0.0476
  172SAPE   H2R19466   2.404   4.994   6.788 -0.1918 -2.6839  3.6229
  172SAPE   H2S19467   2.476   4.849   6.723 -1.2493  0.7971 -3.3934
  172SAPE    C319468   2.265   5.067   6.320  0.8829 -0.4589  0.3011
  172SAPE    HX19469   2.224   4.964   6.327 -1.2064  0.3677  0.7989
  172SAPE    HY19470   2.284   5.086   6.213 -1.2970 -1.0150 -0.2128
  172SAPE   O3119471   2.181   5.173   6.380 -0.6428  0.1733 -0.1061
  172SAPE   C3119472   2.085   5.134   6.456 -0.4030 -0.3344  0.9339
  172SAPE   O3219473   2.038   5.021   6.455 -0.5204 -0.2907  0.4925
  172SAPE   C3219474   2.026   5.256   6.527  0.4175  0.0101 -0.4765
  172SAPE   H2X19475   1.991   5.328   6.450 -1.3442  0.3815  0.6569
  172SAPE   H2Y19476   2.108   5.311   6.578 -0.6846  0.2056  1.1037
  172SAPE   C2319477   2.619   5.007   6.812  0.3237  0.3786  0.0291
  172SAPE   H3R19478   2.614   5.117   6.826  0.4999  0.5262 -1.0335
  172SAPE   H3S19479   2.711   4.977   6.756  1.9138  1.4132  2.0187
  172SAPE   C2419480   2.614   4.924   6.943  0.3390 -0.5806  0.8839
  172SAPE   H4R19481   2.721   4.916   6.975  0.8030 -3.0670 -1.0826
  172SAPE   H4S19482   2.580   4.819   6.933  0.3174 -0.5729  0.8841
  172SAPE   C2519483   2.536   4.989   7.053 -1.1991 -0.4389 -0.0733
  172SAPE   H5R19484   2.446   5.041   7.019 -0.0680  1.0066 -0.8845
  172SAPE   C2619485   2.563   4.993   7.187  0.5983  0.1211 -0.2666
  172SAPE   H6R19486   2.505   5.052   7.259  1.8827 -1.7588  2.3648
  172SAPE   C2719487   2.686   4.938   7.248  0.1621  0.3020  0.3106
  172SAPE   H7R19488   2.708   4.988   7.345  0.5623  0.0480  0.3516
  172SAPE   H7S19489   2.772   4.938   7.178 -0.1413  1.4687 -0.0723
  172SAPE   C2819490   2.675   4.790   7.279 -0.6131 -0.9864  0.3710
  172SAPE   H8R19491   2.714   4.718   7.205  2.6860 -0.7715  1.7777
  172SAPE   C2919492   2.642   4.734   7.396  0.0753 -0.2259  0.0428
  172SAPE   H9R19493   2.650   4.625   7.409 -1.8088 -0.2042  1.5512
  172SAPE  C21019494   2.592   4.795   7.522 -0.5281  0.3683 -0.5324
  172SAPE  H10R19495   2.503   4.745   7.565 -0.2503  2.5236  2.7229
  172SAPE  H10S19496   2.548   4.893   7.497 -1.7615 -0.1009 -0.2393
  172SAPE  C21119497   2.689   4.824   7.638  0.5520  0.3134 -0.1789
  172SAPE  H11R19498   2.792   4.845   7.605  0.9846 -1.7994 -0.2357
  172SAPE  C21219499   2.667   4.824   7.775 -0.7772 -0.0215  0.6243
  172SAPE  H12R19500   2.752   4.849   7.839  0.7976  1.2447 -1.9052
  172SAPE  C21319501   2.540   4.797   7.846  0.3620  0.5113  0.2291
  172SAPE  H13R19502   2.544   4.703   7.906  0.4994  0.3769  0.0068
  172SAPE  H13S19503   2.456   4.775   7.776  0.1841 -2.0447  1.2030
  172SAPE  C21419504   2.508   4.914   7.933 -0.1586 -0.3545  0.1775
  172SAPE  H14R19505   2.474   4.996   7.868 -0.8254 -1.0482 -0.3622
  172SAPE  C21519506   2.530   4.929   8.066  0.1165 -0.2383  0.5736
  172SAPE  H15R19507   2.522   5.028   8.112  2.1758  0.4227 -0.4386
  172SAPE  C21619508   2.585   4.818   8.151  0.3813 -0.3587  0.1826
  172SAPE  H16R19509   2.696   4.820   8.151  0.3780 -0.0088  1.3345
  172SAPE  H16S19510   2.542   4.723   8.114 -0.7748 -0.0119  0.6185
  172SAPE  C21719511   2.543   4.833   8.303  0.0613  0.0173 -0.1299
  172SAPE  H17R19512   2.436   4.861   8.309 -0.0783 -0.1159 -1.6588
  172SAPE  H17S19513   2.602   4.919   8.343  1.1886 -1.2693  1.0263
  172SAPE  C21819514   2.566   4.704   8.377  0.4399 -0.2372 -0.0747
  172SAPE  H18R19515   2.673   4.675   8.367  0.7620 -0.0118  2.3942
  172SAPE  H18S19516   2.502   4.624   8.334  0.6627  0.4020 -1.6344
  172SAPE  C21919517   2.524   4.707   8.521 -0.1157 -0.0819 -0.5619
  172SAPE  H19R19518   2.419   4.743   8.516 -0.5042 -0.4712  3.1173
  172SAPE  H19S19519   2.582   4.788   8.571  0.9996 -1.4098  0.3093
  172SAPE  C22019520   2.533   4.581   8.602  0.7926  0.4606  0.1884
  172SAPE  H20R19521   2.446   4.515   8.577 -0.3982  2.0041  0.1516
  172SAPE  H20S19522   2.527   4.607   8.709  0.9100  0.6013  0.1602
  172SAPE  H20T19523   2.629   4.528   8.585  0.6454 -0.7197  2.8372
  172SAPE   C3319524   1.903   5.248   6.621  0.5468 -0.2532 -0.6868
  172SAPE   H3X19525   1.852   5.150   6.609 -0.0935  0.3147 -3.0505
  172SAPE   H3Y19526   1.831   5.332   6.608  0.5866 -0.4089 -1.9463
  172SAPE   C3419527   1.942   5.259   6.767  0.6397  0.5573  0.3232
  172SAPE   H4X19528   1.992   5.356   6.784  2.1276 -0.5854  2.7025
  172SAPE   H4Y19529   2.019   5.181   6.782  1.5532  1.5406  0.8124
  172SAPE   C3519530   1.822   5.244   6.864 -0.0114 -0.6261  0.5373
  172SAPE   H5X19531   1.759   5.154   6.847 -1.5066  0.7718 -1.5852
  172SAPE   H5Y19532   1.749   5.327   6.853  0.2022 -0.4553  0.4059
  172SAPE   C3619533   1.867   5.248   7.012 -0.3795 -1.3971  0.0403
  172SAPE   H6X19534   1.887   5.355   7.034 -3.0053 -0.7909 -0.3092
  172SAPE   H6Y19535   1.965   5.196   7.016  0.6148  0.2782 -1.8266
  172SAPE   C3719536   1.768   5.189   7.113  0.6462 -0.2683  0.6424
  172SAPE   H7X19537   1.744   5.085   7.082 -1.1120 -0.0589  1.2430
  172SAPE   H7Y19538   1.671   5.243   7.107 -0.9937 -3.0007  1.8156
  172SAPE   C3819539   1.824   5.179   7.256 -0.0331 -0.6783 -0.3589
  172SAPE   H8X19540   1.903   5.101   7.255  0.6854  0.0202  1.2970
  172SAPE   H8Y19541   1.745   5.150   7.328 -0.7650  1.4855 -0.2678
  172SAPE   C3919542   1.882   5.315   7.305  0.4153  0.0101  0.5119
  172SAPE   H9X19543   1.793   5.381   7.314  0.4939  0.0980  0.6354
  172SAPE   H9Y19544   1.952   5.361   7.232 -0.7669 -0.9560 -1.2798
  172SAPE  C31019545   1.946   5.314   7.444  0.1604  0.6751  0.0357
  172SAPE  H10X19546   2.003   5.408   7.458  2.8197 -1.2264  2.5866
  172SAPE  H10Y19547   2.030   5.242   7.452 -0.5429 -0.2891 -1.1574
  172SAPE  C31119548   1.849   5.300   7.555 -0.0944  0.5565 -0.0736
  172SAPE  H11X19549   1.816   5.194   7.544  1.3324  0.3580 -2.7028
  172SAPE  H11Y19550   1.756   5.361   7.545  0.2872  1.4408  1.6232
  172SAPE  C31219551   1.910   5.316   7.696 -0.2885  0.9089  0.8025
  172SAPE  H12X19552   2.011   5.269   7.695 -0.4828  0.4968 -1.5484
  172SAPE  H12Y19553   1.859   5.264   7.780  1.8768 -2.4234  0.1780
  172SAPE  C31319554   1.938   5.473   7.725 -0.4484 -0.5939 -0.1491
  172SAPE  H13X19555   1.837   5.519   7.724 -0.3799 -0.4116  0.7407
  172SAPE  H13Y19556   2.001   5.510   7.642  1.7571  1.0902  2.1789
  172SAPE  C31419557   1.994   5.503   7.861  0.2407  0.5339  0.1028
  172SAPE  H14X19558   2.004   5.613   7.872  0.5064  0.7390 -2.1312
  172SAPE  H14Y19559   2.096   5.459   7.867 -1.2462 -3.4627 -2.0816
  172SAPE  C31519560   1.937   5.444   7.991  0.0425  0.3326 -0.3643
  172SAPE  H15X19561   1.949   5.334   7.987  0.5827  0.2866  1.8516
  172SAPE  H15Y19562   1.829   5.462   8.012 -0.2238 -0.9493 -0.6015
  172SAPE  C31619563   2.020   5.488   8.117 -0.1589 -1.0987 -0.0853
  172SAPE  H16X19564   2.128   5.477   8.095 -0.2881  0.9242 -1.9210
  172SAPE  H16Y19565   1.998   5.423   8.204  1.3925 -0.2230  0.9830
  172SAPE  C31719566   2.003   5.632   8.153 -0.0340  0.2834  0.4128
  172SAPE  H17X19567   1.896   5.660   8.164  0.4149  1.0981  3.0043
  172SAPE  H17Y19568   2.032   5.692   8.064  0.2857 -0.1703  0.2056
  172SAPE  C31819569   2.090   5.693   8.270  0.5051 -0.1825  0.0652
  172SAPE  H18X19570   2.198   5.680   8.250  0.4580  2.0621 -1.8978
  172SAPE  H18Y19571   2.053   5.636   8.358  0.6627 -1.2519 -0.5548
  172SAPE  H18Z19572   2.066   5.802   8.271  0.6035 -0.1565 -0.6223
  173SOPE     N19573   2.660   3.071  11.095  0.0630  0.0598  0.3830
  173SOPE   HN119574   2.603   2.988  11.068  0.9262  0.2925 -2.2681
  173SOPE   HN219575   2.597   3.154  11.105 -2.6828 -1.7950 -1.0864
  173SOPE   HN319576   2.713   3.076  11.006 -1.9970 -1.1872 -0.9530
  173SOPE   C1219577   2.742   3.050  11.215 -0.2113  0.2878  0.3358
  173SOPE  H12A19578   2.671   3.026  11.297 -2.5568 -1.6732 -2.1551
  173SOPE  H12B19579   2.803   3.137  11.244  0.3472 -0.8234  2.6316
  173SOPE   C1119580   2.841   2.931  11.191 -0.2805 -0.3093 -0.2777
  173SOPE  H11A19581   2.797   2.829  11.197 -1.8709  0.4066  0.8711
  173SOPE  H11B19582   2.914   2.939  11.275  0.0484 -2.5440 -0.3108
  173SOPE     P19583   2.980   2.838  10.995  0.2336 -0.1705  0.2983
  173SOPE   O1319584   2.891   2.721  11.007  0.4320  0.0422  0.0001
  173SOPE   O1419585   3.120   2.826  11.045 -0.3487 -0.3221 -0.0141
  173SOPE   O1219586   2.913   2.957  11.071 -0.0272 -0.5952 -0.0486
  173SOPE   O1119587   2.973   2.883  10.843 -0.9140  0.5113 -0.9551
  173SOPE    C119588   3.059   2.981  10.783 -0.9816  0.2496  0.1988
  173SOPE    HA19589   3.133   3.016  10.858 -1.2168 -0.3248  0.7078
  173SOPE    HB19590   3.003   3.069  10.745 -0.2411 -0.0603 -1.6307
  173SOPE    C219591   3.134   2.931  10.659  0.1441 -0.1501 -0.3981
  173SOPE    HS19592   3.212   3.005  10.629  2.2071 -1.8861  0.5274
  173SOPE   O2119593   3.046   2.894  10.548 -0.4671  0.1271  0.8001
  173SOPE   C2119594   2.969   2.983  10.491 -0.5140 -0.7658  0.3684
  173SOPE   O2219595   2.948   3.099  10.532 -0.3407  0.0517 -0.5892
  173SOPE   C2219596   2.906   2.933  10.362 -0.4291  0.2340 -0.0930
  173SOPE   H2R19597   2.802   2.902  10.388  0.1497  0.2406  2.4050
  173SOPE   H2S19598   2.980   2.861  10.323 -0.8173 -0.1856 -0.0511
  173SOPE    C319599   3.226   2.810  10.705  0.2164 -0.8445  0.7204
  173SOPE    HX19600   3.171   2.739  10.771 -1.6805 -0.3158 -0.2622
  173SOPE    HY19601   3.294   2.860  10.777 -2.0231  0.8762  1.6743
  173SOPE   O3119602   3.301   2.753  10.597 -0.3065 -1.1277 -0.5244
  173SOPE   C3119603   3.255   2.644  10.552 -0.0458  0.1324  0.5686
  173SOPE   O3219604   3.152   2.586  10.579  0.0561  0.1184  0.0139
  173SOPE   C3219605   3.348   2.593  10.437  0.1202  0.1347 -0.0576
  173SOPE   H2X19606   3.413   2.521  10.490  1.2816  1.2196  0.0115
  173SOPE   H2Y19607   3.400   2.677  10.386  0.0920  1.0525  1.4158
  173SOPE   C2319608   2.875   3.053  10.263  0.3893  0.0329 -0.3875
  173SOPE   H3R19609   2.966   3.112  10.238  0.6973 -0.6852 -0.9649
  173SOPE   H3S19610   2.804   3.125  10.310 -0.1681 -1.5060  1.1571
  173SOPE   C2419611   2.809   3.006  10.138 -0.1665  0.1883  0.3929
  173SOPE   H4R19612   2.873   2.925  10.096 -0.8947 -0.3352  0.2773
  173SOPE   H4S19613   2.710   2.957  10.146 -0.6542  1.0094 -0.6065
  173SOPE   C2519614   2.798   3.119  10.040 -0.1681 -0.3891 -0.4603
  173SOPE   H5R19615   2.731   3.191  10.090  0.2348 -0.3513  0.0326
  173SOPE   H5S19616   2.895   3.170  10.022 -1.8639  2.9723 -0.2974
  173SOPE   C2619617   2.731   3.064   9.912 -0.2161 -0.5749  0.0844
  173SOPE   H6R19618   2.670   2.981   9.953 -1.2385  1.3274  2.5672
  173SOPE   H6S19619   2.667   3.146   9.873 -1.6383 -2.6260 -2.0125
  173SOPE   C2719620   2.831   3.028   9.800 -0.8412 -0.1351  0.3080
  173SOPE   H7R19621   2.899   3.116   9.792 -0.9306 -0.0777  0.1688
  173SOPE   H7S19622   2.885   2.934   9.825 -0.5826 -0.1177 -0.1884
  173SOPE   C2819623   2.748   3.011   9.675 -0.1430  1.7479  0.0956
  173SOPE   H8R19624   2.678   3.096   9.656 -0.3827  1.5265 -0.0199
  173SOPE   H8S19625   2.826   2.997   9.597 -0.2783  0.5107  0.1796
  173SOPE   C2919626   2.669   2.882   9.669 -0.5291  1.3478  0.9031
  173SOPE   H9119627   2.705   2.813   9.747  0.2959  0.1734 -0.5075
  173SOPE  C21019628   2.573   2.846   9.574 -0.1600 -0.3064 -0.0873
  173SOPE  H10119629   2.520   2.751   9.594 -0.5355 -0.2289 -0.7189
  173SOPE  C21119630   2.539   2.923   9.445 -1.1425  0.5920  0.4854
  173SOPE  H11R19631   2.507   3.027   9.467 -1.5522  0.9603 -1.8154
  173SOPE  H11S19632   2.446   2.880   9.403 -0.0929  0.0253 -1.3024
  173SOPE  C21219633   2.649   2.888   9.333 -1.0409 -0.3339 -0.2024
  173SOPE  H12R19634   2.667   2.779   9.338  3.3989  0.3619  1.2355
  173SOPE  H12S19635   2.742   2.935   9.371 -0.4224 -1.0603 -0.8325
  173SOPE  C21319636   2.599   2.931   9.197  0.3272 -0.3890  0.1818
  173SOPE  H13R19637   2.596   3.042   9.196 -0.8129 -0.4216 -0.8530
  173SOPE  H13S19638   2.498   2.890   9.176  0.0182  1.0490 -1.2796
  173SOPE  C21419639   2.697   2.891   9.079  0.0856 -0.7571 -0.1149
  173SOPE  H14R19640   2.705   2.780   9.073 -0.2957 -0.8305  0.6953
  173SOPE  H14S19641   2.788   2.953   9.064 -1.8455  2.5051  1.0991
  173SOPE  C21519642   2.619   2.927   8.953  0.1939  0.0222 -0.6860
  173SOPE  H15R19643   2.631   3.037   8.940 -0.0909 -0.0012 -1.1500
  173SOPE  H15S19644   2.512   2.911   8.975  0.1078  2.4086  0.8535
  173SOPE  C21619645   2.654   2.834   8.825  0.8165 -0.2158  0.1862
  173SOPE  H16R19646   2.588   2.884   8.751 -0.5146 -1.0364  0.8022
  173SOPE  H16S19647   2.632   2.727   8.843 -1.1964 -0.1295 -1.5461
  173SOPE  C21719648   2.804   2.846   8.792  0.2556  0.4567  0.2305
  173SOPE  H17R19649   2.847   2.798   8.882  0.1982 -1.1256 -0.5669
  173SOPE  H17S19650   2.829   2.954   8.787 -1.2724  0.9052  1.8393
  173SOPE  C21819651   2.843   2.783   8.661 -0.1633 -0.5491 -0.0331
  173SOPE  H18R19652   2.806   2.679   8.652 -0.4313 -0.5257  0.7154
  173SOPE  H18S19653   2.953   2.786   8.650 -0.2700 -1.4966 -1.4022
  173SOPE  H18T19654   2.788   2.845   8.587 -0.3396 -0.6564  0.0080
  173SOPE   C3319655   3.267   2.512  10.330  0.0658 -0.6517  0.4959
  173SOPE   H3X19656   3.189   2.449  10.378 -1.3593  0.9498  0.3247
  173SOPE   H3Y19657   3.330   2.437  10.278 -1.6348 -2.2999  0.7905
  173SOPE   C3419658   3.187   2.603  10.229  0.2340  0.2768 -0.4026
  173SOPE   H4X19659   3.254   2.660  10.161 -0.3574 -0.0754 -1.2862
  173SOPE   H4Y19660   3.127   2.663  10.300  0.8924 -2.4555  2.5713
  173SOPE   C3519661   3.106   2.522  10.128  0.3505  0.6612  0.5580
  173SOPE   H5X19662   3.043   2.443  10.176 -0.3914 -0.1534 -1.6899
  173SOPE   H5Y19663   3.186   2.469  10.073 -0.1477  0.2400  0.2308
  173SOPE   C3619664   3.026   2.599  10.026 -0.2457 -0.1533 -0.9483
  173SOPE   H6X19665   3.051   2.705  10.049 -0.7854  0.4787 -3.1306
  173SOPE   H6Y19666   2.919   2.592  10.057 -0.1729 -0.4204 -0.7561
  173SOPE   C3719667   3.039   2.552   9.881  1.0421  0.2526 -0.1350
  173SOPE   H7X19668   3.027   2.442   9.874  1.9247 -0.0874  2.7200
  173SOPE   H7Y19669   3.146   2.570   9.856  0.6736  1.8368 -0.6571
  173SOPE   C3819670   2.940   2.608   9.786 -0.1735 -0.3816 -0.2881
  173SOPE   H8X19671   2.952   2.718   9.773  1.1751 -0.4723  0.0771
  173SOPE   H8Y19672   2.839   2.590   9.828 -1.3809  4.0028 -1.0620
  173SOPE   C3919673   2.951   2.537   9.651  0.0532 -0.3024  0.4095
  173SOPE   H9X19674   2.903   2.438   9.665 -0.6695 -0.1255 -0.8028
  173SOPE   H9Y19675   3.056   2.520   9.618  0.2925 -0.5399  1.2721
  173SOPE  C31019676   2.877   2.604   9.531 -0.3168  0.3925  0.5205
  173SOPE  H10X19677   2.939   2.691   9.499 -0.5613  0.7051  0.8864
  173SOPE  H10Y19678   2.769   2.628   9.541 -0.9339 -2.2702  0.6049
  173SOPE  C31119679   2.895   2.509   9.412 -0.1412  0.1863  0.5957
  173SOPE  H11X19680   2.817   2.430   9.422  0.1154 -0.0720  0.5532
  173SOPE  H11Y19681   2.999   2.471   9.414 -0.0381  0.5232  2.4298
  173SOPE  C31219682   2.869   2.577   9.279 -0.2860 -0.0756 -0.1201
  173SOPE  H12X19683   2.956   2.645   9.263  0.5579 -1.4584 -1.4521
  173SOPE  H12Y19684   2.772   2.632   9.283  0.8304  2.1925 -2.4779
  173SOPE  C31319685   2.871   2.465   9.170  0.2164 -0.4000 -0.5469
  173SOPE  H13X19686   2.784   2.397   9.185 -0.8422  1.3923  1.7437
  173SOPE  H13Y19687   2.966   2.410   9.193  0.1368 -0.0104  0.7878
  173SOPE  C31419688   2.875   2.510   9.024  0.0683 -0.3880 -0.5560
  173SOPE  H14X19689   2.947   2.593   9.003 -0.9375  0.7799  0.5670
  173SOPE  H14Y19690   2.778   2.559   9.005  0.9856  1.5508 -0.3705
  173SOPE  C31519691   2.907   2.390   8.931 -0.3172 -0.4750 -0.4060
  173SOPE  H15X19692   2.831   2.310   8.949 -0.3427 -0.1030  1.2506
  173SOPE  H15Y19693   3.008   2.350   8.950 -0.8775 -0.8875  1.8980
  173SOPE  C31619694   2.919   2.437   8.784 -0.1414  0.3310  0.2911
  173SOPE  H16X19695   2.976   2.529   8.759 -0.2737  0.6314  1.0823
  173SOPE  H16Y19696   2.819   2.443   8.737 -0.6462  1.1471  1.4205
  173SOPE  C31719697   2.982   2.319   8.704 -0.3188  0.1118  0.7824
  173SOPE  H17X19698   2.920   2.228   8.718 -2.2956  1.7162  2.7790
  173SOPE  H17Y19699   3.081   2.299   8.751 -0.1436  1.3647  0.9594
  173SOPE  C31819700   2.998   2.359   8.559  0.1553  0.1332  0.2798
  173SOPE  H18X19701   3.046   2.279   8.497  1.9183  0.1203  1.6333
  173SOPE  H18Y19702   3.058   2.452   8.560 -1.8333  1.4522 -0.1415
  173SOPE  H18Z19703   2.901   2.392   8.516 -0.2029  0.2615  1.1711
  174SOPE     N19704   2.783   2.618  10.789 -0.4614  0.6037 -0.7482
  174SOPE   HN119705   2.742   2.526  10.815 -0.7438  0.4509 -1.7212
  174SOPE   HN219706   2.838   2.646  10.872 -1.7006  3.4806 -0.8433
  174SOPE   HN319707   2.695   2.674  10.784 -1.5238 -0.5786  2.7893
  174SOPE   C1219708   2.854   2.609  10.654  0.1631 -0.2279  0.0965
  174SOPE  H12A19709   2.891   2.504  10.648  0.9464 -0.0497  1.5386
  174SOPE  H12B19710   2.938   2.682  10.653 -0.7706  0.8686 -1.8380
  174SOPE   C1119711   2.736   2.617  10.551  0.4285 -0.2173  0.0522
  174SOPE  H11A19712   2.663   2.536  10.575 -0.7848  0.0613 -2.5100
  174SOPE  H11B19713   2.779   2.593  10.451  1.2712  1.4371 -0.0063
  174SOPE     P19714   2.582   2.835  10.614 -0.4443  0.0984 -0.1956
  174SOPE   O1319715   2.622   2.973  10.606  0.3761  0.0905 -0.1395
  174SOPE   O1419716   2.563   2.778  10.748 -0.9181  0.5792  0.2348
  174SOPE   O1219717   2.688   2.744  10.542  0.0054 -0.2688  0.3524
  174SOPE   O1119718   2.451   2.812  10.530  0.4745  0.3511  0.0869
  174SOPE    C119719   2.410   2.674  10.501 -0.3405 -0.8495 -0.4155
  174SOPE    HA19720   2.299   2.665  10.500 -0.5265  0.8859  1.9881
  174SOPE    HB19721   2.450   2.599  10.573  2.2051  1.1110  0.2616
  174SOPE    C219722   2.449   2.640  10.357 -0.3038 -0.5778 -0.0533
  174SOPE    HS19723   2.559   2.648  10.345 -0.3274 -3.3987 -2.8048
  174SOPE   O2119724   2.374   2.731  10.270  0.1564  0.7316 -0.1414
  174SOPE   C2119725   2.439   2.763  10.162  0.5809 -0.5884 -0.2425
  174SOPE   O2219726   2.554   2.754  10.134 -0.3653  0.0195  0.4385
  174SOPE   C2219727   2.343   2.842  10.077  0.7365 -0.4226 -0.1252
  174SOPE   H2R19728   2.391   2.942  10.064  0.5342 -0.3433 -0.2601
  174SOPE   H2S19729   2.248   2.855  10.133  1.4035  0.3302  0.8626
  174SOPE    C319730   2.408   2.493  10.318  0.2681 -1.3368 -0.1117
  174SOPE    HX19731   2.303   2.481  10.351  0.4436  0.1176  1.0064
  174SOPE    HY19732   2.456   2.427  10.393 -0.2798 -0.1607  1.3011
  174SOPE   O3119733   2.442   2.468  10.180  0.0366  0.4426 -0.5118
  174SOPE   C3119734   2.572   2.447  10.166  0.1976 -0.2364 -0.2942
  174SOPE   O3219735   2.648   2.424  10.257  0.0066  0.6056 -0.0078
  174SOPE   C3219736   2.608   2.455  10.017 -0.4966 -0.4340  0.1348
  174SOPE   H2X19737   2.680   2.535   9.989 -1.4223  0.0596 -0.8782
  174SOPE   H2Y19738   2.516   2.483   9.962 -0.9342 -0.9162  0.6109
  174SOPE   C2319739   2.334   2.777   9.929 -0.8035  0.1252 -0.3465
  174SOPE   H3R19740   2.440   2.775   9.897 -0.2241 -0.3458  1.5144
  174SOPE   H3S19741   2.283   2.853   9.866 -1.3884  0.8164  0.9342
  174SOPE   C2419742   2.274   2.638   9.916 -0.2402 -0.4539 -0.0019
  174SOPE   H4R19743   2.315   2.581  10.002  1.8208  1.4357  0.3017
  174SOPE   H4S19744   2.163   2.639   9.924 -0.3674 -0.9733 -1.4244
  174SOPE   C2519745   2.315   2.581   9.774 -0.8772 -0.4052 -0.2573
  174SOPE   H5R19746   2.304   2.651   9.688 -2.7637  0.5168  0.6946
  174SOPE   H5S19747   2.423   2.559   9.783 -0.7405  0.0207 -0.8770
  174SOPE   C2619748   2.230   2.449   9.748 -0.5993  0.0421 -0.1410
  174SOPE   H6R19749   2.241   2.375   9.830 -2.1687 -1.2681 -1.1022
  174SOPE   H6S19750   2.127   2.484   9.767 -1.5813 -3.0697  0.5263
  174SOPE   C2719751   2.272   2.392   9.610 -0.3327  1.0116 -0.7130
  174SOPE   H7R19752   2.228   2.449   9.525 -1.3357 -0.1032 -0.9563
  174SOPE   H7S19753   2.382   2.386   9.595 -0.0924  0.6276  1.0840
  174SOPE   C2819754   2.233   2.239   9.597  0.0279 -0.7965  0.3479
  174SOPE   H8R19755   2.298   2.206   9.512  1.2774  1.8084  0.2370
  174SOPE   H8S19756   2.271   2.193   9.690  0.9789  0.1197  0.4151
  174SOPE   C2919757   2.090   2.219   9.584  0.6224 -0.4013 -0.4973
  174SOPE   H9119758   2.034   2.235   9.677  0.6268  0.5892 -0.6521
  174SOPE  C21019759   2.024   2.184   9.468 -0.3951 -0.5914  0.7199
  174SOPE  H10119760   1.914   2.172   9.468 -0.3249 -1.3858 -1.3485
  174SOPE  C21119761   2.086   2.158   9.332 -0.0493 -0.4907  0.3282
  174SOPE  H11R19762   2.046   2.063   9.291 -1.3974  0.8309 -1.5276
  174SOPE  H11S19763   2.196   2.144   9.333  0.2358  1.6801  2.6121
  174SOPE  C21219764   2.069   2.281   9.239 -0.8964  0.8655 -0.2262
  174SOPE  H12R19765   2.142   2.273   9.155 -0.1369 -0.5841  0.5352
  174SOPE  H12S19766   2.086   2.372   9.301  0.6326  1.9190 -2.1448
  174SOPE  C21319767   1.929   2.301   9.186 -0.5097 -0.1605 -0.2591
  174SOPE  H13R19768   1.856   2.294   9.270 -0.2727  0.7802  0.0276
  174SOPE  H13S19769   1.914   2.225   9.107 -0.5949 -0.1335 -0.2702
  174SOPE  C21419770   1.918   2.431   9.112 -1.0499 -0.4164  0.2466
  174SOPE  H14R19771   2.016   2.454   9.064  0.0189  0.6366  2.8137
  174SOPE  H14S19772   1.914   2.513   9.187  2.6988  0.0201  0.0868
  174SOPE  C21519773   1.817   2.447   8.998 -0.5266 -0.4382  0.4421
  174SOPE  H15R19774   1.720   2.403   9.027  0.1730 -1.9696  0.5017
  174SOPE  H15S19775   1.849   2.394   8.906 -2.2845 -1.1105  0.2071
  174SOPE  C21619776   1.783   2.600   8.965 -0.3776  0.1468  0.1251
  174SOPE  H16R19777   1.880   2.655   8.969  0.0682 -0.6743  0.7909
  174SOPE  H16S19778   1.724   2.627   9.056  0.2544  1.2347  0.2267
  174SOPE  C21719779   1.719   2.613   8.829  1.0344 -0.4624 -0.0835
  174SOPE  H17R19780   1.635   2.544   8.806 -0.8963  1.2935  1.3990
  174SOPE  H17S19781   1.804   2.593   8.760  0.3832 -3.0635 -0.1861
  174SOPE  C21819782   1.668   2.758   8.799  0.9706 -0.2960  0.6255
  174SOPE  H18R19783   1.752   2.829   8.815 -0.1408  1.5307 -1.2391
  174SOPE  H18S19784   1.594   2.793   8.875  0.5704 -4.0206  2.0379
  174SOPE  H18T19785   1.617   2.759   8.700 -0.3850 -1.7356  1.3044
  174SOPE   C3319786   2.650   2.322   9.955  0.0020  0.1503  0.6361
  174SOPE   H3X19787   2.562   2.257   9.972 -1.7922  2.3181 -0.0421
  174SOPE   H3Y19788   2.748   2.280   9.986  0.5682  0.1168 -1.1490
  174SOPE   C3419789   2.644   2.321   9.801  0.1246  0.4482  0.7982
  174SOPE   H4X19790   2.680   2.416   9.756  0.3929 -0.2092 -0.3925
  174SOPE   H4Y19791   2.539   2.314   9.766  0.4472  0.8403 -0.2718
  174SOPE   C3519792   2.721   2.206   9.740 -0.3857  0.1729  0.4460
  174SOPE   H5X19793   2.691   2.108   9.783  1.4580 -0.5016  0.2463
  174SOPE   H5Y19794   2.828   2.219   9.767  0.0842  1.5077 -1.9543
  174SOPE   C3619795   2.708   2.194   9.590  0.1319 -0.2834  0.7491
  174SOPE   H6X19796   2.750   2.287   9.545 -2.4938  1.4241  1.7371
  174SOPE   H6Y19797   2.607   2.176   9.547  1.8517 -1.4239 -3.1058
  174SOPE   C3719798   2.779   2.076   9.518 -0.7409  0.6988  0.5572
  174SOPE   H7X19799   2.729   1.984   9.554 -0.1291 -0.0627 -0.5015
  174SOPE   H7Y19800   2.889   2.077   9.535 -0.2054 -0.7220 -2.4322
  174SOPE   C3819801   2.746   2.074   9.366  0.2752  0.5178 -1.1562
  174SOPE   H8X19802   2.762   2.180   9.335 -0.5174  0.6920 -0.9869
  174SOPE   H8Y19803   2.641   2.049   9.340 -0.0161  2.1126 -1.5742
  174SOPE   C3919804   2.838   1.979   9.282 -0.3233  0.6753 -0.9679
  174SOPE   H9X19805   2.802   1.877   9.305 -1.2279  0.4829 -3.0796
  174SOPE   H9Y19806   2.946   1.995   9.298 -0.3615  1.6974 -1.6570
  174SOPE  C31019807   2.811   2.007   9.135 -0.6569  0.1759 -0.9208
  174SOPE  H10X19808   2.850   2.108   9.112  0.4075 -0.1288 -0.5201
  174SOPE  H10Y19809   2.703   1.999   9.112 -1.1357 -1.1346  1.6633
  174SOPE  C31119810   2.866   1.903   9.041  0.1773  0.2850  0.7346
  174SOPE  H11X19811   2.831   1.801   9.070 -0.0720  0.7078  1.9162
  174SOPE  H11Y19812   2.972   1.913   9.070  0.4731  0.8507 -0.5089
  174SOPE  C31219813   2.856   1.938   8.890 -0.3450  0.7537 -0.8599
  174SOPE  H12X19814   2.937   1.874   8.849 -0.9822 -0.8565  0.3432
  174SOPE  H12Y19815   2.869   2.046   8.868 -1.0850  0.8665 -0.7535
  174SOPE  C31319816   2.714   1.891   8.834 -0.0970  0.3602 -0.3152
  174SOPE  H13X19817   2.638   1.965   8.866  0.3872  0.3970  0.7739
  174SOPE  H13Y19818   2.693   1.790   8.875 -1.2220  0.6281 -0.2186
  174SOPE  C31419819   2.714   1.871   8.684 -0.6562  0.2572  0.7147
  174SOPE  H14X19820   2.811   1.820   8.669 -1.3788 -1.0790  0.4342
  174SOPE  H14Y19821   2.699   1.961   8.621 -2.1567 -0.4336  0.0557
  174SOPE  C31519822   2.614   1.771   8.631 -0.0232  0.9786  0.1935
  174SOPE  H15X19823   2.635   1.669   8.669  0.1470  0.6767 -0.6977
  174SOPE  H15Y19824   2.624   1.781   8.521 -0.5974 -0.0223  0.0409
  174SOPE  C31619825   2.466   1.805   8.658 -0.1872 -0.1671  0.8510
  174SOPE  H16X19826   2.428   1.908   8.638 -1.8442 -0.8286  0.5158
  174SOPE  H16Y19827   2.456   1.821   8.768  0.0201  1.3193  0.6652
  174SOPE  C31719828   2.377   1.687   8.611 -0.2027  0.1944 -0.3577
  174SOPE  H17X19829   2.419   1.586   8.634  2.1470  1.0534 -0.7552
  174SOPE  H17Y19830   2.382   1.690   8.500  1.7593  0.1818 -0.2825
  174SOPE  C31819831   2.230   1.706   8.643 -0.0878 -0.5924 -0.0698
  174SOPE  H18X19832   2.221   1.710   8.754 -2.9710  0.1917 -0.3071
  174SOPE  H18Y19833   2.170   1.626   8.597  1.0198 -0.2463 -2.1793
  174SOPE  H18Z19834   2.198   1.806   8.607 -0.9673 -0.6895  0.4430
  175SOPE     N19835   4.172   4.372  10.923 -0.6311 -0.1560 -0.8833
  175SOPE   HN119836   4.176   4.470  10.890  1.1794  0.1589  0.2196
  175SOPE   HN219837   4.146   4.309  10.844  3.0233 -0.9414 -1.5381
  175SOPE   HN319838   4.093   4.379  10.990 -0.2705 -3.2708 -0.0497
  175SOPE   C1219839   4.300   4.332  10.987 -0.0865 -0.1620  0.0788
  175SOPE  H12A19840   4.276   4.235  11.037 -0.2525 -1.0338 -1.6722
  175SOPE  H12B19841   4.322   4.420  11.052 -1.0878 -0.3353  0.6654
  175SOPE   C1119842   4.416   4.306  10.881  0.6386 -0.0004 -0.3493
  175SOPE  H11A19843   4.502   4.287  10.949 -0.4230 -0.9139  0.7715
  175SOPE  H11B19844   4.443   4.398  10.825  0.2066  0.1757 -0.2672
  175SOPE     P19845   4.309   4.181  10.672 -0.1664  0.1222  0.5029
  175SOPE   O1319846   4.169   4.174  10.708 -0.2637  0.6115  0.5229
  175SOPE   O1419847   4.363   4.077  10.588 -0.3648 -0.1299 -0.2299
  175SOPE   O1219848   4.393   4.191  10.807  0.1550  0.0230 -0.6607
  175SOPE   O1119849   4.326   4.325  10.601 -0.6870 -0.0881 -0.2875
  175SOPE    C119850   4.212   4.403  10.552 -0.4298 -0.1436 -0.2465
  175SOPE    HA19851   4.254   4.505  10.554 -0.0396 -0.3164  1.9419
  175SOPE    HB19852   4.130   4.389  10.625  0.3892 -0.9282  0.5416
  175SOPE    C219853   4.177   4.357  10.403  0.0637  0.2503  0.8492
  175SOPE    HS19854   4.101   4.430  10.368 -1.3270 -2.2162 -1.4395
  175SOPE   O2119855   4.126   4.226  10.371 -0.0002 -0.4094  0.1209
  175SOPE   C2119856   3.993   4.217  10.400  0.4294 -0.4125  0.9368
  175SOPE   O2219857   3.929   4.309  10.446  0.5547  0.2767  0.0526
  175SOPE   C2219858   3.944   4.076  10.367  0.3375  0.0319 -0.0565
  175SOPE   H2R19859   3.883   4.052  10.457 -1.0353  2.8907 -0.1439
  175SOPE   H2S19860   4.016   3.992  10.372  1.6554  1.1271 -0.3549
  175SOPE    C319861   4.305   4.386  10.307 -0.6420 -0.2062 -0.5107
  175SOPE    HX19862   4.386   4.311  10.316 -0.6127 -0.1860 -0.6114
  175SOPE    HY19863   4.345   4.482  10.346 -0.2049  0.0956 -1.6973
  175SOPE   O3119864   4.268   4.414  10.166  0.3972  0.1112 -0.4564
  175SOPE   C3119865   4.281   4.311  10.085 -0.3680  0.2240  0.9152
  175SOPE   O3219866   4.311   4.196  10.116 -0.8133 -1.1673  0.1793
  175SOPE   C3219867   4.276   4.359   9.940 -0.0480  0.3285  0.4974
  175SOPE   H2X19868   4.357   4.432   9.916 -1.1671  1.0362 -1.2065
  175SOPE   H2Y19869   4.183   4.419   9.932  1.1735  2.0834 -0.7382
  175SOPE   C2319870   3.848   4.066  10.249  1.0486  0.6426 -0.1165
  175SOPE   H3R19871   3.766   4.139  10.267  0.6048 -0.3181  1.9087
  175SOPE   H3S19872   3.811   3.961  10.249  0.2535  0.9092 -1.3848
  175SOPE   C2419873   3.912   4.089  10.114 -0.4381  1.0781  0.5013
  175SOPE   H4R19874   3.998   4.159  10.127 -0.8770  1.6057  0.5707
  175SOPE   H4S19875   3.960   3.995  10.082  0.8758  2.2596 -1.0906
  175SOPE   C2519876   3.826   4.142  10.001  0.3974 -0.7673 -0.5879
  175SOPE   H5R19877   3.727   4.095  10.015  0.0386  0.1798  0.1450
  175SOPE   H5S19878   3.807   4.251  10.010 -0.4416 -0.9705  0.0800
  175SOPE   C2619879   3.888   4.114   9.860  0.3085  0.0436 -0.6680
  175SOPE   H6R19880   3.983   4.169   9.849  0.6779  0.2437  2.8399
  175SOPE   H6S19881   3.901   4.005   9.842 -1.4511 -0.1739 -0.6752
  175SOPE   C2719882   3.795   4.164   9.749  0.9720  0.4139 -0.4175
  175SOPE   H7R19883   3.691   4.125   9.757  2.1928 -2.3320  3.6063
  175SOPE   H7S19884   3.784   4.273   9.762  1.5758  0.4635 -0.3265
  175SOPE   C2819885   3.850   4.122   9.612 -0.2193  0.1082 -0.4518
  175SOPE   H8R19886   3.954   4.086   9.629  0.1235 -0.6009 -3.6529
  175SOPE   H8S19887   3.795   4.031   9.579  3.0468 -2.3182  0.4921
  175SOPE   C2919888   3.864   4.239   9.512  0.2022 -0.4025 -0.1853
  175SOPE   H9119889   3.918   4.331   9.539  1.6869 -1.2824 -0.1498
  175SOPE  C21019890   3.810   4.235   9.387  0.4471  0.2735  0.2593
  175SOPE  H10119891   3.815   4.331   9.334 -0.7184  1.2815  1.9302
  175SOPE  C21119892   3.722   4.133   9.316 -0.2088  0.6095 -0.3914
  175SOPE  H11R19893   3.615   4.164   9.313 -0.0399  1.2465  0.0700
  175SOPE  H11S19894   3.715   4.036   9.370  0.3796  1.2200  0.7984
  175SOPE  C21219895   3.745   4.116   9.165 -0.5156 -0.0889 -0.1784
  175SOPE  H12R19896   3.750   4.212   9.110 -0.4884  0.3598  0.5923
  175SOPE  H12S19897   3.664   4.061   9.112  1.0647 -0.8912 -1.7743
  175SOPE  C21319898   3.886   4.045   9.135 -0.2558 -0.4030 -0.6499
  175SOPE  H13R19899   3.896   3.966   9.213 -0.3860 -0.9002 -1.1320
  175SOPE  H13S19900   3.966   4.118   9.157  0.3292 -1.0178 -0.7165
  175SOPE  C21419901   3.900   3.986   8.996 -0.3762 -0.3761  0.1822
  175SOPE  H14R19902   3.807   3.947   8.951 -0.0706 -0.7670 -0.1146
  175SOPE  H14S19903   3.966   3.898   9.011  0.1949 -0.1298 -0.8725
  175SOPE  C21519904   3.974   4.087   8.902  0.2878  0.4217 -0.1421
  175SOPE  H15R19905   4.069   4.108   8.956  0.3541 -0.4455  0.0867
  175SOPE  H15S19906   3.920   4.184   8.904  1.7943  1.2660  0.5294
  175SOPE  C21619907   4.006   4.036   8.763  0.4418 -0.3196  0.1340
  175SOPE  H16R19908   3.910   3.995   8.723  0.4940 -1.0121  0.7063
  175SOPE  H16S19909   4.077   3.950   8.759  0.6014 -0.1741 -0.1275
  175SOPE  C21719910   4.071   4.141   8.670  0.3108  0.6625 -0.1473
  175SOPE  H17R19911   4.175   4.168   8.697  0.1581  3.9414 -2.5540
  175SOPE  H17S19912   4.012   4.235   8.680 -1.3724 -0.5273  1.5658
  175SOPE  C21819913   4.069   4.087   8.528  0.2924  0.1501 -0.0934
  175SOPE  H18R19914   4.104   4.172   8.465  1.1364 -0.6851 -0.7650
  175SOPE  H18S19915   3.965   4.057   8.503 -0.5122  1.2308  1.8335
  175SOPE  H18T19916   4.129   3.996   8.510  0.3164 -0.0050  0.7862
  175SOPE   C3319917   4.277   4.245   9.835  0.1659 -0.0377 -0.7654
  175SOPE   H3X19918   4.202   4.168   9.860 -1.8094  1.3003 -2.3506
  175SOPE   H3Y19919   4.379   4.203   9.844  1.1897  2.5488  0.2526
  175SOPE   C3419920   4.248   4.305   9.697  0.6112  0.1408  0.5056
  175SOPE   H4X19921   4.335   4.370   9.670  2.0533 -1.9273  0.0374
  175SOPE   H4Y19922   4.153   4.361   9.687  0.8162  0.4129  0.0658
  175SOPE   C3519923   4.244   4.193   9.592  0.7404 -0.7322 -0.6631
  175SOPE   H5X19924   4.167   4.118   9.621  0.9252 -1.9955 -3.2675
  175SOPE   H5Y19925   4.346   4.149   9.582  1.1066 -0.3692  1.3729
  175SOPE   C3619926   4.212   4.227   9.445  0.1580  0.3275 -0.2521
  175SOPE   H6X19927   4.290   4.294   9.405 -0.1536  0.2960 -0.9155
  175SOPE   H6Y19928   4.113   4.275   9.429  0.3246  0.5460 -0.6162
  175SOPE   C3719929   4.221   4.109   9.350 -0.7028 -0.1902 -0.2490
  175SOPE   H7X19930   4.113   4.087   9.331 -0.6618 -1.1002  0.5207
  175SOPE   H7Y19931   4.276   4.024   9.395  1.5373  1.5714  0.3907
  175SOPE   C3819932   4.281   4.142   9.214  0.2461 -0.1989 -0.2960
  175SOPE   H8X19933   4.376   4.198   9.230  0.3927 -0.8687  1.2313
  175SOPE   H8Y19934   4.213   4.209   9.157  1.2894  0.5320 -0.7071
  175SOPE   C3919935   4.299   4.022   9.119  0.0431 -0.0831 -0.6328
  175SOPE   H9X19936   4.204   3.969   9.095 -0.6989  0.4375  1.0646
  175SOPE   H9Y19937   4.345   3.941   9.180 -1.6103  0.5216  1.4949
  175SOPE  C31019938   4.380   4.046   8.983 -0.4209  0.5305 -0.7124
  175SOPE  H10X19939   4.471   4.105   9.008 -0.7433  1.1764 -1.0672
  175SOPE  H10Y19940   4.307   4.107   8.926  0.6665  2.4391 -0.1057
  175SOPE  C31119941   4.419   3.916   8.903 -0.0949 -0.2115  0.3182
  175SOPE  H11X19942   4.324   3.860   8.917  0.6126 -1.6626 -0.5811
  175SOPE  H11Y19943   4.509   3.876   8.955 -0.1065 -2.1073 -1.0953
  175SOPE  C31219944   4.454   3.950   8.756  0.1499 -0.2661  0.2623
  175SOPE  H12X19945   4.544   4.015   8.745 -1.1789  1.2969 -1.6299
  175SOPE  H12Y19946   4.362   4.003   8.722  0.2228  0.4709  1.1742
  175SOPE  C31319947   4.470   3.823   8.669 -0.4957  0.4526 -0.1925
  175SOPE  H13X19948   4.497   3.855   8.566  0.4379 -0.9639 -0.3906
  175SOPE  H13Y19949   4.370   3.776   8.665 -0.1813 -0.3044  0.5352
  175SOPE  C31419950   4.585   3.728   8.716  0.5372  0.5024 -0.4637
  175SOPE  H14X19951   4.578   3.633   8.660  0.4117 -0.0325  0.4546
  175SOPE  H14Y19952   4.554   3.704   8.820  0.0246 -0.5674 -0.8628
  175SOPE  C31519953   4.722   3.792   8.705 -0.5473 -0.1043 -0.2167
  175SOPE  H15X19954   4.734   3.865   8.788  0.8106 -0.7916  0.1963
  175SOPE  H15Y19955   4.725   3.855   8.613 -0.1321 -0.2937 -0.3300
  175SOPE  C31619956   4.840   3.693   8.713 -0.6737  0.1640 -0.9812
  175SOPE  H16X19957   4.802   3.612   8.647  1.2627 -0.3840 -1.4437
  175SOPE  H16Y19958   4.844   3.661   8.819  0.0829  1.7310 -0.5203
  175SOPE  C31719959   4.979   3.746   8.668  0.4009 -0.1287 -0.7016
  175SOPE  H17X19960   4.955   3.808   8.579  0.5118 -0.0001 -0.6430
  175SOPE  H17Y19961   5.054   3.666   8.650  2.5797  1.2670  1.7493
  175SOPE  C31819962   5.036   3.844   8.770 -0.3330 -0.4150 -0.4846
  175SOPE  H18X19963   4.971   3.930   8.795  0.4969 -0.0228  0.3293
  175SOPE  H18Y19964   5.129   3.882   8.723 -0.9232  2.0700  0.2906
  175SOPE  H18Z19965   5.057   3.788   8.863  0.4637 -1.8810 -1.5179
  176SOPE     N19966   4.184   3.577  10.713 -0.2531 -0.0772  0.4966
  176SOPE   HN119967   4.288   3.580  10.705 -0.3790 -1.1535 -1.9007
  176SOPE   HN219968   4.147   3.619  10.801  0.1336 -1.0147  1.1248
  176SOPE   HN319969   4.175   3.473  10.715 -0.5811 -0.0323  2.4619
  176SOPE   C1219970   4.113   3.634  10.592 -0.1248 -0.7649  0.0254
  176SOPE  H12A19971   4.173   3.600  10.505 -0.5963 -0.3304 -0.4751
  176SOPE  H12B19972   4.135   3.743  10.594  0.2006 -0.8464  1.3947
  176SOPE   C1119973   3.970   3.584  10.578 -0.9119  0.0942  0.1518
  176SOPE  H11A19974   3.974   3.483  10.533  0.1091  0.3470 -0.3259
  176SOPE  H11B19975   3.924   3.657  10.508  0.0857  2.8447  2.2369
  176SOPE     P19976   3.806   3.693  10.750  0.0956  0.1532  0.2253
  176SOPE   O1319977   3.837   3.815  10.672  0.6013 -0.0106 -0.4728
  176SOPE   O1419978   3.810   3.689  10.900 -0.0449 -0.2290 -0.0903
  176SOPE   O1219979   3.898   3.571  10.703 -0.3607 -0.0934  0.4143
  176SOPE   O1119980   3.655   3.653  10.707  0.4007  0.1415  0.1410
  176SOPE    C119981   3.584   3.530  10.714  0.5827  0.2544 -0.0136
  176SOPE    HA19982   3.474   3.544  10.716  0.7871  1.8619  2.7415
  176SOPE    HB19983   3.600   3.477  10.811  1.0137  1.0024  0.3313
  176SOPE    C219984   3.618   3.436  10.598  0.5296 -0.0943  0.2736
  176SOPE    HS19985   3.722   3.398  10.603  0.3756 -0.3350  1.8211
  176SOPE   O2119986   3.583   3.512  10.483 -0.1722  0.0663  0.5973
  176SOPE   C2119987   3.654   3.488  10.368 -0.4378 -0.0594 -0.5090
  176SOPE   O2219988   3.763   3.429  10.369  0.0549 -0.4001 -0.2071
  176SOPE   C2219989   3.590   3.566  10.255  0.5807 -0.0048  0.0212
  176SOPE   H2R19990   3.550   3.661  10.298 -1.8033 -0.8080 -0.3566
  176SOPE   H2S19991   3.514   3.504  10.204  1.5263  0.5508 -2.1505
  176SOPE    C319992   3.515   3.320  10.604  0.0478 -0.5750  0.2200
  176SOPE    HX19993   3.419   3.373  10.589 -0.4446 -1.1489  1.3265
  176SOPE    HY19994   3.519   3.271  10.704  2.4847 -2.6170 -0.8082
  176SOPE   O3119995   3.523   3.226  10.494  0.0624 -0.0213 -0.2121
  176SOPE   C3119996   3.511   3.097  10.530 -0.0545 -0.1474  0.1169
  176SOPE   O3219997   3.482   3.058  10.640 -0.2268  0.0292 -0.3462
  176SOPE   C3219998   3.531   3.005  10.408  0.4882 -0.0036 -0.0352
  176SOPE   H2X19999   3.481   2.909  10.435  0.7091 -0.2833 -0.6205
  176SOPE   H2Y20000   3.640   2.987  10.400  0.2124 -1.6140 -0.4144
  176SOPE   C2320001   3.683   3.617  10.146  0.3739  0.3430  0.6255
  176SOPE   H3R20002   3.751   3.534  10.118 -0.3732  0.0453 -0.3222
  176SOPE   H3S20003   3.744   3.705  10.179 -0.7083  1.3040  0.0965
  176SOPE   C2420004   3.595   3.660  10.024 -0.0794 -0.8467 -0.9555
  176SOPE   H4R20005   3.534   3.570  10.003 -0.4976 -1.4610  2.4619
  176SOPE   H4S20006   3.534   3.748  10.054  2.7024  0.6781  0.4897
  176SOPE   C2520007   3.680   3.714   9.912  0.3206 -0.6712 -0.2039
  176SOPE   H5R20008   3.657   3.823   9.900  0.4681 -0.8159 -1.9558
  176SOPE   H5S20009   3.786   3.722   9.943 -0.4046  3.7303  1.5479
  176SOPE   C2620010   3.662   3.642   9.781  0.1152  0.4877 -0.2793
  176SOPE   H6R20011   3.684   3.534   9.791  1.1629  0.6001 -1.1183
  176SOPE   H6S20012   3.552   3.645   9.767  0.3431  0.2705 -2.2584
  176SOPE   C2720013   3.734   3.719   9.659  0.0319 -0.3041 -0.8034
  176SOPE   H7R20014   3.699   3.824   9.665 -2.7337 -1.1777 -0.5794
  176SOPE   H7S20015   3.842   3.722   9.684 -0.0974 -0.4480 -0.2090
  176SOPE   C2820016   3.691   3.668   9.519  0.4338  1.1239 -0.4800
  176SOPE   H8R20017   3.580   3.657   9.514  0.6540 -2.1326  0.5140
  176SOPE   H8S20018   3.735   3.742   9.450  3.8654 -0.2860  0.0732
  176SOPE   C2920019   3.758   3.538   9.479 -0.5504 -0.2868  0.0339
  176SOPE   H9120020   3.793   3.479   9.565  0.5939 -1.2474 -1.0840
  176SOPE  C21020021   3.766   3.488   9.351  0.6833 -0.5079  0.0175
  176SOPE  H10120022   3.808   3.386   9.345  1.1173 -0.3956  1.0038
  176SOPE  C21120023   3.693   3.559   9.235  0.0791  0.2192 -0.2760
  176SOPE  H11R20024   3.704   3.669   9.233  1.0096  0.1180 -3.1757
  176SOPE  H11S20025   3.586   3.533   9.242 -0.1019  1.0546  0.1354
  176SOPE  C21220026   3.764   3.511   9.102 -0.3389  0.4240 -0.6928
  176SOPE  H12R20027   3.697   3.531   9.015  0.3494 -1.4038 -1.6614
  176SOPE  H12S20028   3.775   3.401   9.107 -0.9399  0.4279  1.2057
  176SOPE  C21320029   3.901   3.573   9.090 -0.2100  0.0624 -0.1740
  176SOPE  H13R20030   3.954   3.539   9.181 -0.3229 -1.5934 -0.7019
  176SOPE  H13S20031   3.890   3.683   9.094  2.1552  0.2331  2.2692
  176SOPE  C21420032   3.978   3.541   8.959  0.2967 -0.0236  1.1763
  176SOPE  H14R20033   3.917   3.589   8.880 -0.4236 -0.8524  1.2229
  176SOPE  H14S20034   3.975   3.431   8.947 -0.2183  0.0408  0.7162
  176SOPE  C21520035   4.119   3.601   8.945 -0.3271 -0.3358  0.2091
  176SOPE  H15R20036   4.163   3.589   9.047 -0.8778 -1.6509  0.2964
  176SOPE  H15S20037   4.105   3.709   8.925  0.4292 -0.4110 -0.7162
  176SOPE  C21620038   4.199   3.551   8.826  0.1225  0.7821  0.5579
  176SOPE  H16R20039   4.290   3.613   8.813 -0.5708  1.4689 -1.1671
  176SOPE  H16S20040   4.139   3.561   8.733 -0.1489  0.9444  0.7524
  176SOPE  C21720041   4.237   3.403   8.844  0.1238  0.8862 -0.2997
  176SOPE  H17R20042   4.146   3.340   8.836  0.3536  0.4531  0.4474
  176SOPE  H17S20043   4.296   3.406   8.938  1.3499  0.7875 -1.0437
  176SOPE  C21820044   4.333   3.357   8.720 -0.1511 -0.0659 -0.8944
  176SOPE  H18R20045   4.290   3.374   8.618 -2.0011 -1.3781 -0.3600
  176SOPE  H18S20046   4.360   3.250   8.730  2.2249  0.5689 -0.3764
  176SOPE  H18T20047   4.428   3.415   8.723 -0.6690  0.7323  0.8913
  176SOPE   C3320048   3.466   3.056  10.274 -0.2357  0.0504 -0.4415
  176SOPE   H3X20049   3.524   3.012  10.191 -0.9743 -1.1896 -0.3126
  176SOPE   H3Y20050   3.462   3.166  10.261 -2.8068  0.0019 -0.3970
  176SOPE   C3420051   3.322   3.001  10.276 -0.0809  0.3527  0.6595
  176SOPE   H4X20052   3.272   3.033  10.370 -0.7667  0.4683  0.2659
  176SOPE   H4Y20053   3.323   2.891  10.291 -1.9724  0.3541  0.9471
  176SOPE   C3520054   3.250   3.046  10.150  0.0155 -0.7579 -0.2615
  176SOPE   H5X20055   3.254   3.155  10.167  1.9461 -0.6536 -1.3283
  176SOPE   H5Y20056   3.150   2.997  10.159  0.1452 -0.5560  2.9581
  176SOPE   C3620057   3.306   2.991  10.014 -0.2446 -0.3785 -0.6701
  176SOPE   H6X20058   3.340   2.887  10.036 -0.3568 -0.3489 -0.3442
  176SOPE   H6Y20059   3.391   3.055   9.983  1.3823 -0.9260  2.4588
  176SOPE   C3720060   3.196   2.995   9.904 -0.4174 -0.4099  0.1051
  176SOPE   H7X20061   3.149   3.096   9.904 -0.3494 -0.3704  0.7215
  176SOPE   H7Y20062   3.112   2.928   9.930 -0.9220  1.6559  4.4038
  176SOPE   C3820063   3.251   2.947   9.768  0.3679 -0.2973  0.0841
  176SOPE   H8X20064   3.267   2.838   9.779 -2.3604 -0.8013 -0.6070
  176SOPE   H8Y20065   3.346   2.996   9.738 -1.3295  1.6662 -2.3658
  176SOPE   C3920066   3.157   2.964   9.653  0.8207 -0.1540 -0.0241
  176SOPE   H9X20067   3.114   3.066   9.646  0.0119 -0.2127  3.1977
  176SOPE   H9Y20068   3.065   2.903   9.667  0.0387  1.5436  2.6091
  176SOPE  C31020069   3.209   2.917   9.520 -0.4647  0.7444 -0.4441
  176SOPE  H10X20070   3.242   2.812   9.505  1.0320  1.1312  0.0046
  176SOPE  H10Y20071   3.305   2.972   9.508  0.5093 -0.4310  1.6465
  176SOPE  C31120072   3.117   2.941   9.400 -0.4548 -0.0363  0.1601
  176SOPE  H11X20073   3.096   3.050   9.397  0.9701  0.2136 -1.5322
  176SOPE  H11Y20074   3.023   2.890   9.430 -0.9713  1.3460  0.9512
  176SOPE  C31220075   3.174   2.894   9.267 -1.2251 -0.9365  0.2452
  176SOPE  H12X20076   3.199   2.785   9.270  1.7079 -0.3238 -0.3815
  176SOPE  H12Y20077   3.265   2.953   9.244 -0.6684 -1.8938 -0.0241
  176SOPE  C31320078   3.069   2.919   9.162  0.4335 -0.1718  0.3247
  176SOPE  H13X20079   3.014   3.016   9.166  1.0461  0.2194 -0.6165
  176SOPE  H13Y20080   2.993   2.842   9.189  2.4429 -0.6184  5.1751
  176SOPE  C31420081   3.122   2.902   9.026  0.9063  0.3741 -0.2973
  176SOPE  H14X20082   3.036   2.879   8.959  0.3889  1.4394 -0.0237
  176SOPE  H14Y20083   3.198   2.822   9.026 -0.7654 -1.2675 -1.2139
  176SOPE  C31520084   3.180   3.036   8.983 -0.5763  0.1781 -0.2396
  176SOPE  H15X20085   3.229   3.095   9.063  0.4738  0.5469 -1.1440
  176SOPE  H15Y20086   3.094   3.099   8.954  1.4248  1.9623 -2.4837
  176SOPE  C31620087   3.283   3.035   8.871 -0.0298  0.2866  1.0745
  176SOPE  H16X20088   3.354   2.950   8.878  0.3529  0.6970  2.2185
  176SOPE  H16Y20089   3.329   3.136   8.868 -1.4745  0.9122 -1.1640
  176SOPE  C31720090   3.224   3.024   8.730 -0.2940  0.5071  0.1250
  176SOPE  H17X20091   3.153   3.110   8.726  1.4870  2.0563  1.3429
  176SOPE  H17Y20092   3.174   2.925   8.719 -0.1633  0.3397  1.0078
  176SOPE  C31820093   3.331   3.044   8.622  0.5749 -0.3901 -0.0880
  176SOPE  H18X20094   3.281   3.037   8.524  0.3444 -0.4612  0.0330
  176SOPE  H18Y20095   3.414   2.973   8.643 -0.4068 -1.0813  1.6069
  176SOPE  H18Z20096   3.372   3.147   8.637  1.6940 -1.2377  3.2046
  177SOPE     N20097   3.680   1.429  11.018  0.1500  0.7488  0.6817
  177SOPE   HN120098   3.654   1.447  11.117  2.8369 -2.2438  2.0155
  177SOPE   HN220099   3.730   1.338  11.014 -2.5616 -0.8065  0.9369
  177SOPE   HN320100   3.750   1.502  10.992  0.6943 -1.1368 -3.5685
  177SOPE   C1220101   3.564   1.435  10.917 -0.4984  0.1116 -0.3405
  177SOPE  H12A20102   3.601   1.400  10.818  2.7385 -0.2368  0.9502
  177SOPE  H12B20103   3.527   1.540  10.914  0.6542  0.4850 -2.1864
  177SOPE   C1120104   3.445   1.347  10.961  0.0680 -0.0830 -0.3954
  177SOPE  H11A20105   3.453   1.240  10.932 -1.0472  0.4135 -2.6709
  177SOPE  H11B20106   3.370   1.387  10.889  0.4765  2.5525  0.5952
  177SOPE     P20107   3.271   1.430  11.135 -0.3524 -0.0067  0.4286
  177SOPE   O1320108   3.268   1.477  11.272  0.4919  0.2144  0.2316
  177SOPE   O1420109   3.169   1.330  11.103  0.7028 -0.7428  0.1691
  177SOPE   O1220110   3.406   1.369  11.098 -0.1812  0.5997 -0.1084
  177SOPE   O1120111   3.267   1.558  11.036  0.5123  0.6179 -0.4747
  177SOPE    C120112   3.140   1.618  11.002  0.4642  0.4858 -0.3325
  177SOPE    HA20113   3.144   1.729  11.008  0.4670  0.5938 -2.0925
  177SOPE    HB20114   3.066   1.591  11.081  2.3215 -0.7632  1.0465
  177SOPE    C220115   3.080   1.566  10.863  0.1758  0.0782 -0.1538
  177SOPE    HS20116   3.043   1.466  10.894 -0.9023 -0.3965 -2.7957
  177SOPE   O2120117   3.186   1.560  10.772 -0.5889 -0.6124 -0.0375
  177SOPE   C2120118   3.161   1.471  10.673  0.1232 -0.2608 -0.3815
  177SOPE   O2220119   3.091   1.373  10.671 -0.2518 -0.2329  0.5208
  177SOPE   C2220120   3.250   1.511  10.557 -0.0376 -0.6080  0.0491
  177SOPE   H2R20121   3.277   1.413  10.512  0.1745 -0.2414 -0.6210
  177SOPE   H2S20122   3.334   1.566  10.604 -1.2311  0.8671  0.5207
  177SOPE    C320123   2.963   1.653  10.811  0.1091  0.8596 -0.4928
  177SOPE    HX20124   3.003   1.752  10.782 -1.9836  1.6330 -0.8199
  177SOPE    HY20125   2.893   1.684  10.891 -0.6701 -1.4581 -0.2375
  177SOPE   O3120126   2.907   1.596  10.685  0.2467  0.4546 -0.2143
  177SOPE   C3120127   2.802   1.673  10.648 -0.3246  0.0329  0.1495
  177SOPE   O3220128   2.771   1.772  10.711  0.0267 -0.1325  0.3900
  177SOPE   C3220129   2.749   1.623  10.520  0.1502  0.6258 -0.2346
  177SOPE   H2X20130   2.815   1.647  10.435 -0.0283  2.1701  0.0422
  177SOPE   H2Y20131   2.657   1.684  10.506  0.6225  1.5121  0.4097
  177SOPE   C2320132   3.188   1.591  10.446 -0.0380 -0.6787  0.1875
  177SOPE   H3R20133   3.164   1.693  10.483 -4.2318 -1.6309  0.3202
  177SOPE   H3S20134   3.092   1.539  10.428  0.3136 -1.2468 -0.0658
  177SOPE   C2420135   3.259   1.603  10.311  0.5904  0.9344 -0.3881
  177SOPE   H4R20136   3.267   1.499  10.272  2.6753  0.4472  1.1994
  177SOPE   H4S20137   3.184   1.659  10.251 -1.7078 -0.3905  1.1701
  177SOPE   C2520138   3.394   1.677  10.339 -0.2138 -0.8272 -0.6373
  177SOPE   H5R20139   3.373   1.769  10.398 -0.3249 -2.3045  1.6505
  177SOPE   H5S20140   3.470   1.620  10.396 -0.6414 -2.4449 -1.6464
  177SOPE   C2620141   3.458   1.718  10.208  0.1572 -0.5765  0.6786
  177SOPE   H6R20142   3.370   1.751  10.149 -0.3410 -3.6514 -0.3525
  177SOPE   H6S20143   3.532   1.801  10.216 -3.0174  2.5017 -0.8391
  177SOPE   C2720144   3.525   1.604  10.136 -0.2025  0.4382  0.2061
  177SOPE   H7R20145   3.619   1.584  10.191  0.4117  0.4729 -0.8040
  177SOPE   H7S20146   3.457   1.516  10.139  1.7012 -1.0917 -0.6122
  177SOPE   C2820147   3.554   1.649   9.993  0.3388  0.2512  0.8020
  177SOPE   H8R20148   3.602   1.749   9.995  1.1944  0.0422 -3.2320
  177SOPE   H8S20149   3.633   1.588   9.943 -0.1122  0.7970 -0.6112
  177SOPE   C2920150   3.438   1.645   9.899 -0.3345 -0.1535 -0.4348
  177SOPE   H9120151   3.364   1.571   9.930 -1.2664  1.0999  0.3923
  177SOPE  C21020152   3.424   1.714   9.791 -0.0706 -0.8651  0.5602
  177SOPE  H10120153   3.346   1.693   9.717  1.3148  3.8835 -2.4026
  177SOPE  C21120154   3.528   1.811   9.736 -0.0686 -0.2331  0.0370
  177SOPE  H11R20155   3.617   1.821   9.801 -0.8695 -0.8997  1.2535
  177SOPE  H11S20156   3.478   1.910   9.727  0.4768 -0.0293 -0.8470
  177SOPE  C21220157   3.563   1.762   9.594  0.6064 -0.2196 -0.5322
  177SOPE  H12R20158   3.594   1.656   9.593 -3.3425 -1.5002  1.3777
  177SOPE  H12S20159   3.653   1.811   9.552  0.4179 -1.0301 -1.8801
  177SOPE  C21320160   3.448   1.782   9.487 -0.0056  0.1175 -0.6353
  177SOPE  H13R20161   3.389   1.872   9.513 -0.7025  0.3357 -2.8366
  177SOPE  H13S20162   3.378   1.697   9.503  0.9818 -0.8576 -1.3318
  177SOPE  C21420163   3.502   1.784   9.341 -0.2804 -0.4533  0.3915
  177SOPE  H14R20164   3.567   1.696   9.319  0.1746 -0.1944  0.6844
  177SOPE  H14S20165   3.550   1.882   9.324 -3.2191  0.9411 -0.1426
  177SOPE  C21520166   3.383   1.788   9.238  0.7914 -0.4411  0.4587
  177SOPE  H15R20167   3.432   1.809   9.141 -1.7041  1.6208 -0.4325
  177SOPE  H15S20168   3.313   1.872   9.256  1.3533  0.0213  0.4763
  177SOPE  C21620169   3.295   1.662   9.221 -0.5453 -0.1371  0.1411
  177SOPE  H16R20170   3.260   1.626   9.320 -2.1423  1.6174  0.2377
  177SOPE  H16S20171   3.361   1.577   9.192 -0.6645  0.6204 -2.4195
  177SOPE  C21720172   3.195   1.677   9.109  0.8187 -0.1606  0.3949
  177SOPE  H17R20173   3.143   1.774   9.126  2.9115  1.0675 -0.0086
  177SOPE  H17S20174   3.125   1.590   9.111 -0.2370  0.6759  0.2572
  177SOPE  C21820175   3.257   1.658   8.971  0.1294 -0.7094  0.1497
  177SOPE  H18R20176   3.185   1.667   8.888  0.9705  0.2450 -0.4877
  177SOPE  H18S20177   3.304   1.557   8.966  0.9391 -0.3451  0.2711
  177SOPE  H18T20178   3.339   1.732   8.955 -0.6079 -0.1298 -0.9544
  177SOPE   C3320179   2.711   1.475  10.521 -0.7914 -0.0931 -0.4171
  177SOPE   H3X20180   2.701   1.434  10.623 -0.1703 -0.8266 -0.6426
  177SOPE   H3Y20181   2.786   1.411  10.469  0.4851  1.5917 -0.6926
  177SOPE   C3420182   2.578   1.449  10.454 -0.5512 -0.3431 -0.8195
  177SOPE   H4X20183   2.499   1.512  10.502  2.7882  2.8010  0.7929
  177SOPE   H4Y20184   2.564   1.342  10.481  1.8417 -0.3704  0.4914
  177SOPE   C3520185   2.571   1.479  10.305 -0.5984 -0.1312  0.4059
  177SOPE   H5X20186   2.607   1.581  10.277 -0.7280 -0.9321 -2.8154
  177SOPE   H5Y20187   2.465   1.489  10.272 -0.4991 -0.5621 -0.0451
  177SOPE   C3620188   2.646   1.372  10.220  0.0222  0.8203 -0.0421
  177SOPE   H6X20189   2.613   1.270  10.251 -2.6140  0.8478 -2.6439
  177SOPE   H6Y20190   2.755   1.376  10.241 -0.0845  0.7870  0.5223
  177SOPE   C3720191   2.628   1.384  10.072  0.5544  0.7901 -0.1087
  177SOPE   H7X20192   2.659   1.288  10.025  1.5093  2.1254 -2.2521
  177SOPE   H7Y20193   2.690   1.468  10.035  0.1442  1.3849  0.5450
  177SOPE   C3820194   2.482   1.404  10.028 -0.1117 -0.5033 -0.0325
  177SOPE   H8X20195   2.454   1.504  10.067  2.8557 -0.1261  1.3078
  177SOPE   H8Y20196   2.417   1.335  10.086  0.8362  0.3642  2.1448
  177SOPE   C3920197   2.448   1.386   9.879  0.1152  0.8481 -0.4259
  177SOPE   H9X20198   2.343   1.416   9.862  0.9276  1.9621 -3.8795
  177SOPE   H9Y20199   2.465   1.279   9.853 -0.9337  0.0767  1.9199
  177SOPE  C31020200   2.530   1.454   9.764  0.1512 -0.7511 -0.1521
  177SOPE  H10X20201   2.640   1.442   9.767  0.4815  0.3119 -4.4970
  177SOPE  H10Y20202   2.514   1.562   9.785  4.7589 -0.0755  0.3588
  177SOPE  C31120203   2.481   1.408   9.626 -0.3058  0.1339 -0.3318
  177SOPE  H11X20204   2.516   1.307   9.599  1.7216  0.4936  0.7930
  177SOPE  H11Y20205   2.534   1.476   9.557  0.2033  1.0326  0.9106
  177SOPE  C31220206   2.328   1.433   9.606  0.3989  0.1645 -0.1865
  177SOPE  H12X20207   2.311   1.528   9.659  1.7070  0.3304 -0.0364
  177SOPE  H12Y20208   2.265   1.349   9.642  2.1358 -1.4857 -0.8959
  177SOPE  C31320209   2.301   1.442   9.458 -0.1967  0.0182  0.2497
  177SOPE  H13X20210   2.304   1.340   9.413 -0.5696  0.2075 -0.2027
  177SOPE  H13Y20211   2.379   1.502   9.408 -0.1742  0.3653  0.6962
  177SOPE  C31420212   2.163   1.495   9.439 -0.2739  0.1963  0.1164
  177SOPE  H14X20213   2.159   1.603   9.464 -0.4165  0.2708 -0.2244
  177SOPE  H14Y20214   2.079   1.437   9.484 -1.2075  0.1716 -1.6150
  177SOPE  C31520215   2.137   1.489   9.280  0.5953  0.2723  0.0792
  177SOPE  H15X20216   2.154   1.386   9.242  3.6622  1.4546 -1.9193
  177SOPE  H15Y20217   2.212   1.555   9.232  0.3170 -1.0679 -2.2434
  177SOPE  C31620218   1.998   1.533   9.243 -0.1771 -0.0606  0.2771
  177SOPE  H16X20219   1.999   1.644   9.241 -0.0879 -0.0714 -1.2045
  177SOPE  H16Y20220   1.926   1.497   9.320  1.0899  0.6024  1.7836
  177SOPE  C31720221   1.946   1.481   9.111  0.3288  0.0691  0.2719
  177SOPE  H17X20222   1.838   1.504   9.103  0.2005 -0.5743  0.1442
  177SOPE  H17Y20223   1.938   1.370   9.112 -0.5126  0.0845 -1.9246
  177SOPE  C31820224   2.013   1.539   8.988 -0.3953 -0.4273  0.6544
  177SOPE  H18X20225   2.121   1.515   8.973 -0.1585  0.4678  0.8691
  177SOPE  H18Y20226   2.006   1.650   8.991  2.5352 -0.2397  2.2930
  177SOPE  H18Z20227   1.967   1.504   8.893  1.0865 -2.0254  0.4893
  178SOPE     N20228   0.656   0.144  10.993 -0.3698  0.2133  0.4084
  178SOPE   HN120229   0.679   0.052  11.034  0.4508  0.1727 -0.1389
  178SOPE   HN220230   0.680   0.220  11.059  3.0789  0.1625 -0.6954
  178SOPE   HN320231   0.553   0.141  10.977 -0.4108  0.0805  0.6904
  178SOPE   C1220232   0.732   0.158  10.856  0.4764  0.1977  0.2828
  178SOPE  H12A20233   0.840   0.151  10.882  0.3271  0.7324  1.0794
  178SOPE  H12B20234   0.714   0.260  10.817  1.4043  0.5820  0.8427
  178SOPE   C1120235   0.692   0.055  10.753  0.2676  0.4349  0.2893
  178SOPE  H11A20236   0.734   0.083  10.654 -0.4877 -0.0043 -0.1548
  178SOPE  H11B20237   0.582   0.056  10.741 -0.0448 -2.9757  2.1323
  178SOPE     P20238   0.663  -0.205  10.790  0.2152 -0.0332  0.2663
  178SOPE   O1320239   0.527  -0.187  10.852 -0.7250  0.0756 -0.1358
  178SOPE   O1420240   0.750  -0.316  10.833  0.7504  0.7415 -0.4496
  178SOPE   O1220241   0.738  -0.064  10.810  0.0614 -0.1593  0.0602
  178SOPE   O1120242   0.637  -0.207  10.637  0.1223  0.4956  0.1843
  178SOPE    C120243   0.748  -0.208  10.548 -0.6247 -0.0327  0.2551
  178SOPE    HA20244   0.841  -0.249  10.590  0.4014  1.3978 -0.5743
  178SOPE    HB20245   0.779  -0.106  10.517  2.1147 -1.1553 -0.8111
  178SOPE    C220246   0.718  -0.289  10.426  0.0351 -0.1386  0.0638
  178SOPE    HS20247   0.811  -0.319  10.373  0.7104  0.7284  0.7211
  178SOPE   O2120248   0.626  -0.222  10.332  0.3921  0.3945  0.1799
  178SOPE   C2120249   0.683  -0.116  10.271 -0.2583  0.7643 -0.1636
  178SOPE   O2220250   0.797  -0.075  10.283 -0.5236  0.2293 -0.6618
  178SOPE   C2220251   0.582  -0.073  10.164  0.3364 -0.5063 -0.9970
  178SOPE   H2R20252   0.562   0.035  10.178 -0.6135 -1.0192  2.0399
  178SOPE   H2S20253   0.487  -0.126  10.188 -0.9807  2.7074  1.3720
  178SOPE    C320254   0.651  -0.422  10.467 -0.3498  0.3783 -0.5097
  178SOPE    HX20255   0.559  -0.397  10.523 -1.4447 -1.4541 -1.4578
  178SOPE    HY20256   0.721  -0.465  10.541 -0.8077 -1.2905 -1.0374
  178SOPE   O3120257   0.625  -0.503  10.351 -0.1383  0.2462  0.1023
  178SOPE   C3120258   0.505  -0.563  10.357 -0.6429 -0.0562  0.2910
  178SOPE   O3220259   0.432  -0.576  10.453  0.2630 -1.4118  0.6583
  178SOPE   C3220260   0.475  -0.626  10.218  0.1649 -0.3657  0.1129
  178SOPE   H2X20261   0.514  -0.731  10.217  0.5148 -0.2450 -2.2567
  178SOPE   H2Y20262   0.530  -0.576  10.135  1.4522 -2.6597 -0.4719
  178SOPE   C2320263   0.627  -0.109  10.019 -1.0624 -0.1996  0.0456
  178SOPE   H3R20264   0.667  -0.212  10.023 -2.7886 -1.0089 -2.2811
  178SOPE   H3S20265   0.700  -0.029   9.993  1.0616 -1.1213  2.9419
  178SOPE   C2420266   0.512  -0.095   9.920 -1.1187 -0.2244  0.6101
  178SOPE   H4R20267   0.421  -0.150   9.952 -1.3323  1.8641  3.7847
  178SOPE   H4S20268   0.503   0.016   9.919 -0.4572 -0.1687 -1.5263
  178SOPE   C2520269   0.557  -0.135   9.778 -0.2158  0.4237  0.4808
  178SOPE   H5R20270   0.650  -0.079   9.755  0.2109 -0.1613  0.7464
  178SOPE   H5S20271   0.584  -0.243   9.786  1.6924  0.8154 -0.4404
  178SOPE   C2620272   0.463  -0.093   9.666  0.0576 -0.0341 -0.2503
  178SOPE   H6R20273   0.372  -0.156   9.676 -0.7806  1.1669 -0.2484
  178SOPE   H6S20274   0.427   0.011   9.679 -1.2051 -0.4997 -0.0151
  178SOPE   C2720275   0.515  -0.103   9.519  0.5722  0.4760 -1.0966
  178SOPE   H7R20276   0.620  -0.066   9.519  0.6985  0.2048  1.1215
  178SOPE   H7S20277   0.533  -0.209   9.491  3.0911 -0.1082  2.3481
  178SOPE   C2820278   0.412  -0.041   9.414 -1.0143  0.8111 -0.5523
  178SOPE   H8R20279   0.467  -0.059   9.319 -0.6606 -1.3273  0.0226
  178SOPE   H8S20280   0.336  -0.121   9.416  0.5363 -0.7421 -1.7588
  178SOPE   C2920281   0.350   0.095   9.431 -0.7130 -0.5070  0.0415
  178SOPE   H9120282   0.301   0.111   9.528  1.6728  1.4610  1.0057
  178SOPE  C21020283   0.340   0.192   9.335 -0.4327  0.1529 -0.3511
  178SOPE  H10120284   0.299   0.289   9.368 -0.1140  0.4834 -0.9085
  178SOPE  C21120285   0.380   0.203   9.191 -0.6812 -0.2859 -0.7837
  178SOPE  H11R20286   0.490   0.185   9.193 -0.5255  0.7362  2.6295
  178SOPE  H11S20287   0.352   0.301   9.147 -2.4404 -0.4875 -0.1680
  178SOPE  C21220288   0.323   0.085   9.105 -0.5966 -0.0926 -0.0070
  178SOPE  H12R20289   0.219   0.057   9.132 -1.2410  0.0378 -2.2671
  178SOPE  H12S20290   0.377  -0.011   9.119  0.4476  0.2079 -1.8297
  178SOPE  C21320291   0.327   0.102   8.948  0.0652 -0.4505  0.2464
  178SOPE  H13R20292   0.432   0.124   8.918 -0.1247  0.0228 -0.0667
  178SOPE  H13S20293   0.264   0.175   8.893 -1.3787 -1.1212  1.0098
  178SOPE  C21420294   0.285  -0.032   8.886  0.1166  1.2345  0.3553
  178SOPE  H14R20295   0.181  -0.040   8.925 -0.2006  0.0361 -0.6971
  178SOPE  H14S20296   0.345  -0.121   8.917  2.6754  2.4676 -0.9050
  178SOPE  C21520297   0.279  -0.031   8.732  0.9766  0.0950  0.0591
  178SOPE  H15R20298   0.379  -0.050   8.688  1.2046 -1.5050  1.2436
  178SOPE  H15S20299   0.249   0.072   8.702  0.1529  0.0027  0.5459
  178SOPE  C21620300   0.186  -0.133   8.670 -0.6453  0.1238  0.1288
  178SOPE  H16R20301   0.083  -0.094   8.685 -1.1177 -1.9028  2.5951
  178SOPE  H16S20302   0.196  -0.237   8.710  1.0420 -0.3004 -1.3285
  178SOPE  C21720303   0.207  -0.151   8.514  0.6502  0.1837  0.9240
  178SOPE  H17R20304   0.137  -0.230   8.478  1.5351 -0.0020 -0.4262
  178SOPE  H17S20305   0.309  -0.192   8.498 -0.6697 -2.3689 -1.4662
  178SOPE  C21820306   0.199  -0.029   8.425 -0.4923 -1.1454 -0.1040
  178SOPE  H18R20307   0.205  -0.059   8.319 -1.0786 -0.7202 -0.2633
  178SOPE  H18S20308   0.280   0.045   8.446 -2.2925  1.0265 -0.6430
  178SOPE  H18T20309   0.101   0.021   8.442 -0.4425 -1.1133  0.0867
  178SOPE   C3320310   0.322  -0.630  10.179  1.2634  0.2839  0.2650
  178SOPE   H3X20311   0.278  -0.688  10.263  2.0243 -0.2773  0.2798
  178SOPE   H3Y20312   0.309  -0.692  10.087 -2.1238  2.3792 -0.7616
  178SOPE   C3420313   0.254  -0.489  10.164  0.0283  0.5794 -0.3764
  178SOPE   H4X20314   0.284  -0.427  10.251 -0.8420 -0.6661  0.8286
  178SOPE   H4Y20315   0.145  -0.511  10.166  0.5315 -2.0111 -0.6987
  178SOPE   C3520316   0.299  -0.425  10.036 -0.1418  0.8901  0.0396
  178SOPE   H5X20317   0.409  -0.414  10.045 -0.1185  1.4242 -0.8468
  178SOPE   H5Y20318   0.246  -0.327  10.028  0.5651  1.3210  0.5782
  178SOPE   C3620319   0.272  -0.508   9.905  1.1589 -0.2979 -0.1859
  178SOPE   H6X20320   0.167  -0.544   9.895  1.0820  0.4291 -2.2051
  178SOPE   H6Y20321   0.342  -0.594   9.900 -1.7086 -2.7038 -0.8713
  178SOPE   C3720322   0.301  -0.423   9.779  0.5574  0.0290  0.1867
  178SOPE   H7X20323   0.409  -0.395   9.785  0.7311 -0.1612 -1.8344
  178SOPE   H7Y20324   0.246  -0.328   9.792 -0.8158 -0.9420  1.7089
  178SOPE   C3820325   0.283  -0.505   9.651  0.2902  0.5896  0.1049
  178SOPE   H8X20326   0.174  -0.522   9.641  0.6709 -0.0561 -3.8046
  178SOPE   H8Y20327   0.343  -0.599   9.649 -0.1612  0.2416  2.3939
  178SOPE   C3920328   0.318  -0.414   9.529  0.1342  0.4894  0.4120
  178SOPE   H9X20329   0.407  -0.351   9.547 -0.2451  1.6495 -1.6432
  178SOPE   H9Y20330   0.234  -0.342   9.519  0.0791  0.2343 -1.0056
  178SOPE  C31020331   0.338  -0.494   9.397  0.3821 -0.3351 -1.1998
  178SOPE  H10X20332   0.258  -0.570   9.389  0.8723 -1.1649  1.3791
  178SOPE  H10Y20333   0.437  -0.545   9.400  0.3884 -0.3270 -1.2721
  178SOPE  C31120334   0.343  -0.400   9.277  0.0837 -0.5873  1.4396
  178SOPE  H11X20335   0.430  -0.331   9.288 -0.8225  0.6458  0.9795
  178SOPE  H11Y20336   0.252  -0.337   9.267 -0.0627 -1.1354 -0.8647
  178SOPE  C31220337   0.365  -0.477   9.146 -0.0281  0.4695 -0.2081
  178SOPE  H12X20338   0.282  -0.546   9.122  0.9509 -0.6546 -0.4115
  178SOPE  H12Y20339   0.461  -0.531   9.164 -1.6320 -2.5948 -0.6572
  178SOPE  C31320340   0.396  -0.390   9.030  0.4558 -0.9274  0.2243
  178SOPE  H13X20341   0.484  -0.325   9.049  0.4136 -0.7715 -0.1107
  178SOPE  H13Y20342   0.310  -0.327   8.999 -1.0811 -2.2428  1.7453
  178SOPE  C31420343   0.448  -0.458   8.906 -0.0958 -0.4311  0.2356
  178SOPE  H14X20344   0.369  -0.526   8.868 -1.4157 -0.3349  2.6542
  178SOPE  H14Y20345   0.534  -0.520   8.940  1.6892  2.2835  0.8976
  178SOPE  C31520346   0.491  -0.357   8.795  0.0046  0.0309 -0.6377
  178SOPE  H15X20347   0.566  -0.280   8.822 -0.0865 -0.1741  0.2241
  178SOPE  H15Y20348   0.394  -0.311   8.765 -0.4613 -1.0480 -0.8435
  178SOPE  C31620349   0.542  -0.447   8.683 -0.4093 -0.1716  0.1805
  178SOPE  H16X20350   0.469  -0.529   8.667 -1.6715  0.9542  0.0938
  178SOPE  H16Y20351   0.630  -0.500   8.727 -0.7973 -0.4054  0.6813
  178SOPE  C31720352   0.570  -0.366   8.559 -0.4413  0.5711 -0.2291
  178SOPE  H17X20353   0.471  -0.333   8.521 -0.5824 -2.3946 -2.6318
  178SOPE  H17Y20354   0.605  -0.436   8.480  0.0896 -1.6834  1.8940
  178SOPE  C31820355   0.660  -0.244   8.569  0.1160 -0.6648 -0.3305
  178SOPE  H18X20356   0.589  -0.176   8.620  0.0096  0.0894 -1.4701
  178SOPE  H18Y20357   0.682  -0.194   8.473 -1.3761 -1.0899 -0.9050
  178SOPE  H18Z20358   0.745  -0.243   8.640 -0.1237 -0.9930 -0.0351
  179SOPE     N20359   6.217   0.302   6.538 -0.1067  0.6027  0.0103
  179SOPE   HN120360   6.216   0.199   6.524 -0.5841  0.6704 -0.4575
  179SOPE   HN220361   6.291   0.319   6.608  1.1427 -0.2703 -1.0557
  179SOPE   HN320362   6.130   0.334   6.585 -1.3006  0.7781 -2.2464
  179SOPE   C1220363   6.249   0.389   6.415 -0.4006 -0.3640 -0.6228
  179SOPE  H12A20364   6.170   0.385   6.337 -0.0419  0.3220 -1.0222
  179SOPE  H12B20365   6.339   0.343   6.369  0.5723 -0.2149  1.0748
  179SOPE   C1120366   6.273   0.528   6.462  0.6799  0.1485  0.2953
  179SOPE  H11A20367   6.187   0.559   6.525 -0.8833  0.8173 -2.1013
  179SOPE  H11B20368   6.278   0.605   6.381  1.2645 -0.5374 -0.3288
  179SOPE     P20369   6.517   0.614   6.516 -0.1679  0.1987 -0.0502
  179SOPE   O1320370   6.552   0.628   6.373  0.0613 -0.1603  0.6061
  179SOPE   O1420371   6.629   0.554   6.592  0.9396 -0.2280 -0.0552
  179SOPE   O1220372   6.384   0.531   6.540 -0.0704 -0.2585 -0.2866
  179SOPE   O1120373   6.470   0.755   6.574  0.5353  0.3096 -0.4304
  179SOPE    C120374   6.564   0.862   6.582 -0.3657 -0.5813  0.2607
  179SOPE    HA20375   6.504   0.956   6.587  0.6368  0.1755 -1.5709
  179SOPE    HB20376   6.626   0.859   6.490 -0.4412  0.1356  0.1805
  179SOPE    C220377   6.655   0.860   6.708  0.1692  0.7157 -0.1027
  179SOPE    HS20378   6.736   0.788   6.685  0.4757  1.6923 -2.1600
  179SOPE   O2120379   6.570   0.827   6.817  0.6911 -0.1918  0.6340
  179SOPE   C2120380   6.633   0.767   6.919 -0.4594  0.1736  0.2182
  179SOPE   O2220381   6.753   0.743   6.936 -0.3768 -0.0901  0.4260
  179SOPE   C2220382   6.519   0.733   7.021  0.6800 -0.6378  0.5080
  179SOPE   H2R20383   6.450   0.671   6.959  1.2765 -2.1894  1.3631
  179SOPE   H2S20384   6.462   0.825   7.045  0.5075 -0.8613  0.9621
  179SOPE    C320385   6.718   0.997   6.732 -0.0805 -0.1555  0.3728
  179SOPE    HX20386   6.635   1.069   6.716  0.4640  0.2508 -0.6152
  179SOPE    HY20387   6.795   1.012   6.654 -0.4872  1.9657  0.3543
  179SOPE   O3120388   6.762   1.009   6.869 -0.2248 -0.0450  0.6052
  179SOPE   C3120389   6.892   0.998   6.893 -0.2820  0.1496  0.1118
  179SOPE   O3220390   6.973   0.966   6.808 -0.6648  0.4857 -0.3657
  179SOPE   C3220391   6.923   1.006   7.046 -0.0850 -0.6692  0.5268
  179SOPE   H2X20392   6.985   1.092   7.078 -1.9108  1.0303 -0.4411
  179SOPE   H2Y20393   6.976   0.914   7.079  0.6959 -0.7127 -0.8121
  179SOPE   C2320394   6.564   0.657   7.153 -0.1230 -0.4434 -0.1648
  179SOPE   H3R20395   6.659   0.693   7.199 -1.0011  0.1716  1.2093
  179SOPE   H3S20396   6.578   0.554   7.115  2.0895  0.2084 -1.1952
  179SOPE   C2420397   6.458   0.664   7.262  0.7149 -0.2222 -0.1385
  179SOPE   H4R20398   6.425   0.770   7.262 -1.1523 -0.7728  0.4225
  179SOPE   H4S20399   6.370   0.600   7.236 -1.5246  2.4940  0.5150
  179SOPE   C2520400   6.496   0.612   7.399  0.0766  0.6283  0.1890
  179SOPE   H5R20401   6.497   0.501   7.401  0.3986  0.6226 -0.1183
  179SOPE   H5S20402   6.601   0.647   7.415  0.6840 -0.1630 -1.7994
  179SOPE   C2620403   6.414   0.667   7.510 -0.4575  0.2873  0.6855
  179SOPE   H6R20404   6.421   0.777   7.523 -1.4563  0.5064 -0.4709
  179SOPE   H6S20405   6.306   0.656   7.486 -0.4764 -0.2057  0.9923
  179SOPE   C2720406   6.432   0.587   7.637 -0.0851 -0.6665  0.0216
  179SOPE   H7R20407   6.421   0.477   7.628 -0.1683 -0.7222  0.7586
  179SOPE   H7S20408   6.541   0.596   7.653  0.0930 -0.9820 -0.9796
  179SOPE   C2820409   6.331   0.636   7.746  0.7873 -0.0179  0.1867
  179SOPE   H8R20410   6.231   0.597   7.717  1.5011 -1.1206 -0.8583
  179SOPE   H8S20411   6.360   0.571   7.832  0.0252  1.2726  1.4337
  179SOPE   C2920412   6.315   0.780   7.762  0.1119  0.6279 -0.4602
  179SOPE   H9120413   6.288   0.835   7.670 -0.7995 -3.3784 -2.7101
  179SOPE  C21020414   6.312   0.845   7.878  0.0262 -0.4553  0.3425
  179SOPE  H10120415   6.294   0.953   7.869 -1.1683 -0.6616  0.1975
  179SOPE  C21120416   6.331   0.782   8.017 -0.1767  0.0458 -0.0601
  179SOPE  H11R20417   6.339   0.852   8.102 -0.6975 -0.9951  0.8606
  179SOPE  H11S20418   6.430   0.732   8.019 -0.2939 -0.1654  0.7905
  179SOPE  C21220419   6.230   0.672   8.059 -0.4882  0.5939  1.0994
  179SOPE  H12R20420   6.204   0.610   7.970 -1.6761 -0.2623  2.0205
  179SOPE  H12S20421   6.130   0.714   8.083  0.0872  1.9783  1.1277
  179SOPE  C21320422   6.283   0.567   8.161  0.3755  0.4890 -0.1264
  179SOPE  H13R20423   6.394   0.560   8.150  0.3794  0.2279  0.0997
  179SOPE  H13S20424   6.233   0.469   8.147 -0.3018  0.8206 -0.0485
  179SOPE  C21420425   6.238   0.611   8.300  0.0684  0.7913 -0.3050
  179SOPE  H14R20426   6.133   0.591   8.327  0.6565  0.4097  1.7654
  179SOPE  H14S20427   6.255   0.720   8.310 -1.3578  0.8731  1.3625
  179SOPE  C21520428   6.316   0.547   8.419 -0.0378 -0.3726 -0.1600
  179SOPE  H15R20429   6.420   0.586   8.407  0.6147 -1.1924  2.4566
  179SOPE  H15S20430   6.303   0.437   8.408  1.2811 -0.5782  0.1764
  179SOPE  C21620431   6.255   0.586   8.554  0.2155 -0.4637 -0.9070
  179SOPE  H16R20432   6.149   0.555   8.561  0.1857  0.0954  1.5159
  179SOPE  H16S20433   6.260   0.696   8.571  2.2855 -0.5878 -0.4958
  179SOPE  C21720434   6.332   0.532   8.674 -0.2124  0.5510  0.2828
  179SOPE  H17R20435   6.265   0.550   8.760 -1.1891  0.8436 -0.5205
  179SOPE  H17S20436   6.419   0.600   8.679 -0.9311  1.5733 -0.6737
  179SOPE  C21820437   6.366   0.379   8.666 -0.4909  0.0548 -0.0312
  179SOPE  H18R20438   6.280   0.310   8.654  0.3130 -1.1616  1.1056
  179SOPE  H18S20439   6.432   0.342   8.748  0.1299 -0.2933 -0.6836
  179SOPE  H18T20440   6.432   0.374   8.577  0.6227  0.3893  0.7578
  179SOPE   C3320441   6.794   1.017   7.128 -0.4228  0.1791  0.5412
  179SOPE   H3X20442   6.728   0.931   7.104 -1.2721  1.0045 -0.1034
  179SOPE   H3Y20443   6.753   1.116   7.099  0.2851  0.9599  2.1086
  179SOPE   C3420444   6.822   1.015   7.278  0.8817  0.3456  0.4928
  179SOPE   H4X20445   6.897   1.089   7.313  0.3898  0.9619  0.2513
  179SOPE   H4Y20446   6.862   0.911   7.282 -0.8091 -0.4858 -2.4289
  179SOPE   C3520447   6.699   1.025   7.364  0.9852  0.2707 -0.2347
  179SOPE   H5X20448   6.608   0.981   7.317 -0.2925  4.1586 -1.5560
  179SOPE   H5Y20449   6.686   1.132   7.389  0.3770  0.1282  0.0691
  179SOPE   C3620450   6.720   0.953   7.498  0.1848  0.2590  0.3628
  179SOPE   H6X20451   6.714   0.842   7.498  0.5952  0.2355  0.3863
  179SOPE   H6Y20452   6.631   0.968   7.563 -0.5568 -3.6936  0.3999
  179SOPE   C3720453   6.838   1.002   7.581  0.0677  0.1023  0.8694
  179SOPE   H7X20454   6.842   1.112   7.600 -2.6677  0.5287 -0.7850
  179SOPE   H7Y20455   6.932   0.971   7.531 -0.1435  0.3693  0.3053
  179SOPE   C3820456   6.842   0.933   7.719 -0.0831 -0.7236  0.7616
  179SOPE   H8X20457   6.949   0.932   7.752  0.9613  0.6651 -2.4330
  179SOPE   H8Y20458   6.820   0.824   7.711  0.6423 -0.7598 -0.9327
  179SOPE   C3920459   6.743   0.984   7.817  0.5446 -0.6745 -0.2901
  179SOPE   H9X20460   6.641   0.967   7.778  0.4174  0.1351 -0.3076
  179SOPE   H9Y20461   6.763   1.092   7.830 -1.2519 -0.3787  0.1166
  179SOPE  C31020462   6.761   0.898   7.945 -0.5633 -0.1340 -0.1793
  179SOPE  H10X20463   6.868   0.891   7.972 -0.8035 -3.1611  0.1508
  179SOPE  H10Y20464   6.721   0.795   7.932 -1.2517 -0.2497  2.6780
  179SOPE  C31120465   6.682   0.952   8.060 -0.0040 -0.1638  0.1648
  179SOPE  H11X20466   6.574   0.969   8.038  0.1968  1.8954  0.6302
  179SOPE  H11Y20467   6.725   1.053   8.077 -0.3316 -0.2521  1.6418
  179SOPE  C31220468   6.702   0.884   8.191  0.1952 -0.2582 -0.0063
  179SOPE  H12X20469   6.807   0.874   8.225 -0.0779 -0.0199  0.9310
  179SOPE  H12Y20470   6.654   0.784   8.186 -0.5998  0.1329 -0.3291
  179SOPE  C31320471   6.620   0.955   8.305  0.1500 -0.0920  0.4753
  179SOPE  H13X20472   6.517   0.975   8.268  0.6803 -0.3065 -1.1169
  179SOPE  H13Y20473   6.669   1.051   8.331 -1.3643  1.0074 -0.6139
  179SOPE  C31420474   6.605   0.877   8.438  0.0142  0.2870  0.4050
  179SOPE  H14X20475   6.704   0.855   8.483  0.9414 -0.1435 -1.7647
  179SOPE  H14Y20476   6.569   0.780   8.399 -1.0858  1.1020 -0.6638
  179SOPE  C31520477   6.498   0.927   8.534  0.3992  0.5276  0.2036
  179SOPE  H15X20478   6.466   0.845   8.602  1.0078 -1.0175 -1.3325
  179SOPE  H15Y20479   6.416   0.975   8.477  0.0449 -0.3107  0.0035
  179SOPE  C31620480   6.535   1.047   8.626 -0.3789 -0.3966  0.2616
  179SOPE  H16X20481   6.571   1.125   8.555 -2.9517 -0.9215 -1.6760
  179SOPE  H16Y20482   6.622   1.019   8.690  0.7284  0.4561 -0.8427
  179SOPE  C31720483   6.422   1.097   8.717 -0.3902 -0.5169 -0.2864
  179SOPE  H17X20484   6.351   1.154   8.654  0.9964  0.8565 -0.6561
  179SOPE  H17Y20485   6.471   1.179   8.775  1.1303 -0.0438 -2.1785
  179SOPE  C31820486   6.373   1.006   8.827  0.0019  0.5206 -0.3470
  179SOPE  H18X20487   6.292   1.054   8.887 -0.6100 -0.8530 -0.0514
  179SOPE  H18Y20488   6.458   0.986   8.896  1.9183  3.1546 -1.8549
  179SOPE  H18Z20489   6.323   0.918   8.780  0.7288 -0.1641  0.1461
  180SOPE     N20490   5.221   0.793   6.179 -0.6401 -0.1388 -0.5608
  180SOPE   HN120491   5.187   0.872   6.120 -0.0188  2.3682  2.2975
  180SOPE   HN220492   5.225   0.826   6.277  3.2140  1.7892 -1.2774
  180SOPE   HN320493   5.314   0.760   6.148 -0.4956 -1.8192  1.5256
  180SOPE   C1220494   5.136   0.669   6.174  0.0337 -0.1227  0.1311
  180SOPE  H12A20495   5.042   0.698   6.120  2.0390  0.4588 -3.2033
  180SOPE  H12B20496   5.112   0.640   6.278 -0.6542  0.5470  0.1653
  180SOPE   C1120497   5.209   0.558   6.093  0.2303  0.5357  0.2924
  180SOPE  H11A20498   5.223   0.589   5.987 -0.8402  1.3101  0.3664
  180SOPE  H11B20499   5.151   0.463   6.080  1.1451 -0.1894  1.3949
  180SOPE     P20500   5.348   0.401   6.254  0.0167 -0.2505  0.0772
  180SOPE   O1320501   5.482   0.403   6.319 -0.0773 -0.0458  0.5307
  180SOPE   O1420502   5.308   0.276   6.185 -0.0718 -0.0980 -1.0520
  180SOPE   O1220503   5.330   0.517   6.149 -0.7568 -0.2692  0.4553
  180SOPE   O1120504   5.241   0.426   6.371 -0.7723  0.1460  0.3350
  180SOPE    C120505   5.267   0.526   6.472  0.4574 -0.4956  0.0019
  180SOPE    HA20506   5.169   0.570   6.500  1.4182 -0.5051  3.6743
  180SOPE    HB20507   5.330   0.607   6.431 -0.5312  0.5005  0.4252
  180SOPE    C220508   5.324   0.455   6.597  0.4395 -0.4418  0.3211
  180SOPE    HS20509   5.421   0.417   6.559  0.3840 -0.3239  0.0629
  180SOPE   O2120510   5.236   0.348   6.632 -0.3077 -0.1851 -0.3714
  180SOPE   C2120511   5.304   0.231   6.659  0.0517 -0.7223 -0.8487
  180SOPE   O2220512   5.424   0.219   6.647 -0.0657  0.4085 -0.3565
  180SOPE   C2220513   5.207   0.128   6.704 -0.7427 -0.2433  0.1382
  180SOPE   H2R20514   5.250   0.025   6.698  0.6975  0.2921  0.9410
  180SOPE   H2S20515   5.132   0.136   6.622 -1.1610 -1.2279  0.4164
  180SOPE    C320516   5.342   0.552   6.715  0.9653 -0.1275  0.2395
  180SOPE    HX20517   5.240   0.584   6.747  1.4483  0.3848  1.3120
  180SOPE    HY20518   5.399   0.633   6.664 -1.6559  0.8567 -1.1797
  180SOPE   O3120519   5.418   0.495   6.817  0.3328  0.1030  0.1680
  180SOPE   C3120520   5.409   0.551   6.936 -0.2952 -0.0662 -0.5286
  180SOPE   O3220521   5.339   0.648   6.960 -0.4542 -0.3204 -0.1740
  180SOPE   C3220522   5.506   0.475   7.028 -0.1917 -0.2400  0.1937
  180SOPE   H2X20523   5.600   0.534   7.034  0.1186 -0.6435 -0.5610
  180SOPE   H2Y20524   5.532   0.371   6.997  0.9078 -0.0207  0.3645
  180SOPE   C2320525   5.146   0.160   6.841 -0.5676  0.0595 -0.1661
  180SOPE   H3R20526   5.065   0.085   6.858 -0.6429  0.0907 -0.3886
  180SOPE   H3S20527   5.101   0.262   6.836 -0.9673 -0.1661 -1.2304
  180SOPE   C2420528   5.245   0.147   6.958 -0.5856 -0.6147  0.2291
  180SOPE   H4R20529   5.333   0.081   6.938 -0.8450 -1.1805  0.9165
  180SOPE   H4S20530   5.293   0.245   6.979  0.9258 -0.8534 -1.9291
  180SOPE   C2520531   5.179   0.090   7.086 -0.9942  0.6902  0.1921
  180SOPE   H5R20532   5.082   0.143   7.097 -0.9503  1.8296 -3.9225
  180SOPE   H5S20533   5.160  -0.017   7.063  1.9157  0.1995 -0.1045
  180SOPE   C2620534   5.263   0.085   7.213 -0.3916  0.3035 -0.3325
  180SOPE   H6R20535   5.364   0.045   7.189  0.8371  1.0229  3.2639
  180SOPE   H6S20536   5.272   0.192   7.241 -0.9346  0.7605 -1.8726
  180SOPE   C2720537   5.215  -0.008   7.331 -0.1345 -0.2253 -0.4697
  180SOPE   H7R20538   5.139   0.032   7.401 -0.6973 -0.1897 -1.0961
  180SOPE   H7S20539   5.167  -0.094   7.279 -0.2575  0.1900 -1.0523
  180SOPE   C2820540   5.326  -0.061   7.420  0.3205 -0.2937  0.2725
  180SOPE   H8R20541   5.276  -0.147   7.468 -1.3864  1.2746  1.3462
  180SOPE   H8S20542   5.405  -0.108   7.358 -1.2061 -2.1763 -0.2926
  180SOPE   C2920543   5.383   0.042   7.519 -0.0784 -0.9776 -0.0920
  180SOPE   H9120544   5.443   0.121   7.470  0.5576  1.7264  4.7467
  180SOPE  C21020545   5.371   0.058   7.652  0.4140  0.0053 -0.3516
  180SOPE  H10120546   5.413   0.148   7.699  0.2039  0.2827 -0.6950
  180SOPE  C21120547   5.306  -0.035   7.754 -0.2918 -0.0081 -0.5393
  180SOPE  H11R20548   5.320  -0.138   7.716  1.4008 -0.0914  0.2417
  180SOPE  H11S20549   5.199  -0.008   7.767 -0.2090 -0.6658  1.6015
  180SOPE  C21220550   5.376  -0.016   7.891  0.1143 -0.0579  0.2213
  180SOPE  H12R20551   5.384   0.092   7.916 -1.0601 -0.4284  2.3206
  180SOPE  H12S20552   5.476  -0.064   7.884  0.0689  0.2330 -2.9791
  180SOPE  C21320553   5.297  -0.086   8.001 -1.1397  0.2567  0.0287
  180SOPE  H13R20554   5.278  -0.192   7.973 -0.8221  0.0973  0.4086
  180SOPE  H13S20555   5.205  -0.025   8.002 -0.6500  0.9942  3.1082
  180SOPE  C21420556   5.367  -0.059   8.139  0.1094 -0.1759 -0.0932
  180SOPE  H14R20557   5.288  -0.070   8.217  0.3614  0.8728  0.3184
  180SOPE  H14S20558   5.405   0.044   8.153 -1.9116  0.4242  1.2863
  180SOPE  C21520559   5.487  -0.151   8.164 -0.2558 -0.5122 -0.3731
  180SOPE  H15R20560   5.582  -0.131   8.110  0.5415 -0.0778  1.1587
  180SOPE  H15S20561   5.454  -0.254   8.137 -0.0574 -0.6425 -0.1215
  180SOPE  C21620562   5.517  -0.166   8.312 -0.6778 -0.7218 -0.4799
  180SOPE  H16R20563   5.428  -0.216   8.359 -0.4561 -0.3851  0.3071
  180SOPE  H16S20564   5.542  -0.070   8.361 -2.4376 -0.6661  0.3527
  180SOPE  C21720565   5.641  -0.256   8.330  0.4937 -0.7204  0.3722
  180SOPE  H17R20566   5.732  -0.208   8.289  1.0977 -1.4297  0.8716
  180SOPE  H17S20567   5.620  -0.340   8.261 -2.9204  0.8928 -0.6686
  180SOPE  C21820568   5.674  -0.300   8.469 -0.6665  0.4589 -0.5142
  180SOPE  H18R20569   5.766  -0.358   8.447 -0.7551  0.1756 -0.1376
  180SOPE  H18S20570   5.602  -0.374   8.510 -0.5250  0.2959 -0.5589
  180SOPE  H18T20571   5.697  -0.214   8.536  1.7993 -0.6221  0.0698
  180SOPE   C3320572   5.441   0.473   7.168 -0.4589 -0.3156 -0.1103
  180SOPE   H3X20573   5.344   0.419   7.167 -1.4356  1.2909  2.0395
  180SOPE   H3Y20574   5.439   0.577   7.207 -1.6011 -0.0339 -0.8908
  180SOPE   C3420575   5.524   0.384   7.270  0.3676  0.9509 -0.1815
  180SOPE   H4X20576   5.634   0.391   7.254  0.1702  1.6996 -1.3525
  180SOPE   H4Y20577   5.496   0.279   7.250 -1.5011  1.5380 -0.7823
  180SOPE   C3520578   5.494   0.428   7.412  0.3067  0.0986 -0.5919
  180SOPE   H5X20579   5.406   0.381   7.461  0.0159  2.4005  1.1738
  180SOPE   H5Y20580   5.475   0.538   7.414 -0.5426 -0.0499 -0.3513
  180SOPE   C3620581   5.622   0.427   7.504 -0.8625 -0.2070 -0.3323
  180SOPE   H6X20582   5.707   0.479   7.456 -0.2571 -1.4451 -0.6348
  180SOPE   H6Y20583   5.654   0.330   7.548 -0.5936 -0.7965 -1.7990
  180SOPE   C3720584   5.578   0.504   7.634 -0.4484 -0.6759  0.0858
  180SOPE   H7X20585   5.483   0.469   7.680 -1.7401 -0.5879 -2.4739
  180SOPE   H7Y20586   5.563   0.613   7.619  1.7978 -0.5508 -1.5398
  180SOPE   C3820587   5.683   0.483   7.749 -0.0557  0.4002  1.0835
  180SOPE   H8X20588   5.779   0.516   7.704 -0.4499 -1.2633 -1.0504
  180SOPE   H8Y20589   5.680   0.373   7.763 -0.2738  0.1006 -1.1864
  180SOPE   C3920590   5.647   0.541   7.884  0.5694  0.0871 -0.3588
  180SOPE   H9X20591   5.544   0.507   7.907 -0.2001  0.9528 -2.4449
  180SOPE   H9Y20592   5.643   0.651   7.872 -1.0431  0.1109  0.2463
  180SOPE  C31020593   5.727   0.492   8.006  0.1643 -0.1900 -0.3615
  180SOPE  H10X20594   5.837   0.506   7.996  0.1880 -0.7263 -0.8442
  180SOPE  H10Y20595   5.719   0.382   8.015  1.6303 -0.3014 -0.2978
  180SOPE  C31120596   5.663   0.537   8.136 -0.2594 -0.1529 -0.1434
  180SOPE  H11X20597   5.563   0.491   8.152  0.5371 -1.0942  2.3093
  180SOPE  H11Y20598   5.648   0.647   8.127 -0.8420 -0.1950  0.2862
  180SOPE  C31220599   5.733   0.488   8.263  0.3385 -0.3726 -0.3276
  180SOPE  H12X20600   5.830   0.534   8.291 -0.8855  2.6538 -0.8305
  180SOPE  H12Y20601   5.739   0.377   8.263  0.9257 -0.3692 -3.0638
  180SOPE  C31320602   5.635   0.529   8.379 -0.1331  0.2185 -0.1436
  180SOPE  H13X20603   5.526   0.518   8.359  0.1269  0.2376 -1.6032
  180SOPE  H13Y20604   5.641   0.639   8.388 -1.0105  0.4157 -1.7232
  180SOPE  C31420605   5.671   0.472   8.515  1.0004  0.2632  0.4845
  180SOPE  H14X20606   5.646   0.541   8.599 -0.5188  1.2541 -0.7561
  180SOPE  H14Y20607   5.779   0.451   8.528  1.0546 -0.0644 -0.4606
  180SOPE  C31520608   5.599   0.346   8.549 -0.1238  0.8020  0.2490
  180SOPE  H15X20609   5.631   0.270   8.475  1.1157  1.1040  0.4628
  180SOPE  H15Y20610   5.491   0.359   8.527 -0.0522  0.7360 -0.1406
  180SOPE  C31620611   5.626   0.302   8.688  0.4156 -0.1839 -0.2252
  180SOPE  H16X20612   5.610   0.385   8.760 -0.7601 -0.6880  0.1139
  180SOPE  H16Y20613   5.729   0.261   8.698  0.0081 -1.2344 -0.2341
  180SOPE  C31720614   5.524   0.194   8.737 -0.5685  0.1747 -0.2322
  180SOPE  H17X20615   5.427   0.244   8.719 -0.6954  0.3549  0.9359
  180SOPE  H17Y20616   5.525   0.160   8.843 -0.6144 -2.1291 -0.9515
  180SOPE  C31820617   5.523   0.068   8.648  0.2893  0.3334 -0.0757
  180SOPE  H18X20618   5.492   0.097   8.545  0.1451  1.8411  0.3843
  180SOPE  H18Y20619   5.434   0.016   8.690  1.5701  2.4682  5.6954
  180SOPE  H18Z20620   5.613   0.003   8.651  0.5822  0.7887  2.1517
  181SOPE     N20621   5.136   5.424   6.287 -0.3474 -0.2882  0.3635
  181SOPE   HN120622   5.081   5.398   6.371  1.2801 -0.9873  1.2348
  181SOPE   HN220623   5.227   5.374   6.282  0.5460  1.0342  2.8765
  181SOPE   HN320624   5.146   5.527   6.296  1.7894 -0.3093 -1.3670
  181SOPE   C1220625   5.046   5.404   6.169 -0.3479  0.4608  0.8893
  181SOPE  H12A20626   5.100   5.442   6.080 -0.1513  0.9498  1.2110
  181SOPE  H12B20627   4.958   5.470   6.188  0.2654  1.2605  0.9993
  181SOPE   C1120628   4.994   5.258   6.157 -0.0152 -0.1275  0.3720
  181SOPE  H11A20629   4.919   5.269   6.075 -1.0768  2.9070  1.6714
  181SOPE  H11B20630   4.942   5.223   6.248  3.7004 -0.4961  2.4381
  181SOPE     P20631   5.081   5.021   6.128  0.1986  0.0386 -0.2545
  181SOPE   O1320632   5.208   4.960   6.081  0.0616 -0.4128 -0.5981
  181SOPE   O1420633   4.971   4.984   6.039 -0.0973  0.1400  0.1417
  181SOPE   O1220634   5.100   5.170   6.119  0.8283  0.6307  0.3748
  181SOPE   O1120635   5.053   4.971   6.276  0.0659 -0.0799  0.0385
  181SOPE    C120636   5.122   5.043   6.382  0.1186 -0.6327 -0.2883
  181SOPE    HA20637   5.046   5.108   6.431 -0.5087 -3.0689  2.0408
  181SOPE    HB20638   5.210   5.104   6.352  0.1747 -1.3795 -1.6907
  181SOPE    C220639   5.163   4.940   6.485  0.0869  0.3191 -0.2748
  181SOPE    HS20640   5.234   4.871   6.436  1.1670  0.9119  0.4151
  181SOPE   O2120641   5.044   4.877   6.533  0.0400 -0.1640 -0.2097
  181SOPE   C2120642   5.047   4.755   6.585  0.3561  0.1897 -0.5218
  181SOPE   O2220643   5.148   4.684   6.583  0.0262  0.5328  0.2255
  181SOPE   C2220644   4.916   4.732   6.659 -0.1641  0.6892  0.4316
  181SOPE   H2R20645   4.865   4.668   6.584 -1.9127 -0.6186  2.6671
  181SOPE   H2S20646   4.870   4.831   6.678 -0.1305  0.8856 -0.5353
  181SOPE    C320647   5.237   5.006   6.605  0.1157  0.0483  0.6433
  181SOPE    HX20648   5.160   5.076   6.642  0.8775  0.6519  1.1045
  181SOPE    HY20649   5.325   5.065   6.571 -0.5759  0.8021  0.1736
  181SOPE   O3120650   5.276   4.911   6.706  0.9734 -0.6716 -0.3270
  181SOPE   C3120651   5.382   4.828   6.688 -0.4415 -0.4365 -0.2930
  181SOPE   O3220652   5.454   4.833   6.588  0.2700  0.2281  0.0308
  181SOPE   C3220653   5.412   4.745   6.812 -0.0783  0.5857 -0.7531
  181SOPE   H2X20654   5.499   4.682   6.785 -0.6141 -0.1260 -0.8223
  181SOPE   H2Y20655   5.331   4.676   6.843  1.0959  0.2966  1.8308
  181SOPE   C2320656   4.930   4.665   6.802  0.3085  0.4344  0.2124
  181SOPE   H3R20657   4.994   4.574   6.794 -1.6715 -0.9415 -0.4653
  181SOPE   H3S20658   4.825   4.647   6.831 -0.8322  2.0303 -2.6925
  181SOPE   C2420659   4.964   4.757   6.918  0.4848  0.0284  0.5105
  181SOPE   H4R20660   5.069   4.781   6.889  0.3563  0.2664  0.2400
  181SOPE   H4S20661   4.905   4.851   6.909  0.6887 -0.0417 -1.8237
  181SOPE   C2520662   4.947   4.700   7.058 -0.4290 -0.5008  0.2850
  181SOPE   H5R20663   4.840   4.674   7.069 -0.6216 -0.0252 -0.4125
  181SOPE   H5S20664   5.006   4.610   7.084 -0.0159 -0.2585  0.1858
  181SOPE   C2620665   4.979   4.800   7.165  0.0300  0.8862 -0.6210
  181SOPE   H6R20666   5.083   4.839   7.165  0.1656  0.5414 -0.0518
  181SOPE   H6S20667   4.918   4.891   7.144  2.2960  2.3711 -0.9400
  181SOPE   C2720668   4.945   4.750   7.302  0.3490 -0.4985 -0.0376
  181SOPE   H7R20669   4.837   4.723   7.311  0.4215 -0.5540  0.6432
  181SOPE   H7S20670   4.998   4.657   7.332 -0.8989 -0.4981  2.3037
  181SOPE   C2820671   4.969   4.856   7.416 -0.6425 -0.3907 -0.1756
  181SOPE   H8R20672   4.930   4.798   7.503  0.1855  0.3976  0.7241
  181SOPE   H8S20673   5.080   4.863   7.420 -0.5533  0.9073 -3.2507
  181SOPE   C2920674   4.895   4.989   7.417  0.4603  0.2102  0.0034
  181SOPE   H9120675   4.850   5.011   7.319  0.9359 -2.3723 -0.8494
  181SOPE  C21020676   4.847   5.056   7.522 -0.5827  0.1405  0.1364
  181SOPE  H10120677   4.792   5.148   7.498  0.6004  0.3454 -1.8804
  181SOPE  C21120678   4.872   5.021   7.667 -0.1219 -0.4650  0.6681
  181SOPE  H11R20679   4.923   5.108   7.714  0.1322 -0.1675 -0.1487
  181SOPE  H11S20680   4.941   4.934   7.674  0.0346 -0.3856  0.0913
  181SOPE  C21220681   4.750   4.964   7.748  0.3330 -0.9303  0.1517
  181SOPE  H12R20682   4.705   4.895   7.672  2.6860 -3.3440  0.8669
  181SOPE  H12S20683   4.677   5.046   7.760 -0.5881 -1.8990  1.3235
  181SOPE  C21320684   4.793   4.904   7.883 -0.1206 -0.5220 -0.0164
  181SOPE  H13R20685   4.808   4.990   7.952 -0.8848 -0.4795  0.0980
  181SOPE  H13S20686   4.891   4.860   7.857 -0.5687 -0.3293 -2.0992
  181SOPE  C21420687   4.686   4.825   7.948 -0.0192  0.0578  1.2037
  181SOPE  H14R20688   4.649   4.741   7.885  0.3968 -0.1986  1.3036
  181SOPE  H14S20689   4.593   4.884   7.965 -0.3003  0.5753 -1.8189
  181SOPE  C21520690   4.741   4.777   8.085 -0.1285 -0.6032  0.2618
  181SOPE  H15R20691   4.755   4.865   8.152  0.3803 -0.3834 -0.1307
  181SOPE  H15S20692   4.841   4.734   8.066  0.4688  1.3904 -1.3234
  181SOPE  C21620693   4.653   4.680   8.165 -0.3071  0.6799 -0.2473
  181SOPE  H16R20694   4.664   4.590   8.100  0.6465 -1.2706  2.4872
  181SOPE  H16S20695   4.554   4.725   8.187  0.5144  1.4308  2.1184
  181SOPE  C21720696   4.724   4.630   8.300  0.0857 -0.1826 -0.2133
  181SOPE  H17R20697   4.738   4.711   8.375  0.2575 -0.1831 -0.2446
  181SOPE  H17S20698   4.833   4.616   8.283  0.2312  0.9435 -0.2553
  181SOPE  C21820699   4.649   4.518   8.364  0.3546  0.2127 -0.1461
  181SOPE  H18R20700   4.715   4.471   8.439 -2.7431 -3.7108  0.3037
  181SOPE  H18S20701   4.616   4.445   8.287  2.3361 -1.1414  0.2572
  181SOPE  H18T20702   4.559   4.557   8.417 -0.8061 -0.3687 -1.6344
  181SOPE   C3320703   5.441   4.833   6.941 -0.2957 -0.3147 -0.0617
  181SOPE   H3X20704   5.373   4.920   6.931  0.0466  0.1041  1.1921
  181SOPE   H3Y20705   5.541   4.876   6.919 -1.2424  1.7821 -0.3231
  181SOPE   C3420706   5.417   4.756   7.069  0.3471  0.2127 -0.6464
  181SOPE   H4X20707   5.490   4.673   7.081 -0.0080 -0.2089 -1.3187
  181SOPE   H4Y20708   5.318   4.707   7.056 -0.1410  0.6224  1.4197
  181SOPE   C3520709   5.408   4.838   7.199 -0.4755  0.0197 -0.0217
  181SOPE   H5X20710   5.333   4.919   7.211 -1.5084 -1.2303  2.2366
  181SOPE   H5Y20711   5.514   4.871   7.211 -0.2282 -1.0069  0.6908
  181SOPE   C3620712   5.384   4.744   7.324  1.1902  0.5307 -0.4212
  181SOPE   H6X20713   5.468   4.671   7.329 -1.6419 -2.6795  3.5874
  181SOPE   H6Y20714   5.288   4.689   7.311  0.5138  1.7393 -0.6395
  181SOPE   C3720715   5.378   4.826   7.461  0.4143  0.5176  0.3621
  181SOPE   H7X20716   5.327   4.923   7.447 -0.0020  0.3276  0.5497
  181SOPE   H7Y20717   5.484   4.853   7.482  0.8967 -1.3233  0.3873
  181SOPE   C3820718   5.311   4.757   7.582 -0.1104  0.8341  0.0941
  181SOPE   H8X20719   5.377   4.678   7.625  0.4654  0.4772 -1.3920
  181SOPE   H8Y20720   5.206   4.724   7.564  0.6878 -0.0911 -3.3524
  181SOPE   C3920721   5.277   4.855   7.699 -0.0762 -0.5214 -0.5838
  181SOPE   H9X20722   5.206   4.933   7.662 -3.0169 -2.4634  0.7298
  181SOPE   H9Y20723   5.373   4.900   7.730 -1.0647  0.0187  1.7702
  181SOPE  C31020724   5.215   4.776   7.814 -0.2146 -0.2970 -0.3645
  181SOPE  H10X20725   5.284   4.691   7.833  0.8735  0.5365 -0.5812
  181SOPE  H10Y20726   5.110   4.749   7.790 -1.0775  1.0755  1.7348
  181SOPE  C31120727   5.203   4.861   7.939 -0.4595  1.0795  0.1938
  181SOPE  H11X20728   5.114   4.925   7.923 -2.9773 -2.4201 -0.3466
  181SOPE  H11Y20729   5.292   4.927   7.945 -1.2403  2.2935 -1.1963
  181SOPE  C31220730   5.170   4.783   8.059  0.4146 -0.0857 -0.5095
  181SOPE  H12X20731   5.253   4.710   8.068 -1.9244 -2.7410  0.1819
  181SOPE  H12Y20732   5.074   4.733   8.035 -0.2066  0.3013  1.1153
  181SOPE  C31320733   5.171   4.866   8.189  0.3789  0.0739 -0.1559
  181SOPE  H13X20734   5.086   4.938   8.190  0.0778 -0.2855  0.1709
  181SOPE  H13Y20735   5.260   4.931   8.185  0.2403  0.2044 -1.3929
  181SOPE  C31420736   5.160   4.773   8.310  0.3188  0.7641 -0.1604
  181SOPE  H14X20737   5.247   4.706   8.325 -0.7069 -1.3087 -3.0996
  181SOPE  H14Y20738   5.066   4.722   8.282  0.8812  0.4583 -1.4999
  181SOPE  C31520739   5.127   4.853   8.442 -0.4459  0.1964 -0.3097
  181SOPE  H15X20740   5.040   4.921   8.431 -1.5559 -0.5638  3.1677
  181SOPE  H15Y20741   5.220   4.909   8.462 -0.2355 -0.8606  1.8326
  181SOPE  C31620742   5.102   4.755   8.560 -0.2430 -0.1496 -0.7901
  181SOPE  H16X20743   5.193   4.694   8.578 -0.5500 -0.3770  0.0391
  181SOPE  H16Y20744   5.028   4.681   8.523 -2.1217  1.8675 -1.1611
  181SOPE  C31720745   5.048   4.826   8.689 -0.0150 -0.3439 -0.5210
  181SOPE  H17X20746   5.012   4.744   8.755  1.8546 -0.9314 -0.2015
  181SOPE  H17Y20747   4.967   4.900   8.671  2.3402  2.0203 -1.8271
  181SOPE  C31820748   5.167   4.899   8.757 -0.9678 -0.8326 -0.0178
  181SOPE  H18X20749   5.223   4.966   8.688  1.3431  0.0208  2.5916
  181SOPE  H18Y20750   5.246   4.829   8.791  0.4497  0.7969  0.1061
  181SOPE  H18Z20751   5.114   4.940   8.846  1.5609  1.9878  0.2512
  182SOPE     N20752   5.612   0.201   6.448  0.0479 -0.2813 -0.1304
  182SOPE   HN120753   5.555   0.194   6.535 -0.1227  1.5369 -0.0926
  182SOPE   HN220754   5.714   0.209   6.466 -0.4484  3.7358  1.3127
  182SOPE   HN320755   5.581   0.284   6.394 -1.4469 -1.2868 -0.8337
  182SOPE   C1220756   5.582   0.084   6.355  0.0671 -0.1450 -0.2900
  182SOPE  H12A20757   5.675   0.049   6.304  0.2544  0.6497 -0.5005
  182SOPE  H12B20758   5.509   0.118   6.279  0.1835  0.4340 -0.1502
  182SOPE   C1120759   5.514  -0.025   6.430 -1.0310  0.3306  0.6464
  182SOPE  H11A20760   5.420   0.010   6.480 -0.9427 -1.0131  1.7877
  182SOPE  H11B20761   5.587  -0.054   6.508 -1.6067 -2.5727  0.1546
  182SOPE     P20762   5.589  -0.229   6.287  0.1469  0.1671 -0.0419
  182SOPE   O1320763   5.714  -0.222   6.363  0.1201 -0.4296  0.8207
  182SOPE   O1420764   5.588  -0.205   6.143 -0.3491  0.1170 -0.5624
  182SOPE   O1220765   5.472  -0.135   6.348  0.1546  0.0597 -0.0379
  182SOPE   O1120766   5.542  -0.377   6.319  0.0329  0.0652  0.8787
  182SOPE    C120767   5.408  -0.426   6.295 -0.5343  0.0334  0.7637
  182SOPE    HA20768   5.415  -0.534   6.268 -0.7064  0.3129 -0.4290
  182SOPE    HB20769   5.356  -0.371   6.214  1.0702  0.7292  0.1698
  182SOPE    C220770   5.329  -0.406   6.425 -0.1600 -0.5564 -0.1842
  182SOPE    HS20771   5.307  -0.297   6.422  0.6625 -0.2790  2.4328
  182SOPE   O2120772   5.408  -0.437   6.542 -0.6953 -0.4553  0.6418
  182SOPE   C2120773   5.401  -0.350   6.639  0.2574 -0.0618  0.3772
  182SOPE   O2220774   5.317  -0.257   6.650 -0.0521  0.3641 -0.1588
  182SOPE   C2220775   5.501  -0.390   6.746  0.7155  0.0382 -0.3262
  182SOPE   H2R20776   5.601  -0.411   6.703  0.2161 -1.2443 -0.9077
  182SOPE   H2S20777   5.467  -0.491   6.780  0.3600  1.0107  2.2986
  182SOPE    C320778   5.190  -0.478   6.427 -0.4948 -0.0208 -0.2663
  182SOPE    HX20779   5.218  -0.585   6.438  0.7055  0.1925 -1.0569
  182SOPE    HY20780   5.145  -0.461   6.327  0.6087 -0.6995 -0.8853
  182SOPE   O3120781   5.110  -0.428   6.537 -0.0410 -0.0453  0.2689
  182SOPE   C3120782   5.043  -0.314   6.509 -0.2688 -0.4104  0.4215
  182SOPE   O3220783   5.043  -0.255   6.398  0.2109  0.0460  0.0337
  182SOPE   C3220784   4.962  -0.272   6.634  0.7188 -0.8617 -0.6085
  182SOPE   H2X20785   5.004  -0.322   6.723  0.4595 -0.2794 -0.1551
  182SOPE   H2Y20786   4.858  -0.304   6.608 -0.4218  0.7306  1.7799
  182SOPE   C2320787   5.487  -0.290   6.862 -0.0593  0.3439  0.0500
  182SOPE   H3R20788   5.503  -0.185   6.829  0.0787 -0.7151 -3.4181
  182SOPE   H3S20789   5.573  -0.299   6.933  0.6609  0.2875 -0.8212
  182SOPE   C2420790   5.350  -0.304   6.949  0.2444 -1.0489  0.1870
  182SOPE   H4R20791   5.294  -0.213   6.916  1.7510 -1.0537 -2.5488
  182SOPE   H4S20792   5.299  -0.392   6.904 -2.3448 -0.2100  1.3992
  182SOPE   C2520793   5.357  -0.320   7.100 -0.2772 -0.4605  0.6232
  182SOPE   H5R20794   5.424  -0.237   7.129 -1.6043  0.6364  0.6041
  182SOPE   H5S20795   5.260  -0.314   7.155 -0.5464  0.6993  0.0308
  182SOPE   C2620796   5.438  -0.433   7.143  0.0440 -0.5991  0.4610
  182SOPE   H6R20797   5.440  -0.522   7.076 -1.4763  0.3166 -0.8578
  182SOPE   H6S20798   5.543  -0.398   7.150  0.5038 -2.0173  0.8613
  182SOPE   C2720799   5.401  -0.468   7.292 -0.7075  0.0349 -0.4131
  182SOPE   H7R20800   5.396  -0.370   7.344  2.7508  0.6448 -1.0917
  182SOPE   H7S20801   5.304  -0.522   7.284 -1.2462  0.7634  1.0122
  182SOPE   C2820802   5.505  -0.550   7.366 -0.4032  0.5248 -0.4477
  182SOPE   H8R20803   5.535  -0.632   7.298  0.0221  0.8444 -0.6461
  182SOPE   H8S20804   5.601  -0.497   7.383  1.5195 -2.7492 -0.8143
  182SOPE   C2920805   5.471  -0.620   7.493  0.8430  0.3470 -0.2159
  182SOPE   H9120806   5.456  -0.727   7.473 -1.4967  0.3217  1.4473
  182SOPE  C21020807   5.454  -0.572   7.619  0.6355  0.5170 -0.4291
  182SOPE  H10120808   5.438  -0.649   7.697  0.1012 -0.3134 -1.3518
  182SOPE  C21120809   5.469  -0.438   7.691 -0.1047 -0.2649  0.3718
  182SOPE  H11R20810   5.377  -0.376   7.680  0.4280  1.0942  3.0178
  182SOPE  H11S20811   5.549  -0.374   7.651 -0.3947 -0.4294 -0.4707
  182SOPE  C21220812   5.482  -0.470   7.846 -0.3318  0.1628 -0.9813
  182SOPE  H12R20813   5.407  -0.544   7.880 -2.2644  2.1382 -0.8629
  182SOPE  H12S20814   5.478  -0.369   7.891  0.0749  0.7330 -2.1955
  182SOPE  C21320815   5.627  -0.523   7.860 -0.1931  0.0097 -0.3900
  182SOPE  H13R20816   5.693  -0.448   7.813 -0.3159  1.1507  1.2272
  182SOPE  H13S20817   5.635  -0.618   7.803  0.6049  0.7519 -1.5315
  182SOPE  C21420818   5.674  -0.556   8.005 -0.4395  0.0535 -0.3929
  182SOPE  H14R20819   5.588  -0.618   8.038 -2.9452  3.9402  0.6526
  182SOPE  H14S20820   5.683  -0.468   8.072  1.5295 -1.1997  1.0539
  182SOPE  C21520821   5.809  -0.635   7.996  0.3646  0.2541 -0.3140
  182SOPE  H15R20822   5.860  -0.591   7.908  0.0616  2.2362  0.4838
  182SOPE  H15S20823   5.781  -0.737   7.963 -0.6325  0.3773  0.1082
  182SOPE  C21620824   5.907  -0.638   8.113 -0.0204 -0.3747  0.0503
  182SOPE  H16R20825   5.934  -0.533   8.141 -0.8037  1.3241 -4.9445
  182SOPE  H16S20826   5.996  -0.698   8.085 -0.2630 -0.4298 -0.6266
  182SOPE  C21720827   5.835  -0.703   8.237 -0.8285  0.6387  0.0407
  182SOPE  H17R20828   5.810  -0.807   8.210  1.3396 -0.2999  1.4898
  182SOPE  H17S20829   5.742  -0.642   8.242 -0.9874  0.5049 -1.2586
  182SOPE  C21820830   5.914  -0.714   8.364  0.2178  0.6879 -0.4065
  182SOPE  H18R20831   6.022  -0.700   8.340 -0.1102 -0.3685 -2.7259
  182SOPE  H18S20832   5.904  -0.811   8.418  2.0526  0.3433 -0.6455
  182SOPE  H18T20833   5.892  -0.632   8.435  0.2533 -0.2783  0.7242
  182SOPE   C3320834   4.953  -0.117   6.648  0.5712 -0.8811 -0.1086
  182SOPE   H3X20835   4.937  -0.062   6.553 -1.4261 -0.7815  0.2582
  182SOPE   H3Y20836   5.052  -0.084   6.686 -0.5887  0.9056  1.4567
  182SOPE   C3420837   4.842  -0.088   6.753 -0.7978  0.5775  0.0867
  182SOPE   H4X20838   4.749  -0.139   6.721 -0.1199 -1.0221  0.6010
  182SOPE   H4Y20839   4.826   0.022   6.760 -0.2331  0.7037 -0.5127
  182SOPE   C3520840   4.871  -0.130   6.901  0.0414 -0.1882  0.1661
  182SOPE   H5X20841   4.981  -0.117   6.905  0.1494 -0.9575 -0.2020
  182SOPE   H5Y20842   4.840  -0.231   6.937 -0.7396 -1.3404 -3.4937
  182SOPE   C3620843   4.809  -0.030   7.004  0.2456  0.7391 -0.7468
  182SOPE   H6X20844   4.702  -0.015   6.980 -0.2358 -1.5721 -0.2123
  182SOPE   H6Y20845   4.865   0.065   6.993 -0.0667  1.0180  0.0477
  182SOPE   C3720846   4.828  -0.079   7.154 -0.0457  0.0530  0.3991
  182SOPE   H7X20847   4.938  -0.083   7.163 -0.0013 -3.8035 -1.0261
  182SOPE   H7Y20848   4.791  -0.184   7.153  0.5798 -0.1582 -1.0957
  182SOPE   C3820849   4.769   0.023   7.262 -0.2022 -0.2156  0.0426
  182SOPE   H8X20850   4.658   0.024   7.263 -0.2259 -2.1860  1.0927
  182SOPE   H8Y20851   4.817   0.123   7.250 -0.1250  0.0530  2.3272
  182SOPE   C3920852   4.820  -0.028   7.401  0.4492 -0.4824  0.4044
  182SOPE   H9X20853   4.930  -0.041   7.395  0.2958 -1.3810 -0.5733
  182SOPE   H9Y20854   4.779  -0.129   7.424 -0.9957  0.1214  0.5554
  182SOPE  C31020855   4.790   0.068   7.522 -0.5350 -0.3822 -0.1931
  182SOPE  H10X20856   4.679   0.070   7.531 -0.3416  0.9030  2.5238
  182SOPE  H10Y20857   4.834   0.167   7.498 -1.0372  0.3487  1.7614
  182SOPE  C31120858   4.841   0.022   7.655 -0.4910  0.1238  0.0055
  182SOPE  H11X20859   4.952   0.007   7.654 -0.6183 -0.8293 -0.6548
  182SOPE  H11Y20860   4.810  -0.083   7.672  0.5290 -0.4454 -1.5215
  182SOPE  C31220861   4.797   0.110   7.778 -0.6939 -0.1154 -0.9873
  182SOPE  H12X20862   4.688   0.088   7.780 -0.5653 -0.7519  2.2081
  182SOPE  H12Y20863   4.827   0.216   7.763 -0.2196 -0.3020 -1.3728
  182SOPE  C31320864   4.866   0.063   7.909 -0.0743  0.5611  0.0482
  182SOPE  H13X20865   4.975   0.074   7.927  0.1089 -0.5909 -0.3146
  182SOPE  H13Y20866   4.845  -0.045   7.919 -0.0710  0.6051  0.5369
  182SOPE  C31420867   4.792   0.144   8.016 -0.5505  0.0851 -0.3694
  182SOPE  H14X20868   4.681   0.134   8.009 -0.2478 -1.5328 -3.5584
  182SOPE  H14Y20869   4.808   0.249   7.986  1.4634  0.2436  1.1193
  182SOPE  C31520870   4.850   0.110   8.156  0.2232 -0.5158 -0.2699
  182SOPE  H15X20871   4.961   0.116   8.159  0.1976 -0.2060  0.0300
  182SOPE  H15Y20872   4.824   0.006   8.186 -0.1083  0.3457  2.5622
  182SOPE  C31620873   4.797   0.213   8.255 -0.2917 -0.6315  1.3092
  182SOPE  H16X20874   4.686   0.217   8.245 -0.3511 -1.9008  1.3812
  182SOPE  H16Y20875   4.838   0.302   8.204  0.6025 -1.1622  1.0995
  182SOPE  C31720876   4.845   0.198   8.394  0.0506 -0.3317  0.1470
  182SOPE  H17X20877   4.814   0.294   8.441 -0.5043 -0.9815  1.1182
  182SOPE  H17Y20878   4.956   0.199   8.386  0.1911  0.8818  1.9735
  182SOPE  C31820879   4.799   0.079   8.473  0.1474 -0.5912  0.1400
  182SOPE  H18X20880   4.817   0.083   8.583 -3.6227 -2.1500  0.9261
  182SOPE  H18Y20881   4.838  -0.019   8.438  2.2692 -0.2661  1.5263
  182SOPE  H18Z20882   4.688   0.074   8.463 -0.1104  1.8005  1.4971
  183SOPE     N20883   0.779   3.808   6.533  0.0716  0.2797  0.6405
  183SOPE   HN120884   0.723   3.874   6.591 -0.7359 -1.2100  1.5965
  183SOPE   HN220885   0.723   3.744   6.473 -0.7537 -0.0615  1.7475
  183SOPE   HN320886   0.839   3.763   6.605  0.8937  0.4542  0.0686
  183SOPE   C1220887   0.871   3.889   6.436 -0.0448  0.5616 -0.1901
  183SOPE  H12A20888   0.810   3.962   6.378  0.4659  1.0091 -0.1777
  183SOPE  H12B20889   0.916   3.819   6.363 -2.4251  0.7558 -1.9008
  183SOPE   C1120890   0.974   3.974   6.507  0.3964 -0.8352 -0.2599
  183SOPE  H11A20891   1.028   3.915   6.583  0.8866 -2.1505 -1.5966
  183SOPE  H11B20892   0.932   4.060   6.563 -0.6936 -1.1223 -0.6168
  183SOPE     P20893   1.066   4.139   6.311 -0.3848 -0.1827 -0.0568
  183SOPE   O1320894   0.937   4.148   6.244 -0.1805  0.0855 -0.9152
  183SOPE   O1420895   1.187   4.148   6.227  0.2860 -0.4572 -0.0743
  183SOPE   O1220896   1.067   4.015   6.412  0.0894  0.4249 -0.2180
  183SOPE   O1120897   1.086   4.253   6.417  0.5927 -0.0482  0.1401
  183SOPE    C120898   1.087   4.387   6.373  0.5661  0.5178 -0.4136
  183SOPE    HA20899   0.988   4.435   6.357  0.7619  0.9011 -0.4777
  183SOPE    HB20900   1.150   4.405   6.283 -0.4176 -0.1561 -1.2431
  183SOPE    C220901   1.138   4.473   6.492 -0.3952 -0.3306 -0.2885
  183SOPE    HS20902   1.102   4.578   6.483 -0.1776 -0.2695 -0.4588
  183SOPE   O2120903   1.282   4.474   6.482  0.2484 -0.2215 -1.0572
  183SOPE   C2120904   1.335   4.557   6.393  0.6949  0.1877 -0.1474
  183SOPE   O2220905   1.275   4.632   6.320 -0.8217  0.3296 -0.0234
  183SOPE   C2220906   1.483   4.527   6.391 -0.0037  0.2549  0.1465
  183SOPE   H2R20907   1.514   4.530   6.284  1.1379  1.8899  0.5137
  183SOPE   H2S20908   1.506   4.424   6.426 -2.0309  0.5158  2.3682
  183SOPE    C320909   1.100   4.410   6.633  0.7731  0.2523 -0.6856
  183SOPE    HX20910   1.136   4.305   6.632  1.0798  0.3572 -0.5746
  183SOPE    HY20911   0.989   4.407   6.627  0.8272 -0.4029 -1.2910
  183SOPE   O3120912   1.144   4.486   6.747  0.1576  0.3237  0.2259
  183SOPE   C3120913   1.207   4.414   6.846  0.2293  0.1440  0.7787
  183SOPE   O3220914   1.237   4.298   6.847 -0.1323  0.1157  0.3386
  183SOPE   C3220915   1.239   4.506   6.961  0.8732 -0.5778 -0.3289
  183SOPE   H2X20916   1.154   4.577   6.976  0.0203 -1.6644  0.1115
  183SOPE   H2Y20917   1.322   4.575   6.937  1.0238 -0.7028 -0.1694
  183SOPE   C2320918   1.567   4.633   6.470  0.3481  0.9312  0.7268
  183SOPE   H3R20919   1.554   4.738   6.435  1.0762  1.3317  1.6344
  183SOPE   H3S20920   1.675   4.608   6.469  0.1212 -0.3086  3.3724
  183SOPE   C2420921   1.532   4.637   6.617  0.9617  0.8026 -0.1302
  183SOPE   H4R20922   1.427   4.603   6.633  1.5381 -0.2199  1.6452
  183SOPE   H4S20923   1.598   4.569   6.675 -2.6877 -0.0421  3.2728
  183SOPE   C2520924   1.568   4.768   6.691 -0.0930  0.3371  0.0205
  183SOPE   H5R20925   1.677   4.786   6.690 -0.3146  1.7474 -0.0185
  183SOPE   H5S20926   1.504   4.855   6.665  0.4934  0.4136 -1.2235
  183SOPE   C2620927   1.538   4.748   6.843 -0.9778  0.2000 -0.2200
  183SOPE   H6R20928   1.427   4.743   6.850 -0.9280 -0.9082 -0.1536
  183SOPE   H6S20929   1.579   4.656   6.889  1.0799  0.3211 -1.7681
  183SOPE   C2720930   1.572   4.876   6.917 -0.5549 -0.2223  0.5117
  183SOPE   H7R20931   1.680   4.901   6.913 -0.2570 -1.4681  0.5748
  183SOPE   H7S20932   1.510   4.953   6.867  0.1103 -1.0916 -1.7177
  183SOPE   C2820933   1.531   4.879   7.067  0.6131 -0.3662 -0.1769
  183SOPE   H8R20934   1.551   4.982   7.104  0.9403  0.2140 -1.9242
  183SOPE   H8S20935   1.425   4.855   7.090  0.0123  0.1224 -2.3551
  183SOPE   C2920936   1.628   4.792   7.137 -0.0965  0.2288 -0.2745
  183SOPE   H9120937   1.681   4.719   7.073 -1.1141 -0.0903 -0.7662
  183SOPE  C21020938   1.655   4.791   7.273 -0.2197  1.0491 -0.1596
  183SOPE  H10120939   1.736   4.724   7.306 -0.4502  0.7268 -0.2570
  183SOPE  C21120940   1.592   4.876   7.382 -0.1137 -0.0559 -0.1311
  183SOPE  H11R20941   1.504   4.826   7.428  2.0397 -1.7258  2.2884
  183SOPE  H11S20942   1.570   4.975   7.337 -2.2124  0.0631  1.1090
  183SOPE  C21220943   1.688   4.895   7.497 -0.1825  0.5781  0.1984
  183SOPE  H12R20944   1.781   4.948   7.470 -0.2928  0.3468 -0.6503
  183SOPE  H12S20945   1.713   4.795   7.539 -1.5759 -0.6416 -1.7352
  183SOPE  C21320946   1.613   4.967   7.608  0.1267 -0.1496  0.0624
  183SOPE  H13R20947   1.519   4.909   7.619 -0.8407  1.1590 -1.1076
  183SOPE  H13S20948   1.598   5.074   7.581  4.4533  0.9321  1.5728
  183SOPE  C21420949   1.694   4.981   7.737  0.7301 -0.1469 -0.7158
  183SOPE  H14R20950   1.799   4.999   7.705  1.2387  0.2987  1.1229
  183SOPE  H14S20951   1.699   4.879   7.781  0.4294 -0.1921 -0.7834
  183SOPE  C21520952   1.648   5.080   7.844 -0.2038  0.1956 -0.0464
  183SOPE  H15R20953   1.543   5.062   7.876 -0.0132 -1.2505 -0.2087
  183SOPE  H15S20954   1.652   5.181   7.799  0.9847  0.3059  0.3030
  183SOPE  C21620955   1.739   5.085   7.972  0.1182  0.1326 -0.4372
  183SOPE  H16R20956   1.842   5.105   7.937  0.9978 -0.5018  1.7672
  183SOPE  H16S20957   1.746   4.986   8.022  2.4585  1.9967  3.0986
  183SOPE  C21720958   1.690   5.190   8.074  0.0969  0.5493  0.6153
  183SOPE  H17R20959   1.582   5.176   8.094 -0.0517 -1.2436 -1.2212
  183SOPE  H17S20960   1.711   5.293   8.039  0.3065 -0.0499 -1.0889
  183SOPE  C21820961   1.751   5.175   8.210  0.2274  0.7180 -0.5209
  183SOPE  H18R20962   1.860   5.175   8.191  0.2481  0.0742 -0.4084
  183SOPE  H18S20963   1.718   5.080   8.256  1.3088  1.6315  2.2058
  183SOPE  H18T20964   1.724   5.257   8.281 -2.4378 -1.2404  0.8195
  183SOPE   C3320965   1.274   4.429   7.089  0.1327  0.7954 -0.2136
  183SOPE   H3X20966   1.354   4.356   7.062 -1.5412 -0.2008 -2.6234
  183SOPE   H3Y20967   1.189   4.365   7.121  0.1709  0.2353 -1.2028
  183SOPE   C3420968   1.317   4.529   7.195  0.5898  0.2175 -0.0008
  183SOPE   H4X20969   1.244   4.612   7.207  0.1592 -0.0620 -0.6417
  183SOPE   H4Y20970   1.414   4.578   7.169  0.0747  1.1163 -0.2486
  183SOPE   C3520971   1.334   4.460   7.329  0.3621  0.0341  0.0533
  183SOPE   H5X20972   1.393   4.366   7.327  0.9845  0.4216  0.2700
  183SOPE   H5Y20973   1.227   4.448   7.356  0.1395  0.3875 -0.6466
  183SOPE   C3620974   1.385   4.552   7.440 -0.0053 -0.3269  0.0153
  183SOPE   H6X20975   1.319   4.641   7.451 -0.3368 -0.4686 -0.8182
  183SOPE   H6Y20976   1.487   4.592   7.423 -0.2381 -0.6376 -2.1811
  183SOPE   C3720977   1.388   4.477   7.578  0.0454 -0.3872  0.2734
  183SOPE   H7X20978   1.455   4.388   7.576 -0.2949 -0.6898  1.7890
  183SOPE   H7Y20979   1.287   4.450   7.616  0.4500  0.8140  2.2408
  183SOPE   C3820980   1.444   4.569   7.678 -0.3543  0.2444  1.1197
  183SOPE   H8X20981   1.409   4.674   7.666  0.9801  0.4197 -1.8299
  183SOPE   H8Y20982   1.552   4.584   7.655 -0.8672 -0.1289 -1.7581
  183SOPE   C3920983   1.419   4.536   7.818  0.9225  0.4089  0.3334
  183SOPE   H9X20984   1.457   4.433   7.836 -1.4250 -0.7496 -1.1042
  183SOPE   H9Y20985   1.312   4.520   7.843  0.7153  0.2396 -0.6435
  183SOPE  C31020986   1.489   4.646   7.911 -0.7844 -0.1880 -1.0709
  183SOPE  H10X20987   1.470   4.748   7.870  0.1579  0.1239 -0.7371
  183SOPE  H10Y20988   1.599   4.636   7.905 -0.6570 -0.0179  0.8715
  183SOPE  C31120989   1.437   4.634   8.055 -0.3863  0.3617 -0.5045
  183SOPE  H11X20990   1.437   4.528   8.090 -1.2983  0.1860 -1.0352
  183SOPE  H11Y20991   1.332   4.669   8.046 -0.5430 -0.3732 -1.6323
  183SOPE  C31220992   1.514   4.731   8.151  0.5163  0.2507 -0.1478
  183SOPE  H12X20993   1.490   4.837   8.128 -0.2891  1.0335  3.9296
  183SOPE  H12Y20994   1.622   4.704   8.141 -0.0662 -2.8528  1.2393
  183SOPE  C31320995   1.465   4.707   8.296  0.3447  0.1472 -0.4490
  183SOPE  H13X20996   1.470   4.601   8.328 -1.1966  0.8071  2.0672
  183SOPE  H13Y20997   1.354   4.718   8.304  0.0578 -2.0689 -0.9570
  183SOPE  C31420998   1.534   4.785   8.399 -0.0002  0.1614 -0.0363
  183SOPE  H14X20999   1.517   4.892   8.377  0.7850  0.5248  1.0671
  183SOPE  H14Y21000   1.641   4.761   8.378 -0.2534  0.3234 -1.5742
  183SOPE  C31521001   1.485   4.751   8.549 -1.0804  0.7471  0.8513
  183SOPE  H15X21002   1.561   4.796   8.616 -0.0842  0.0037  0.2391
  183SOPE  H15Y21003   1.498   4.641   8.559  0.5417  0.9196  0.7553
  183SOPE  C31621004   1.342   4.799   8.576 -0.3121 -0.4255  0.6179
  183SOPE  H16X21005   1.266   4.745   8.516 -0.9627  1.0160  0.1205
  183SOPE  H16Y21006   1.338   4.907   8.550 -0.4218 -0.0102  2.2604
  183SOPE  C31721007   1.296   4.795   8.723  0.4938  0.5377 -0.0862
  183SOPE  H17X21008   1.219   4.870   8.748 -0.6319 -1.3643  2.4332
  183SOPE  H17Y21009   1.386   4.798   8.788 -0.7254 -0.4198  1.7047
  183SOPE  C31821010   1.245   4.659   8.771 -0.3556  0.7118  0.3882
  183SOPE  H18X21011   1.201   4.654   8.873  0.6233  0.7972  0.8208
  183SOPE  H18Y21012   1.314   4.572   8.763 -2.3862 -0.7781 -1.6711
  183SOPE  H18Z21013   1.160   4.633   8.705  1.3295 -2.0044 -0.8088
  184SOPE     N21014   0.614   5.124   6.421  0.6154  0.5054 -0.2196
  184SOPE   HN121015   0.544   5.151   6.349  2.0211  1.4208 -1.2582
  184SOPE   HN221016   0.602   5.024   6.448  1.1312  0.5634  0.2457
  184SOPE   HN321017   0.598   5.181   6.507 -1.5177  1.9367 -1.5210
  184SOPE   C1221018   0.752   5.152   6.375  0.2362  0.6878  0.5049
  184SOPE  H12A21019   0.819   5.168   6.462 -2.0223 -1.7043  2.7497
  184SOPE  H12B21020   0.753   5.245   6.313  0.4407 -0.1075 -0.7031
  184SOPE   C1121021   0.804   5.040   6.273  0.8628 -0.4607 -0.2699
  184SOPE  H11A21022   0.907   5.062   6.238  1.4074 -0.3413  1.3736
  184SOPE  H11B21023   0.740   5.042   6.183 -0.7696  0.5106  0.8880
  184SOPE     P21024   0.841   4.787   6.263  0.3910  0.4457 -0.2729
  184SOPE   O1321025   0.973   4.810   6.197  0.3844  0.2006 -0.1519
  184SOPE   O1421026   0.727   4.751   6.171  0.0191  0.3775  0.4252
  184SOPE   O1221027   0.796   4.917   6.344 -0.4288 -0.8287 -0.1389
  184SOPE   O1121028   0.854   4.674   6.361 -0.6771  0.1652  0.1860
  184SOPE    C121029   0.765   4.643   6.468 -0.1309 -0.5213  0.0138
  184SOPE    HA21030   0.791   4.541   6.502  1.1377  0.9742  3.8510
  184SOPE    HB21031   0.660   4.633   6.435  0.1011 -1.2255 -0.5070
  184SOPE    C221032   0.793   4.728   6.601 -0.5423 -1.3970 -0.0280
  184SOPE    HS21033   0.740   4.825   6.585  0.1289 -0.9766  0.2782
  184SOPE   O2121034   0.937   4.746   6.609  0.1029 -0.2728  0.5154
  184SOPE   C2121035   0.972   4.859   6.662 -0.6177  0.6410  0.2495
  184SOPE   O2221036   0.901   4.953   6.701  0.3286  0.7045  0.7934
  184SOPE   C2221037   1.125   4.853   6.675  0.2721  0.6913  0.6926
  184SOPE   H2R21038   1.172   4.876   6.576  3.0724 -2.9533  1.0414
  184SOPE   H2S21039   1.160   4.753   6.708 -3.3009 -0.2886  1.7252
  184SOPE    C321040   0.739   4.651   6.720 -0.2282 -0.0640  0.7801
  184SOPE    HX21041   0.777   4.548   6.733  0.0613 -0.1512 -0.7263
  184SOPE    HY21042   0.630   4.639   6.705  0.0627 -1.2524 -0.3719
  184SOPE   O3121043   0.777   4.720   6.837 -0.1712  0.1132  0.7079
  184SOPE   C3121044   0.670   4.784   6.888  0.6514  0.3089  0.2183
  184SOPE   O3221045   0.570   4.813   6.828  0.2985 -0.5044  0.8627
  184SOPE   C3221046   0.701   4.820   7.032 -0.3390  0.1741 -0.1718
  184SOPE   H2X21047   0.801   4.780   7.057 -1.1047 -2.0377 -0.5998
  184SOPE   H2Y21048   0.624   4.763   7.088 -2.1377  0.9366 -1.7948
  184SOPE   C2321049   1.181   4.954   6.775  0.1046 -0.1392  0.1541
  184SOPE   H3R21050   1.162   5.051   6.725  3.4624  0.0305 -0.8959
  184SOPE   H3S21051   1.291   4.949   6.788 -0.0114 -0.0336  1.2902
  184SOPE   C2421052   1.120   4.940   6.922  0.1574 -0.0123  0.2886
  184SOPE   H4R21053   1.009   4.950   6.919  0.1169  0.4199  2.4199
  184SOPE   H4S21054   1.153   4.843   6.964 -1.2347 -0.2103  0.9552
  184SOPE   C2521055   1.166   5.060   7.009  0.1167  1.1671 -0.1372
  184SOPE   H5R21056   1.277   5.063   7.001  0.2022  1.5897  1.0763
  184SOPE   H5S21057   1.123   5.152   6.965 -1.1477  0.3951 -0.5512
  184SOPE   C2621058   1.130   5.068   7.157  0.2425  0.0922 -0.4791
  184SOPE   H6R21059   1.173   5.159   7.203 -0.5254  0.8966 -1.3342
  184SOPE   H6S21060   1.021   5.083   7.172  0.6755  2.3707  0.5865
  184SOPE   C2721061   1.180   4.934   7.233  0.5095  0.3107 -0.6797
  184SOPE   H7R21062   1.169   4.842   7.172  0.2143 -0.2188  0.1579
  184SOPE   H7S21063   1.285   4.938   7.269  0.5583  1.3454 -0.9415
  184SOPE   C2821064   1.087   4.890   7.350 -0.6761  0.3114 -0.6397
  184SOPE   H8R21065   0.995   4.855   7.299 -0.0146 -0.8255 -1.0852
  184SOPE   H8S21066   1.124   4.795   7.394  2.9948  0.4427 -3.1973
  184SOPE   C2921067   1.044   5.002   7.441 -0.9963 -0.2896 -0.0924
  184SOPE   H9121068   0.973   5.072   7.394  0.9081  1.8800  0.2142
  184SOPE  C21021069   1.087   5.018   7.571 -0.2732 -0.3390  0.0950
  184SOPE  H10121070   1.042   5.094   7.636  0.8991 -0.4137  0.9960
  184SOPE  C21121071   1.185   4.927   7.631 -0.3169  0.5425  0.6438
  184SOPE  H11R21072   1.270   4.918   7.559 -0.2693 -0.1542  0.7816
  184SOPE  H11S21073   1.158   4.819   7.637  0.5497  0.3020  0.3198
  184SOPE  C21221074   1.231   4.968   7.768  0.0203 -0.3868  0.2862
  184SOPE  H12R21075   1.267   5.073   7.761  2.2155 -1.1305 -0.0276
  184SOPE  H12S21076   1.321   4.914   7.806  1.4059  1.1967 -0.6324
  184SOPE  C21321077   1.121   4.966   7.879  0.6046 -0.1562  0.7397
  184SOPE  H13R21078   1.100   4.865   7.920 -0.1990 -0.1271  0.4014
  184SOPE  H13S21079   1.032   5.011   7.833  2.4855  0.6221 -2.2465
  184SOPE  C21421080   1.148   5.053   8.007  0.0219 -0.2256 -0.1941
  184SOPE  H14R21081   1.176   5.155   7.973  0.8550 -0.9472 -1.7150
  184SOPE  H14S21082   1.234   5.015   8.067 -0.8282 -1.6745  0.1291
  184SOPE  C21521083   1.026   5.056   8.107  0.2080 -0.4768 -0.0613
  184SOPE  H15R21084   0.928   5.069   8.056  0.5809  3.1595  0.0578
  184SOPE  H15S21085   1.030   5.141   8.178 -0.0250  1.5828 -2.4781
  184SOPE  C21621086   1.032   4.930   8.204  0.0368  0.1387  0.4097
  184SOPE  H16R21087   1.090   4.949   8.297  1.0014  1.0028 -0.3492
  184SOPE  H16S21088   1.087   4.849   8.151 -1.3293  0.1323 -1.0476
  184SOPE  C21721089   0.891   4.878   8.221 -0.4830  0.2259 -0.6874
  184SOPE  H17R21090   0.883   4.816   8.130  1.4525 -0.7056 -0.2561
  184SOPE  H17S21091   0.814   4.959   8.214  0.3786  1.2354  1.0963
  184SOPE  C21821092   0.866   4.801   8.356  0.3726 -0.5187 -0.4522
  184SOPE  H18R21093   0.867   4.873   8.441  1.2803 -1.1070  0.0424
  184SOPE  H18S21094   0.949   4.731   8.380  0.3567 -0.0693  0.9578
  184SOPE  H18T21095   0.769   4.746   8.360  0.0169  0.1558  0.8038
  184SOPE   C3321096   0.699   4.969   7.059 -0.0396  0.2575 -0.4828
  184SOPE   H3X21097   0.602   5.016   7.034 -0.5414 -1.0368 -0.9893
  184SOPE   H3Y21098   0.781   5.010   6.996  1.5829 -0.0192  1.3938
  184SOPE   C3421099   0.722   5.011   7.213  0.6558 -0.4754 -0.2422
  184SOPE   H4X21100   0.760   5.115   7.204 -0.6396 -0.1710 -2.6140
  184SOPE   H4Y21101   0.801   4.957   7.270  0.2567 -1.7343 -0.8551
  184SOPE   C3521102   0.599   5.002   7.305 -0.3773 -0.0709  0.7105
  184SOPE   H5X21103   0.560   4.898   7.314 -0.2162 -0.5660 -3.2862
  184SOPE   H5Y21104   0.520   5.068   7.264  0.6400  0.9916  0.4428
  184SOPE   C3621105   0.620   5.034   7.457  0.0657 -0.4938 -0.1216
  184SOPE   H6X21106   0.665   5.133   7.482  0.4128 -0.5811 -0.3930
  184SOPE   H6Y21107   0.690   4.960   7.502  0.0849 -0.6074 -0.3387
  184SOPE   C3721108   0.494   5.025   7.544  0.4214  0.2646  0.4939
  184SOPE   H7X21109   0.454   4.927   7.510  0.8174 -0.4377  2.0249
  184SOPE   H7Y21110   0.419   5.096   7.503  0.7935  0.6963  0.5606
  184SOPE   C3821111   0.498   5.050   7.694 -0.5321  0.4005 -0.1384
  184SOPE   H8X21112   0.398   5.017   7.729  0.3950 -2.7364 -0.3234
  184SOPE   H8Y21113   0.512   5.160   7.709  0.0052  0.1619  1.2431
  184SOPE   C3921114   0.610   4.963   7.757 -0.0957 -0.3203 -0.2797
  184SOPE   H9X21115   0.708   4.998   7.717 -0.8943  1.8270 -0.4312
  184SOPE   H9Y21116   0.599   4.854   7.742  2.0900 -0.7644  1.1751
  184SOPE  C31021117   0.618   4.986   7.906 -0.7656 -0.0454 -0.0597
  184SOPE  H10X21118   0.719   4.940   7.918  0.2848  2.1118 -0.3348
  184SOPE  H10Y21119   0.536   4.923   7.947 -0.4534  0.6536  1.6808
  184SOPE  C31121120   0.608   5.129   7.962  0.7467 -0.1887  0.3859
  184SOPE  H11X21121   0.503   5.159   7.939  1.3180  0.9459 -0.8036
  184SOPE  H11Y21122   0.676   5.200   7.910  1.0259 -2.2296 -2.1279
  184SOPE  C31221123   0.615   5.130   8.112  0.1519 -0.1392 -0.4380
  184SOPE  H12X21124   0.722   5.119   8.140  0.1888 -0.5461 -0.7493
  184SOPE  H12Y21125   0.560   5.042   8.150 -0.1687  0.6099  0.8583
  184SOPE  C31321126   0.571   5.262   8.181  0.0932 -1.0944 -0.1902
  184SOPE  H13X21127   0.474   5.276   8.127  0.6241 -1.3572 -1.2189
  184SOPE  H13Y21128   0.641   5.348   8.168 -0.4707 -0.4161  1.1367
  184SOPE  C31421129   0.551   5.243   8.329  0.2011  0.4784 -0.5281
  184SOPE  H14X21130   0.521   5.344   8.365 -0.0294 -0.1516  1.0707
  184SOPE  H14Y21131   0.650   5.214   8.370  0.9022  1.0519 -1.7922
  184SOPE  C31521132   0.440   5.140   8.367  0.7916 -0.0296 -0.7590
  184SOPE  H15X21133   0.486   5.039   8.365  1.0571  0.0659  0.3399
  184SOPE  H15Y21134   0.368   5.137   8.283  1.4885 -1.0956 -1.3276
  184SOPE  C31621135   0.374   5.185   8.494  0.1389 -0.3358  0.3422
  184SOPE  H16X21136   0.308   5.268   8.461 -2.1773 -2.8525 -1.5733
  184SOPE  H16Y21137   0.443   5.217   8.575 -0.6240  2.1203  0.0731
  184SOPE  C31721138   0.292   5.070   8.551  0.4600  0.3167 -0.2583
  184SOPE  H17X21139   0.356   4.980   8.554 -1.9002 -1.4470 -1.4080
  184SOPE  H17Y21140   0.201   5.038   8.497  0.3900  1.6684 -0.9769
  184SOPE  C31821141   0.233   5.101   8.692 -0.3723  0.1836 -0.7707
  184SOPE  H18X21142   0.159   5.029   8.732  0.8778 -0.8315 -0.2586
  184SOPE  H18Y21143   0.185   5.201   8.684  1.4895  1.0970 -0.8654
  184SOPE  H18Z21144   0.319   5.098   8.764 -1.1867 -3.7151  0.1287
  185SAPI   C1221145   4.017   1.493  10.857  0.7850  0.0555  0.6465
  185SAPI    H221146   3.997   1.560  10.770  1.9209 -2.2990 -1.4839
  185SAPI    O221147   3.921   1.380  10.858 -0.9985 -0.4764 -0.2294
  185SAPI   HO221148   3.911   1.354  10.766 -0.9662  1.4016 -0.7848
  185SAPI   C1321149   4.159   1.439  10.856  0.6579 -0.9728  0.3976
  185SAPI    H321150   4.226   1.527  10.842  0.1970 -0.5615  0.7511
  185SAPI    O321151   4.188   1.359  10.738  0.0665 -0.4073  0.2026
  185SAPI   HO321152   4.194   1.265  10.757  1.4298  0.0878  2.4413
  185SAPI   C1421153   4.187   1.377  10.991 -0.3107  0.3244  0.4544
  185SAPI    H421154   4.119   1.292  11.008 -0.5053  0.4468  0.2985
  185SAPI    O421155   4.318   1.320  10.995 -0.5037  0.8101  0.6199
  185SAPI   HO421156   4.313   1.272  11.078 -3.9036 -2.5004 -1.3056
  185SAPI   C1521157   4.151   1.475  11.108 -0.0503 -0.2190 -0.1353
  185SAPI    H521158   4.205   1.569  11.087 -1.2703  0.9947  1.9770
  185SAPI    O521159   4.199   1.424  11.233  0.2587 -0.7916  0.3169
  185SAPI   HO521160   4.197   1.494  11.298  2.5629 -0.3009 -0.1053
  185SAPI   C1621161   4.002   1.516  11.104 -0.1337  0.2879 -0.0702
  185SAPI    H621162   3.936   1.427  11.104 -2.7281  2.1714 -0.9839
  185SAPI    O621163   3.967   1.602  11.220  0.1862  0.2542  0.5186
  185SAPI   HO621164   3.939   1.690  11.194  2.9060  0.5152 -1.7886
  185SAPI   C1121165   3.985   1.589  10.968  0.3375  0.2152  0.0921
  185SAPI    H121166   4.064   1.667  10.973  1.2622 -0.7375  0.3384
  185SAPI     P21167   3.827   1.794  10.916  0.1159  0.1755 -0.0540
  185SAPI   O1321168   3.929   1.876  10.983  0.2878 -0.4086 -0.2025
  185SAPI   O1421169   3.686   1.831  10.939  0.5235  0.2543  0.5428
  185SAPI   O1221170   3.857   1.639  10.957  0.4367  0.6524 -0.2841
  185SAPI   O1121171   3.848   1.791  10.764  0.2634 -0.5573  0.3610
  185SAPI    C121172   3.770   1.713  10.672  0.0218  0.2566 -0.2612
  185SAPI    HA21173   3.831   1.637  10.618  0.5896  0.2303  0.4153
  185SAPI    HB21174   3.694   1.651  10.723 -0.3052  0.1701 -0.8500
  185SAPI    C221175   3.689   1.804  10.575  0.3328 -0.1903  0.4966
  185SAPI    HS21176   3.615   1.738  10.525 -1.1338  1.1385  0.8716
  185SAPI   O2121177   3.771   1.869  10.477  0.0973 -0.2548 -0.6026
  185SAPI   C2121178   3.821   1.787  10.384  0.6497 -0.7011  0.4762
  185SAPI   O2221179   3.804   1.666  10.385 -0.8784 -0.1153 -0.0589
  185SAPI   C2221180   3.889   1.863  10.267  0.3706 -0.2882 -0.0491
  185SAPI   H2R21181   3.819   1.942  10.233 -0.3191  0.2128  2.4639
  185SAPI   H2S21182   3.970   1.920  10.317 -0.8190  1.7591 -0.3677
  185SAPI    C321183   3.605   1.924  10.636 -0.0588  0.0854  0.0191
  185SAPI    HX21184   3.681   1.996  10.673 -0.4971 -0.3596  1.8531
  185SAPI    HY21185   3.568   1.866  10.723 -0.5143 -0.2785 -0.4112
  185SAPI   O3121186   3.505   1.971  10.543  0.3533 -0.3296 -0.1779
  185SAPI   C3121187   3.397   2.017  10.603 -0.5190  0.3297  0.3562
  185SAPI   O3221188   3.376   2.025  10.719 -0.4201 -0.2885 -0.2839
  185SAPI   C3221189   3.284   2.038  10.492 -0.0997 -0.1742 -0.2194
  185SAPI   H2X21190   3.192   2.069  10.546  0.5761 -0.4285  1.1147
  185SAPI   H2Y21191   3.254   1.940  10.449  0.0289 -0.4573  0.3295
  185SAPI   C2321192   3.935   1.770  10.149  0.3022  0.3713  0.0383
  185SAPI   H3R21193   3.842   1.733  10.099  1.1405 -3.1241  0.9275
  185SAPI   H3S21194   3.994   1.684  10.185 -1.4881 -1.3331 -0.9491
  185SAPI   C2421195   4.017   1.860  10.047  0.1959  0.5658 -0.3268
  185SAPI   H4R21196   4.075   1.783   9.990  1.4655  0.7275  0.7310
  185SAPI   H4S21197   4.098   1.913  10.102 -0.7683 -1.5057  3.2289
  185SAPI   C2521198   3.935   1.938   9.950  0.0920  0.0688 -0.9440
  185SAPI   H5R21199   3.905   2.039   9.980  0.5282  0.1447 -0.7522
  185SAPI   C2621200   3.898   1.901   9.822 -0.3088  0.3551  0.4496
  185SAPI   H6R21201   3.807   1.947   9.780 -0.7851 -0.9795 -0.0029
  185SAPI   C2721202   3.931   1.768   9.751  0.4765 -0.7191  0.2938
  185SAPI   H7R21203   3.830   1.738   9.714  0.5919 -0.3069 -0.3618
  185SAPI   H7S21204   3.963   1.688   9.822  0.0731  0.8362  2.2946
  185SAPI   C2821205   4.032   1.764   9.641 -0.1032  0.3006  0.1550
  185SAPI   H8R21206   4.133   1.778   9.683 -0.1492 -1.1643  0.7642
  185SAPI   C2921207   4.016   1.742   9.509 -0.1000 -0.4619  0.4383
  185SAPI   H9R21208   4.104   1.748   9.444 -0.0120 -0.9456  0.5074
  185SAPI  C21021209   3.881   1.709   9.445  0.5223  0.4822  0.9605
  185SAPI  H10R21210   3.843   1.804   9.402  0.0978 -0.1520 -0.0767
  185SAPI  H10S21211   3.793   1.687   9.508 -1.8906 -1.4673 -2.9078
  185SAPI  C21121212   3.893   1.603   9.339 -0.0885 -0.3670  0.3009
  185SAPI  H11R21213   3.873   1.507   9.388 -1.5815  0.2169  0.8655
  185SAPI  C21221214   3.924   1.602   9.202 -0.7016 -0.1310  0.2504
  185SAPI  H12R21215   3.928   1.510   9.143  1.8481  1.1478 -1.7048
  185SAPI  C21321216   3.972   1.722   9.131 -0.2843 -0.4219 -0.2575
  185SAPI  H13R21217   4.054   1.693   9.062  0.5696  2.3828 -0.5025
  185SAPI  H13S21218   4.027   1.784   9.205  0.8565 -1.6979 -0.0384
  185SAPI  C21421219   3.859   1.802   9.087  0.1428  0.3034 -0.4809
  185SAPI  H14R21220   3.794   1.843   9.166 -0.1875  0.8917 -1.0552
  185SAPI  C21521221   3.831   1.837   8.964  0.2568  1.0124  0.4127
  185SAPI  H15R21222   3.732   1.885   8.953  1.1624  2.8212 -0.0658
  185SAPI  C21621223   3.917   1.800   8.835  0.2592 -0.4080  0.4292
  185SAPI  H16R21224   4.022   1.785   8.866 -0.5071 -1.4366  2.6782
  185SAPI  H16S21225   3.891   1.883   8.767 -1.5583 -0.1959  1.3380
  185SAPI  C21721226   3.867   1.653   8.798 -0.4154 -0.3420 -0.5692
  185SAPI  H17R21227   3.879   1.585   8.885 -1.8667  0.2608  0.1254
  185SAPI  H17S21228   3.926   1.606   8.716 -0.8862 -0.5398 -0.8017
  185SAPI  C21821229   3.722   1.649   8.741 -0.0916 -0.6052  0.3979
  185SAPI  H18R21230   3.720   1.700   8.643  0.5040 -1.2711  0.0334
  185SAPI  H18S21231   3.659   1.712   8.809 -2.1597 -2.2818  0.1012
  185SAPI  C21921232   3.651   1.516   8.721 -0.5569  0.3713  0.0097
  185SAPI  H19R21233   3.667   1.459   8.815 -1.9413  3.6228  2.2720
  185SAPI  H19S21234   3.693   1.451   8.640 -0.2657 -0.9827  1.2317
  185SAPI  C22021235   3.500   1.532   8.702  0.3053 -0.0979  0.7492
  185SAPI  H20R21236   3.447   1.434   8.709 -0.1113  0.3416  4.5279
  185SAPI  H20S21237   3.486   1.577   8.601 -3.1600 -0.4668  0.9795
  185SAPI  H20T21238   3.452   1.595   8.780 -0.3876 -0.6766  0.8010
  185SAPI   C3321239   3.330   2.121  10.376 -0.2043 -0.1422 -0.4359
  185SAPI   H3X21240   3.428   2.089  10.334 -0.4252 -1.1675 -0.1816
  185SAPI   H3Y21241   3.352   2.228  10.398  0.2737 -0.6959  1.9429
  185SAPI   C3421242   3.225   2.112  10.259  0.0424  0.3195  0.8231
  185SAPI   H4X21243   3.126   2.160  10.275  0.2196  1.0265 -0.1607
  185SAPI   H4Y21244   3.206   2.005  10.234  2.7909  0.0037 -0.0369
  185SAPI   C3521245   3.273   2.172  10.128 -0.0298  0.7987  0.6987
  185SAPI   H5X21246   3.366   2.120  10.097 -0.4400  0.5619 -0.1390
  185SAPI   H5Y21247   3.295   2.278  10.151  0.8345  0.5605  0.9912
  185SAPI   C3621248   3.178   2.160  10.008  0.2214 -0.0709  0.1508
  185SAPI   H6X21249   3.082   2.215  10.015  0.9002  1.1314  0.2576
  185SAPI   H6Y21250   3.159   2.051  10.003 -0.7045  0.0971  0.0264
  185SAPI   C3721251   3.257   2.200   9.877  0.4370  0.0609  0.2089
  185SAPI   H7X21252   3.346   2.136   9.862  0.6119  0.2124  0.5957
  185SAPI   H7Y21253   3.289   2.305   9.896 -1.2281  0.2716  2.0310
  185SAPI   C3821254   3.173   2.190   9.747  0.2856 -0.0668 -0.5054
  185SAPI   H8X21255   3.117   2.284   9.730  0.2431  0.4613  2.2995
  185SAPI   H8Y21256   3.103   2.105   9.764  0.6047  0.0534  1.6525
  185SAPI   C3921257   3.265   2.154   9.628 -0.4813 -0.4441 -0.1279
  185SAPI   H9X21258   3.282   2.047   9.652  1.7822  0.3441  2.0695
  185SAPI   H9Y21259   3.362   2.207   9.630 -0.0016 -1.3612  1.7957
  185SAPI  C31021260   3.199   2.171   9.487  0.4904  0.0350 -0.0810
  185SAPI  H10X21261   3.158   2.274   9.478  1.2595  0.3518  0.0436
  185SAPI  H10Y21262   3.111   2.104   9.489 -1.4577  2.4951 -1.0497
  185SAPI  C31121263   3.289   2.140   9.365 -0.0202 -0.0550 -0.1203
  185SAPI  H11X21264   3.311   2.031   9.366 -0.9127 -0.2458  1.1533
  185SAPI  H11Y21265   3.383   2.198   9.373 -0.2427  0.0170  2.4774
  185SAPI  C31221266   3.217   2.183   9.241  0.2566  0.3030 -0.0448
  185SAPI  H12X21267   3.221   2.293   9.227 -1.5071  0.4391  0.4174
  185SAPI  H12Y21268   3.113   2.148   9.225  1.2806 -2.9235 -0.0440
  185SAPI  C31321269   3.306   2.143   9.124 -0.4409  0.3844 -0.5044
  185SAPI  H13X21270   3.353   2.044   9.141 -1.8198  0.3923  3.9972
  185SAPI  H13Y21271   3.394   2.210   9.120 -0.1444  0.0199 -0.1491
  185SAPI  C31421272   3.245   2.136   8.985  0.1373 -0.1858  0.1760
  185SAPI  H14X21273   3.200   2.231   8.950  0.8252  1.0821  2.5810
  185SAPI  H14Y21274   3.171   2.053   8.984 -0.1524  0.0645  0.7287
  185SAPI  C31521275   3.353   2.086   8.885 -0.0462 -0.2240  0.4145
  185SAPI  H15X21276   3.398   1.989   8.916 -2.2943 -1.3675  0.1497
  185SAPI  H15Y21277   3.433   2.163   8.874 -1.0984  1.0041  1.1472
  185SAPI  C31621278   3.296   2.045   8.744  0.0742  0.2624  0.1018
  185SAPI  H16X21279   3.231   2.125   8.705  1.2151  0.7058 -0.9372
  185SAPI  H16Y21280   3.241   1.949   8.743 -1.5151  1.1685 -0.1802
  185SAPI  C31721281   3.407   2.036   8.638 -0.0468 -0.9046 -0.1014
  185SAPI  H17X21282   3.479   1.973   8.694  0.1418 -0.2503  0.3897
  185SAPI  H17Y21283   3.462   2.132   8.632 -0.5387 -0.6820 -1.1717
  185SAPI  C31821284   3.354   1.982   8.507  0.4245  0.5497  0.9439
  185SAPI  H18X21285   3.318   1.877   8.515  0.6386  0.2999 -1.0338
  185SAPI  H18Y21286   3.437   1.989   8.433 -0.7694  0.7764 -0.3933
  185SAPI  H18Z21287   3.272   2.047   8.469 -0.1161 -2.1801 -2.9147
  186SAPI   C1221288   4.039   0.316  11.192 -0.9188  0.6831  0.6899
  186SAPI    H221289   4.082   0.215  11.208  0.7086  0.7770 -2.6591
  186SAPI    O221290   3.911   0.314  11.257  0.2884  0.4503 -0.1055
  186SAPI   HO221291   3.908   0.239  11.316  0.1493  2.1225  2.0864
  186SAPI   C1321292   4.127   0.412  11.257 -0.1179  0.8754 -0.4104
  186SAPI    H321293   4.225   0.404  11.205 -2.1451 -2.0863 -4.0635
  186SAPI    O321294   4.145   0.381  11.393 -0.2361 -0.2493  0.0190
  186SAPI   HO321295   4.080   0.437  11.435 -0.0235 -1.5550  2.1578
  186SAPI   C1421296   4.083   0.557  11.237  0.0212  0.5585 -0.6187
  186SAPI    H421297   3.985   0.565  11.289  0.8381  0.8325  0.8960
  186SAPI    O421298   4.169   0.656  11.297 -0.0311  0.5110  0.3357
  186SAPI   HO421299   4.122   0.739  11.300  1.3349  1.3713 -1.0768
  186SAPI   C1521300   4.075   0.588  11.088  1.1026 -0.2247 -0.0142
  186SAPI    H521301   4.178   0.571  11.049  1.8021  0.4399  1.4963
  186SAPI    O521302   4.037   0.729  11.052 -0.3622 -0.1845  0.2938
  186SAPI   HO521303   3.945   0.728  11.078 -0.8975 -1.3550 -1.5412
  186SAPI   C1621304   3.976   0.495  11.024 -0.2365 -0.4797  0.2197
  186SAPI    H621305   3.877   0.506  11.075 -0.3328  1.6691 -0.3668
  186SAPI    O621306   3.939   0.526  10.886  0.8087  0.0647 -0.3495
  186SAPI   HO621307   3.859   0.476  10.865  0.1683  0.9823 -0.1173
  186SAPI   C1121308   4.032   0.351  11.042  0.4401  0.1892  0.4624
  186SAPI    H121309   4.132   0.351  10.993 -0.1047  2.7005 -0.6968
  186SAPI     P21310   3.994   0.133  10.883 -0.3381  0.1474  0.2902
  186SAPI   O1321311   3.873   0.073  10.819  0.0685 -0.4847  0.1493
  186SAPI   O1421312   4.083   0.049  10.968  0.5972  0.1248 -0.3135
  186SAPI   O1221313   3.946   0.265  10.971  0.4237 -0.2965  0.3858
  186SAPI   O1121314   4.071   0.192  10.770 -0.4917  0.5239 -0.0254
  186SAPI    C121315   4.029   0.289  10.675 -0.1175  0.1358 -0.1782
  186SAPI    HA21316   3.921   0.315  10.680 -0.0401  0.0871  2.0308
  186SAPI    HB21317   4.081   0.385  10.695  0.8451 -0.7317  1.5560
  186SAPI    C221318   4.077   0.259  10.534 -0.4851  0.7474  0.2480
  186SAPI    HS21319   4.186   0.277  10.525 -0.0960 -0.7711  1.8469
  186SAPI   O2121320   3.992   0.339  10.444 -0.4663  0.2288  0.1603
  186SAPI   C2121321   4.035   0.462  10.418  0.8866 -0.1510 -0.2894
  186SAPI   O2221322   4.145   0.507  10.448 -0.5031  0.0748 -0.2830
  186SAPI   C2221323   3.911   0.545  10.380 -0.2101 -0.6579 -0.3999
  186SAPI   H2R21324   3.946   0.580  10.281 -0.7028  0.1969 -0.2765
  186SAPI   H2S21325   3.815   0.490  10.369  0.1258 -1.1878 -0.6872
  186SAPI    C321326   4.055   0.116  10.489  0.0429 -0.4631  0.4471
  186SAPI    HX21327   3.952   0.085  10.520 -0.1808 -0.1036  0.0623
  186SAPI    HY21328   4.127   0.042  10.531  1.3046  0.6202  0.1875
  186SAPI   O3121329   4.065   0.105  10.335  0.3951  0.7762 -0.1598
  186SAPI   C3121330   4.061  -0.018  10.296 -0.4973  0.6080 -0.5364
  186SAPI   O3221331   4.036  -0.116  10.367  0.6654 -0.5988 -0.0422
  186SAPI   C3221332   4.124  -0.036  10.156  0.1605 -0.1753 -0.8922
  186SAPI   H2X21333   4.233  -0.014  10.154 -0.5130  3.7068 -0.4230
  186SAPI   H2Y21334   4.064   0.019  10.080  0.9963 -0.5271 -1.8160
  186SAPI   C2321335   3.903   0.677  10.471  0.4983  0.5267 -0.0084
  186SAPI   H3R21336   4.004   0.720  10.485  1.2717 -0.6461 -1.8300
  186SAPI   H3S21337   3.852   0.651  10.567 -0.5823  0.8839 -0.4722
  186SAPI   C2421338   3.818   0.790  10.408 -0.1458 -0.3338 -0.5460
  186SAPI   H4R21339   3.865   0.829  10.316  0.0185  0.0366 -0.3077
  186SAPI   H4S21340   3.819   0.871  10.484 -2.0071  0.3051 -1.1656
  186SAPI   C2521341   3.677   0.751  10.383 -0.2726 -0.7932 -0.2443
  186SAPI   H5R21342   3.617   0.708  10.465 -0.3899  0.1665  0.1846
  186SAPI   C2621343   3.609   0.767  10.271 -0.5192  0.9615 -0.2398
  186SAPI   H6R21344   3.502   0.747  10.259 -0.3991 -0.9330  1.6880
  186SAPI   C2721345   3.669   0.813  10.134  0.4261  0.9956 -0.1226
  186SAPI   H7R21346   3.756   0.879  10.157  1.2209  0.8435 -2.5471
  186SAPI   H7S21347   3.612   0.891  10.080  0.8542  0.2041 -1.7324
  186SAPI   C2821348   3.722   0.696  10.050 -0.0928 -0.2109 -0.2359
  186SAPI   H8R21349   3.753   0.606  10.105 -0.3606 -0.9485 -1.2637
  186SAPI   C2921350   3.736   0.701   9.918 -0.1990 -0.7611  0.0859
  186SAPI   H9R21351   3.770   0.607   9.872 -3.1915 -2.2089  0.7174
  186SAPI  C21021352   3.708   0.808   9.817 -0.2086  0.4123 -0.4007
  186SAPI  H10R21353   3.793   0.841   9.754  0.1844  1.5242  0.6927
  186SAPI  H10S21354   3.665   0.900   9.862  1.9054  1.6716 -0.9106
  186SAPI  C21121355   3.589   0.775   9.724 -0.4118  0.0739 -0.3239
  186SAPI  H11R21356   3.502   0.758   9.789  0.9082 -0.0749  1.4418
  186SAPI  C21221357   3.579   0.767   9.592  0.0582 -0.5435  0.9983
  186SAPI  H12R21358   3.476   0.751   9.557 -1.1124  1.8867  3.2078
  186SAPI  C21321359   3.683   0.792   9.490  0.1670  0.2461  0.3630
  186SAPI  H13R21360   3.769   0.851   9.528  1.9413 -1.8883 -0.2878
  186SAPI  H13S21361   3.639   0.870   9.424  1.1725 -0.0444 -0.6668
  186SAPI  C21421362   3.733   0.661   9.433  0.6384  0.4249 -0.5113
  186SAPI  H14R21363   3.784   0.597   9.506  1.4653 -1.3741 -2.5911
  186SAPI  C21521364   3.745   0.639   9.302  0.7487  0.4831  0.3037
  186SAPI  H15R21365   3.784   0.539   9.277 -0.5467  0.5787 -2.3056
  186SAPI  C21621366   3.707   0.723   9.181 -0.2261  0.5252 -0.1022
  186SAPI  H16R21367   3.648   0.810   9.218  1.1539  1.3021  0.3296
  186SAPI  H16S21368   3.640   0.664   9.115 -1.8000  0.5033  1.4849
  186SAPI  C21721369   3.817   0.770   9.088 -0.5451  0.7924 -0.5406
  186SAPI  H17R21370   3.773   0.841   9.015 -2.1007  0.2846 -0.1290
  186SAPI  H17S21371   3.861   0.678   9.044  0.5216  0.6433  0.8376
  186SAPI  C21821372   3.946   0.830   9.161  0.5189  0.1949  0.0538
  186SAPI  H18R21373   4.014   0.753   9.204  0.8734 -0.2127 -1.2258
  186SAPI  H18S21374   3.920   0.901   9.243 -0.8055  0.0228 -0.2023
  186SAPI  C21921375   4.029   0.906   9.060 -0.2798  0.0635  0.3179
  186SAPI  H19R21376   4.115   0.959   9.106 -0.2986 -0.3616  0.8466
  186SAPI  H19S21377   3.975   0.976   8.992  0.4236  1.3542  1.0693
  186SAPI  C22021378   4.093   0.806   8.962  0.5505  0.0163 -0.9272
  186SAPI  H20R21379   4.130   0.725   9.028  0.8641  1.4928  0.7439
  186SAPI  H20S21380   4.171   0.859   8.904 -0.3992  1.1533 -1.2070
  186SAPI  H20T21381   4.033   0.750   8.887 -0.4594 -1.6940  1.0963
  186SAPI   C3321382   4.103  -0.185  10.111  0.0564  0.4688  0.1539
  186SAPI   H3X21383   3.995  -0.197  10.091 -0.3659 -0.0024  2.5362
  186SAPI   H3Y21384   4.131  -0.244  10.201 -4.2637 -0.2985  1.0953
  186SAPI   C3421385   4.186  -0.212   9.985 -0.7013 -0.4994  0.6916
  186SAPI   H4X21386   4.175  -0.322   9.975  0.0533 -0.3385 -2.5808
  186SAPI   H4Y21387   4.293  -0.188  10.003 -0.9907  1.0445  0.4504
  186SAPI   C3521388   4.135  -0.157   9.852  0.2390  0.1916 -0.2037
  186SAPI   H5X21389   4.138  -0.046   9.845  0.9292  0.2670  1.1053
  186SAPI   H5Y21390   4.030  -0.189   9.838  0.5131 -0.5638 -0.5628
  186SAPI   C3621391   4.208  -0.214   9.732  0.3873  0.1629 -0.1652
  186SAPI   H6X21392   4.202  -0.324   9.736 -1.6087  0.2508 -0.3272
  186SAPI   H6Y21393   4.314  -0.184   9.746  0.5840 -1.4707  2.1356
  186SAPI   C3721394   4.154  -0.178   9.593  0.6742  0.8134  0.4379
  186SAPI   H7X21395   4.164  -0.067   9.584 -1.4437  0.9819  0.0837
  186SAPI   H7Y21396   4.048  -0.210   9.594  0.6270  0.9347 -0.6216
  186SAPI   C3821397   4.228  -0.245   9.474  0.3297  0.1099 -0.1035
  186SAPI   H8X21398   4.220  -0.356   9.486 -0.6699  0.2760  0.9283
  186SAPI   H8Y21399   4.333  -0.215   9.490  0.4005 -0.5642  0.6948
  186SAPI   C3921400   4.169  -0.203   9.341  1.0008 -0.1403  0.0615
  186SAPI   H9X21401   4.187  -0.094   9.330  0.6448 -0.0507  0.3479
  186SAPI   H9Y21402   4.060  -0.226   9.347  1.0450 -1.0231 -2.2367
  186SAPI  C31021403   4.224  -0.263   9.214  0.0264  0.3076 -0.3689
  186SAPI  H10X21404   4.194  -0.370   9.220 -2.9862  1.1486  0.7102
  186SAPI  H10Y21405   4.335  -0.254   9.212  0.3005 -2.5069  0.0633
  186SAPI  C31121406   4.161  -0.199   9.089 -0.2453 -0.0968 -0.6177
  186SAPI  H11X21407   4.192  -0.093   9.086  1.2897 -0.5309 -0.3101
  186SAPI  H11Y21408   4.050  -0.197   9.087 -0.2645 -0.8337 -0.3913
  186SAPI  C31221409   4.198  -0.273   8.959  0.1707  0.3365  0.7786
  186SAPI  H12X21410   4.147  -0.372   8.957 -4.0244  2.4022 -1.1592
  186SAPI  H12Y21411   4.309  -0.284   8.954  0.1661  0.8072 -0.5771
  186SAPI  C31321412   4.149  -0.189   8.840  0.4597  0.4441  0.1368
  186SAPI  H13X21413   4.208  -0.094   8.832  2.1547 -0.5775  0.2326
  186SAPI  H13Y21414   4.041  -0.168   8.853  0.7277  0.0168  3.5052
  186SAPI  C31421415   4.156  -0.265   8.705  0.1313 -0.1871  0.3320
  186SAPI  H14X21416   4.093  -0.356   8.715 -0.6198  0.4744  1.8561
  186SAPI  H14Y21417   4.261  -0.302   8.700 -0.5039 -1.8522 -0.9005
  186SAPI  C31521418   4.100  -0.191   8.577  0.5115 -0.3998  0.0086
  186SAPI  H15X21419   4.159  -0.102   8.547 -2.1189  1.9489  1.5217
  186SAPI  H15Y21420   3.994  -0.166   8.598 -0.2397 -2.3022 -1.4206
  186SAPI  C31621421   4.093  -0.281   8.453  0.1236  0.6174  0.0711
  186SAPI  H16X21422   4.017  -0.361   8.464  0.2253  0.4757 -0.2570
  186SAPI  H16Y21423   4.197  -0.317   8.441  0.2317  0.8082  0.4175
  186SAPI  C31721424   4.060  -0.205   8.322 -0.9072 -0.5864  0.3061
  186SAPI  H17X21425   4.143  -0.133   8.305 -0.4073 -1.8829 -3.3514
  186SAPI  H17Y21426   3.969  -0.142   8.324  1.4149  2.9549 -1.1044
  186SAPI  C31821427   4.039  -0.292   8.198  0.8272  0.7377 -0.4473
  186SAPI  H18X21428   3.985  -0.238   8.117 -1.0178  0.4886  0.6039
  186SAPI  H18Y21429   3.975  -0.381   8.218  0.4992  0.5853 -2.0447
  186SAPI  H18Z21430   4.139  -0.333   8.170 -0.2422 -1.6978 -0.8692
  187SAPI   C1221431   2.086   6.724   6.222 -0.6609 -0.4166  0.3839
  187SAPI    H221432   2.171   6.794   6.225  0.7877 -2.0729 -0.9463
  187SAPI    O221433   2.058   6.702   6.085  0.2207  0.1715  0.0571
  187SAPI   HO221434   2.061   6.786   6.040 -0.9458 -0.0560 -0.4628
  187SAPI   C1321435   2.132   6.589   6.280  0.4917  0.2961  0.9391
  187SAPI    H321436   2.149   6.619   6.386  2.3851  0.3985  0.6123
  187SAPI    O321437   2.259   6.539   6.233 -0.0894  0.0305 -0.9696
  187SAPI   HO321438   2.330   6.576   6.286 -2.2730  1.7753  0.8203
  187SAPI   C1421439   2.023   6.481   6.284 -0.3671  0.0210 -0.1187
  187SAPI    H421440   1.970   6.463   6.188 -1.6919  1.8541  0.2371
  187SAPI    O421441   2.069   6.357   6.337 -0.0485 -0.3118  0.1484
  187SAPI   HO421442   2.135   6.370   6.406  0.3965 -1.8386  0.0379
  187SAPI   C1521443   1.913   6.536   6.373 -0.0432 -0.1003 -0.3260
  187SAPI    H521444   1.960   6.553   6.472  1.9230 -1.6770 -0.9705
  187SAPI    O521445   1.808   6.448   6.403 -0.2797 -0.0328  0.4935
  187SAPI   HO521446   1.771   6.429   6.317 -2.8335  1.7200  1.1771
  187SAPI   C1621447   1.860   6.672   6.311 -0.1071  0.1142  0.1017
  187SAPI    H621448   1.811   6.649   6.214 -2.6391  0.9766  1.1369
  187SAPI    O621449   1.759   6.719   6.401 -0.3138  0.2349 -0.5482
  187SAPI   HO621450   1.680   6.664   6.398  0.2909 -0.8066  1.3942
  187SAPI   C1121451   1.970   6.773   6.301 -0.5723  0.4110  0.0722
  187SAPI    H121452   2.013   6.801   6.399  0.3972  1.5416 -0.6606
  187SAPI     P21453   1.958   7.038   6.248  0.2505 -0.3278  0.1726
  187SAPI   O1321454   1.971   7.097   6.114 -0.7004 -0.2238 -0.2470
  187SAPI   O1421455   2.085   7.042   6.325  0.0868  0.5225  0.8731
  187SAPI   O1221456   1.917   6.883   6.234 -0.5421 -0.7251  0.5106
  187SAPI   O1121457   1.840   7.097   6.332  0.5180 -0.6460  1.0406
  187SAPI    C121458   1.726   7.150   6.267  0.6272  0.3280  0.2705
  187SAPI    HA21459   1.753   7.240   6.208 -0.8845  0.7922  0.2635
  187SAPI    HB21460   1.686   7.076   6.194  1.5327 -0.7934  0.8831
  187SAPI    C221461   1.620   7.170   6.383 -0.8580 -0.0223 -0.4308
  187SAPI    HS21462   1.533   7.227   6.344 -1.0340  0.2965  0.4112
  187SAPI   O2121463   1.679   7.236   6.494 -0.0090 -0.3314  0.0274
  187SAPI   C2121464   1.698   7.373   6.489  0.0442 -0.1711  0.4932
  187SAPI   O2221465   1.651   7.444   6.406  0.4254 -0.0961  0.5041
  187SAPI   C2221466   1.783   7.417   6.606 -0.3284  0.2430 -0.1046
  187SAPI   H2R21467   1.879   7.361   6.605  1.4426  3.1053  2.3082
  187SAPI   H2S21468   1.801   7.526   6.592 -0.0912  0.1764 -0.3208
  187SAPI    C321469   1.559   7.028   6.415  0.2605 -0.0421 -0.5572
  187SAPI    HX21470   1.639   6.969   6.464  1.6718  0.6994 -1.9554
  187SAPI    HY21471   1.532   6.979   6.319 -0.0298 -0.0454 -0.4757
  187SAPI   O3121472   1.445   7.046   6.500 -0.4990  0.0695  0.2549
  187SAPI   C3121473   1.332   7.070   6.442 -0.3931  0.0609 -1.1589
  187SAPI   O3221474   1.314   7.067   6.320 -0.3612  0.1388 -0.3504
  187SAPI   C3221475   1.227   7.097   6.553 -0.3659  0.0752 -0.4888
  187SAPI   H2X21476   1.271   7.070   6.652  0.4480 -1.6676 -1.3013
  187SAPI   H2Y21477   1.138   7.034   6.532 -0.8815  0.1950  1.2379
  187SAPI   C2321478   1.705   7.398   6.739 -0.0633  0.0212  0.0974
  187SAPI   H3R21479   1.669   7.293   6.749  0.4396 -0.2043 -0.4252
  187SAPI   H3S21480   1.634   7.483   6.733  1.6127  1.2701 -2.4051
  187SAPI   C2421481   1.789   7.422   6.861  1.0596 -0.0650 -0.0550
  187SAPI   H4R21482   1.711   7.426   6.939  1.1192 -1.4614  0.0942
  187SAPI   H4S21483   1.841   7.520   6.854  0.2114  0.2237 -2.9610
  187SAPI   C2521484   1.895   7.317   6.894  0.4843  1.0413  0.0398
  187SAPI   H5R21485   1.936   7.271   6.803  1.4622 -0.9256  1.4256
  187SAPI   C2621486   1.938   7.275   7.013 -0.2637 -0.2392  0.0168
  187SAPI   H6R21487   2.014   7.195   7.009 -0.0024  0.0522 -0.9521
  187SAPI   C2721488   1.890   7.327   7.148  0.3437 -0.5903 -0.5706
  187SAPI   H7R21489   1.962   7.272   7.213 -0.6906 -0.5046  0.6640
  187SAPI   H7S21490   1.794   7.284   7.184  0.5561  0.7366  1.7434
  187SAPI   C2821491   1.890   7.474   7.182 -0.3269  0.4280 -0.4714
  187SAPI   H8R21492   1.872   7.538   7.095 -0.8410 -1.0952 -1.4976
  187SAPI   C2921493   1.894   7.519   7.312 -0.2022  0.4673 -0.0980
  187SAPI   H9R21494   1.894   7.628   7.327 -2.9508  0.6077 -0.8373
  187SAPI  C21021495   1.905   7.439   7.437 -0.3345  0.4256  0.0928
  187SAPI  H10R21496   1.868   7.337   7.415  1.5418 -0.2284 -0.1891
  187SAPI  H10S21497   1.854   7.490   7.522  1.1193  0.8882  0.7093
  187SAPI  C21121498   2.046   7.428   7.477 -0.4319 -0.4156  0.0791
  187SAPI  H11R21499   2.103   7.356   7.417 -0.0200  0.4944 -0.6386
  187SAPI  C21221500   2.114   7.496   7.573 -0.0763  0.3745  0.7674
  187SAPI  H12R21501   2.219   7.467   7.582  0.0604 -0.5496 -3.0238
  187SAPI  C21321502   2.060   7.583   7.681  0.0501 -0.3579 -0.4441
  187SAPI  H13R21503   1.972   7.639   7.644 -0.1684 -0.0532  0.5421
  187SAPI  H13S21504   2.131   7.664   7.709  0.0747 -0.0217 -1.4558
  187SAPI  C21421505   2.004   7.509   7.802 -0.5663  0.2330 -0.3370
  187SAPI  H14R21506   1.906   7.466   7.778  0.9208 -2.4305 -1.7721
  187SAPI  C21521507   2.057   7.490   7.925 -0.2947  0.8451 -0.1826
  187SAPI  H15R21508   2.001   7.431   7.999 -0.1215  1.3279  0.3341
  187SAPI  C21621509   2.187   7.545   7.971 -0.4854 -0.4779 -0.0578
  187SAPI  H16R21510   2.261   7.543   7.888 -0.4138 -3.1217  0.0233
  187SAPI  H16S21511   2.238   7.490   8.052  0.5318  0.0768 -0.3183
  187SAPI  C21721512   2.179   7.690   8.034 -0.3151  0.6226  0.3875
  187SAPI  H17R21513   2.089   7.739   7.991 -1.5255 -0.8492  1.1739
  187SAPI  H17S21514   2.272   7.745   8.007 -0.6928  0.5542 -1.1040
  187SAPI  C21821515   2.172   7.692   8.186  0.8520 -0.4514 -0.1803
  187SAPI  H18R21516   2.194   7.790   8.234 -2.1929 -0.2948  0.9671
  187SAPI  H18S21517   2.256   7.624   8.212  0.4159 -0.7728  0.3929
  187SAPI  C21921518   2.044   7.640   8.250  0.3992 -0.0064  1.1417
  187SAPI  H19R21519   2.003   7.564   8.180 -1.2247  1.6446  0.2727
  187SAPI  H19S21520   1.976   7.728   8.240  1.0721  0.6862  2.5021
  187SAPI  C22021521   2.059   7.584   8.392  0.8647  0.4310  0.5420
  187SAPI  H20R21522   2.105   7.483   8.391  0.7954  0.3947  1.0527
  187SAPI  H20S21523   1.960   7.579   8.442  1.5746 -1.5445  1.7933
  187SAPI  H20T21524   2.122   7.649   8.457 -0.1078  1.4650  0.4771
  187SAPI   C3321525   1.191   7.251   6.571 -0.4142  0.5473 -0.5752
  187SAPI   H3X21526   1.105   7.245   6.641  1.4604 -0.3388  1.7246
  187SAPI   H3Y21527   1.161   7.295   6.473  1.0392  0.8045 -0.9231
  187SAPI   C3421528   1.302   7.333   6.636  0.2824  0.2924  1.1152
  187SAPI   H4X21529   1.263   7.437   6.638 -1.1168 -0.2387  1.8245
  187SAPI   H4Y21530   1.393   7.329   6.572  0.7136  2.8383  1.5188
  187SAPI   C3521531   1.338   7.307   6.783  0.4580  0.2350 -0.3351
  187SAPI   H5X21532   1.432   7.358   6.813  1.1023 -0.2954 -1.4232
  187SAPI   H5Y21533   1.358   7.201   6.807  1.4604  0.7385  1.1028
  187SAPI   C3621534   1.223   7.347   6.879  0.0207 -0.4643 -0.3468
  187SAPI   H6X21535   1.128   7.290   6.869  0.4198 -1.3594  0.7365
  187SAPI   H6Y21536   1.207   7.454   6.854  1.9244 -0.3696 -1.2242
  187SAPI   C3721537   1.266   7.335   7.030  0.1606 -0.2581  0.5930
  187SAPI   H7X21538   1.362   7.388   7.046  0.5958 -0.8570  0.0091
  187SAPI   H7Y21539   1.284   7.228   7.054  0.6076 -0.0255  1.2886
  187SAPI   C3821540   1.152   7.379   7.125  0.6818  0.0611 -0.3636
  187SAPI   H8X21541   1.054   7.327   7.120  1.1006 -0.9905  1.7605
  187SAPI   H8Y21542   1.129   7.480   7.085 -0.9446 -0.8140 -1.6857
  187SAPI   C3921543   1.207   7.391   7.267 -0.3491 -0.5499  0.0673
  187SAPI   H9X21544   1.305   7.442   7.256 -1.3538  1.2509 -0.8874
  187SAPI   H9Y21545   1.228   7.294   7.316  0.7163  1.2539  3.3258
  187SAPI  C31021546   1.127   7.477   7.357 -0.0146 -0.5994 -1.1217
  187SAPI  H10X21547   1.020   7.464   7.331  0.2663 -2.1930 -1.5493
  187SAPI  H10Y21548   1.146   7.585   7.341  0.4989 -0.2386  1.6311
  187SAPI  C31121549   1.151   7.440   7.499  0.0388 -0.2670  0.1118
  187SAPI  H11X21550   1.253   7.467   7.532 -0.2739 -0.2955  1.1200
  187SAPI  H11Y21551   1.129   7.332   7.506 -0.4161 -0.1644  0.2804
  187SAPI  C31221552   1.059   7.523   7.581  0.0914  0.1615  0.5045
  187SAPI  H12X21553   0.959   7.531   7.535  1.1278 -0.0974 -1.8699
  187SAPI  H12Y21554   1.107   7.624   7.583 -1.0742  0.7109  1.0402
  187SAPI  C31321555   1.052   7.473   7.719  0.0270 -0.2004 -0.5917
  187SAPI  H13X21556   1.127   7.516   7.788  0.2927 -0.6464 -0.6033
  187SAPI  H13Y21557   1.075   7.364   7.723 -3.0685 -0.9098 -0.6240
  187SAPI  C31421558   0.908   7.501   7.779 -0.8460 -0.0856 -0.1958
  187SAPI  H14X21559   0.836   7.427   7.739  0.0608  0.4759 -2.9891
  187SAPI  H14Y21560   0.873   7.601   7.744 -2.7411 -0.6533 -0.0013
  187SAPI  C31521561   0.917   7.491   7.936 -0.1459 -0.3548  0.2824
  187SAPI  H15X21562   0.990   7.572   7.955  0.3995 -0.7815  0.0402
  187SAPI  H15Y21563   0.959   7.391   7.961  3.0708  1.0749  0.7614
  187SAPI  C31621564   0.788   7.496   8.018  0.2820  1.3341  0.1194
  187SAPI  H16X21565   0.729   7.401   8.011  0.9667  0.7740  1.8195
  187SAPI  H16Y21566   0.722   7.578   7.982 -0.1717 -0.0109 -2.2649
  187SAPI  C31721567   0.806   7.509   8.173 -0.1081  0.3111 -0.1065
  187SAPI  H17X21568   0.703   7.538   8.206 -0.5325  0.7268 -1.7636
  187SAPI  H17Y21569   0.880   7.589   8.191  1.2546 -1.2671  1.4678
  187SAPI  C31821570   0.843   7.381   8.252  0.2160  0.7280 -0.0844
  187SAPI  H18X21571   0.803   7.386   8.356  0.1534  0.6656 -0.1057
  187SAPI  H18Y21572   0.949   7.358   8.231  0.1317 -0.5159  0.7783
  187SAPI  H18Z21573   0.801   7.287   8.210  0.1809 -0.0535  1.6491
  188SAPI   C1221574   2.305   4.200   6.422 -0.3820 -0.1251  0.6177
  188SAPI    H221575   2.264   4.188   6.524 -1.5557  0.4457  0.2208
  188SAPI    O221576   2.197   4.247   6.338 -0.3003 -0.1429  0.0081
  188SAPI   HO221577   2.122   4.188   6.345 -0.2212 -0.0318  2.0475
  188SAPI   C1321578   2.418   4.298   6.430 -0.5760  0.9988 -0.0641
  188SAPI    H321579   2.481   4.247   6.505 -2.6098 -1.0504  0.3210
  188SAPI    O321580   2.383   4.424   6.489 -0.1992 -0.2465 -0.7393
  188SAPI   HO321581   2.369   4.484   6.415 -3.6583  1.5300  1.2181
  188SAPI   C1421582   2.493   4.310   6.295  0.0649  0.0034  0.9575
  188SAPI    H421583   2.422   4.355   6.222  1.4870 -2.6585 -2.2560
  188SAPI    O421584   2.606   4.398   6.304 -0.5174  0.0007 -0.4518
  188SAPI   HO421585   2.597   4.470   6.242  1.1386 -1.1756 -2.0945
  188SAPI   C1521586   2.529   4.174   6.229  0.0915 -0.0232  0.0191
  188SAPI    H521587   2.612   4.140   6.295 -1.3594 -2.1740  0.7881
  188SAPI    O521588   2.595   4.182   6.099  0.4347 -0.1255  0.1719
  188SAPI   HO521589   2.636   4.097   6.087 -1.6065 -1.0030 -0.8462
  188SAPI   C1621590   2.412   4.083   6.226 -0.0654  0.1741 -0.3535
  188SAPI    H621591   2.329   4.126   6.166  0.6165  1.3746 -0.4621
  188SAPI    O621592   2.455   3.959   6.174  0.0640  0.3264  0.4790
  188SAPI   HO621593   2.428   3.961   6.082  0.2368 -0.7284  0.4026
  188SAPI   C1121594   2.353   4.067   6.374 -0.3974 -0.4535  0.3719
  188SAPI    H121595   2.441   4.030   6.432  0.2406 -1.4288 -1.1918
  188SAPI     P21596   2.240   3.831   6.462  0.2889 -0.2641 -0.3296
  188SAPI   O1321597   2.359   3.753   6.410  0.6236  0.7199  0.0906
  188SAPI   O1421598   2.111   3.770   6.441  0.5485 -0.2986 -0.3934
  188SAPI   O1221599   2.244   3.975   6.378  0.3237  0.0263 -0.4549
  188SAPI   O1121600   2.254   3.868   6.611  0.0314  0.0058 -0.4269
  188SAPI    C121601   2.150   3.945   6.676 -0.1649 -0.3951  0.5728
  188SAPI    HA21602   2.120   4.032   6.614 -0.2790 -1.1730 -0.4658
  188SAPI    HB21603   2.051   3.897   6.690 -1.9590  2.1849 -2.5932
  188SAPI    C221604   2.191   3.997   6.815 -0.2991 -0.6534 -0.4314
  188SAPI    HS21605   2.110   4.053   6.865 -1.0697 -0.8838 -1.4011
  188SAPI   O2121606   2.316   4.081   6.803  0.5492 -0.2840 -0.3293
  188SAPI   C2121607   2.302   4.217   6.810  0.5857 -0.1468 -0.3685
  188SAPI   O2221608   2.194   4.268   6.805 -0.0865  0.1536 -0.4753
  188SAPI   C2221609   2.446   4.289   6.807  0.0517  1.2325  0.2652
  188SAPI   H2R21610   2.510   4.248   6.889 -0.5171 -0.3850 -0.0809
  188SAPI   H2S21611   2.499   4.263   6.713 -1.8925  0.2217 -0.5796
  188SAPI    C321612   2.214   3.876   6.909  0.5082 -0.6018  0.5523
  188SAPI    HX21613   2.311   3.827   6.885  0.1647  0.0495 -2.2195
  188SAPI    HY21614   2.143   3.792   6.898  1.1895 -1.1347  0.1785
  188SAPI   O3121615   2.215   3.915   7.050 -0.1244 -0.1142  0.0913
  188SAPI   C3121616   2.095   3.936   7.108 -0.4417  0.0224 -0.8751
  188SAPI   O3221617   1.987   3.936   7.055 -0.4435 -0.1422 -0.2399
  188SAPI   C3221618   2.121   3.958   7.259  0.0542  0.2963  0.0536
  188SAPI   H2X21619   2.226   3.958   7.296 -0.0511  1.6054  0.3847
  188SAPI   H2Y21620   2.067   3.870   7.299  2.0810 -1.3114 -0.6557
  188SAPI   C2321621   2.436   4.437   6.823 -0.2546 -0.7454 -0.1967
  188SAPI   H3R21622   2.381   4.495   6.746  2.6807  1.6291 -0.5937
  188SAPI   H3S21623   2.538   4.475   6.804 -0.2374 -0.1503  1.0190
  188SAPI   C2421624   2.405   4.485   6.954  0.1001 -0.2319  0.1470
  188SAPI   H4R21625   2.296   4.472   6.972 -0.1105 -1.0213 -1.5927
  188SAPI   H4S21626   2.420   4.594   6.941  1.1993 -0.4900 -0.8106
  188SAPI   C2521627   2.502   4.437   7.064 -0.0658 -0.4585  0.5265
  188SAPI   H5R21628   2.604   4.412   7.031 -0.2763  0.7581 -1.1386
  188SAPI   C2621629   2.475   4.432   7.196 -0.2288  0.5110 -0.2485
  188SAPI   H6R21630   2.563   4.399   7.255  0.7773  1.2078 -1.3295
  188SAPI   C2721631   2.345   4.464   7.261  0.2154  0.2246  0.0100
  188SAPI   H7R21632   2.313   4.363   7.296 -0.7721 -0.0305 -1.5498
  188SAPI   H7S21633   2.270   4.491   7.184  2.5682 -1.4846 -3.0115
  188SAPI   C2821634   2.344   4.569   7.373  0.1473 -0.5201 -0.2469
  188SAPI   H8R21635   2.360   4.671   7.335  0.7160 -0.1410  1.0120
  188SAPI   C2921636   2.347   4.544   7.503  0.6022  0.8089 -0.2221
  188SAPI   H9R21637   2.337   4.629   7.573  3.7066 -0.0223  1.3426
  188SAPI  C21021638   2.344   4.400   7.566  0.1436 -0.0478  0.0598
  188SAPI  H10R21639   2.366   4.328   7.485  0.7532 -1.4138  1.4027
  188SAPI  H10S21640   2.243   4.372   7.604  0.4200  1.4870  1.9951
  188SAPI  C21121641   2.444   4.385   7.674  0.6036  0.3345 -0.5890
  188SAPI  H11R21642   2.545   4.406   7.634  0.1933  0.0518 -1.7827
  188SAPI  C21221643   2.420   4.349   7.798 -0.1673 -0.3066  0.4262
  188SAPI  H12R21644   2.506   4.333   7.865  0.1178 -0.8403 -0.0704
  188SAPI  C21321645   2.286   4.315   7.859  0.7647 -0.1603  0.0149
  188SAPI  H13R21646   2.297   4.209   7.890 -0.6191 -0.6852 -1.2462
  188SAPI  H13S21647   2.207   4.318   7.781  1.1109  0.0357 -0.3344
  188SAPI  C21421648   2.250   4.402   7.978 -0.0926  0.5127  1.0107
  188SAPI  H14R21649   2.185   4.486   7.949  2.0528  1.7544 -0.3593
  188SAPI  C21521650   2.274   4.380   8.110  0.5520  0.0089  0.3053
  188SAPI  H15R21651   2.230   4.453   8.179 -1.5262 -1.5476  0.6857
  188SAPI  C21621652   2.354   4.270   8.173  0.4687  0.0328  0.6107
  188SAPI  H16R21653   2.439   4.321   8.224  0.0171 -0.0739  1.4730
  188SAPI  H16S21654   2.384   4.193   8.098  0.6237 -0.3610  1.0752
  188SAPI  C21721655   2.276   4.205   8.290  0.0797 -0.3241  0.7337
  188SAPI  H17R21656   2.193   4.147   8.244 -1.9383  1.4613  2.0397
  188SAPI  H17S21657   2.238   4.277   8.365  0.0886  0.7653 -0.3059
  188SAPI  C21821658   2.368   4.108   8.376  0.1783 -0.8800 -0.1882
  188SAPI  H18R21659   2.453   4.169   8.413  0.7745 -0.8144 -1.6454
  188SAPI  H18S21660   2.411   4.026   8.315  2.2748 -0.0291  0.0963
  188SAPI  C21921661   2.310   4.052   8.502  0.2228  0.2642  0.6072
  188SAPI  H19R21662   2.221   3.987   8.483  1.4939 -0.8585 -1.7197
  188SAPI  H19S21663   2.271   4.133   8.567  0.1243 -1.3511  2.6127
  188SAPI  C22021664   2.419   3.979   8.588  0.3874  0.9318  0.2330
  188SAPI  H20R21665   2.487   4.058   8.624  0.0874  1.1871  0.2442
  188SAPI  H20S21666   2.487   3.905   8.540 -1.8937 -0.6196 -0.7373
  188SAPI  H20T21667   2.372   3.936   8.680  0.0954 -3.3905 -1.8064
  188SAPI   C3321668   2.056   4.088   7.309  0.3198  0.3897 -0.4092
  188SAPI   H3X21669   1.945   4.089   7.299  0.3544 -1.0906 -0.9118
  188SAPI   H3Y21670   2.109   4.170   7.256  1.1435 -0.8759 -1.5655
  188SAPI   C3421671   2.091   4.103   7.463  0.5366 -0.2811 -0.5408
  188SAPI   H4X21672   2.049   4.199   7.498  0.8623 -0.6136  0.7851
  188SAPI   H4Y21673   2.199   4.119   7.483  0.5736 -2.0725  0.8487
  188SAPI   C3521674   2.042   3.995   7.561  0.1960  0.5006  0.6593
  188SAPI   H5X21675   2.090   3.896   7.548  0.2412  0.7485 -1.3293
  188SAPI   H5Y21676   1.933   3.991   7.544 -0.1557  2.8895  2.1486
  188SAPI   C3621677   2.072   4.033   7.709  0.6034 -0.1291 -0.1614
  188SAPI   H6X21678   2.015   4.124   7.737  0.2007 -0.3157 -0.3773
  188SAPI   H6Y21679   2.181   4.051   7.720  1.1519 -2.4764 -1.4117
  188SAPI   C3721680   2.029   3.924   7.807  1.0504 -0.0976  0.6175
  188SAPI   H7X21681   2.075   3.827   7.776  1.7335  0.4201  0.0102
  188SAPI   H7Y21682   1.919   3.910   7.807  1.0627 -0.2008  0.7622
  188SAPI   C3821683   2.077   3.949   7.951  0.3188  0.6761 -0.0095
  188SAPI   H8X21684   2.033   4.045   7.985  0.7544  0.3736  1.4527
  188SAPI   H8Y21685   2.186   3.964   7.936  0.6505 -2.7762 -1.6716
  188SAPI   C3921686   2.050   3.837   8.049  0.1883 -0.4608  0.1090
  188SAPI   H9X21687   2.053   3.744   7.990  0.1316  0.9433 -2.1533
  188SAPI   H9Y21688   1.952   3.845   8.100  0.3175 -0.9686  0.4331
  188SAPI  C31021689   2.156   3.835   8.158 -1.0500 -0.2599 -0.4941
  188SAPI  H10X21690   2.141   3.920   8.227  0.2281  0.5420 -1.1945
  188SAPI  H10Y21691   2.253   3.855   8.107 -0.8432 -1.6759 -0.6833
  188SAPI  C31121692   2.159   3.700   8.236 -0.7548 -0.1550  0.4505
  188SAPI  H11X21693   2.237   3.721   8.312 -3.0687  0.2868  2.7913
  188SAPI  H11Y21694   2.200   3.631   8.160 -0.5274 -1.9083  2.1241
  188SAPI  C31221695   2.024   3.674   8.312 -0.5829  0.4366  0.2209
  188SAPI  H12X21696   2.036   3.582   8.373 -0.3274  0.8587  0.8173
  188SAPI  H12Y21697   1.938   3.654   8.244 -0.6632 -0.5150  0.5964
  188SAPI  C31321698   1.983   3.779   8.416  0.1454  0.2763  0.3462
  188SAPI  H13X21699   1.972   3.877   8.364 -2.3535  0.5445  1.3497
  188SAPI  H13Y21700   2.064   3.776   8.492 -1.7860 -1.3187  2.3835
  188SAPI  C31421701   1.853   3.749   8.490 -0.8933  0.4282  0.8253
  188SAPI  H14X21702   1.881   3.650   8.532 -2.0301 -0.1899  0.1452
  188SAPI  H14Y21703   1.780   3.745   8.407 -0.2176 -0.0113  0.2482
  188SAPI  C31521704   1.818   3.844   8.604 -0.1794  0.7249  0.4678
  188SAPI  H15X21705   1.786   3.939   8.554 -2.5355  0.4058  1.3286
  188SAPI  H15Y21706   1.905   3.871   8.668 -0.5864 -1.8412  2.1439
  188SAPI  C31621707   1.704   3.792   8.695  1.1244  0.1986  0.1370
  188SAPI  H16X21708   1.731   3.690   8.731 -0.1969 -0.9356 -1.9645
  188SAPI  H16Y21709   1.614   3.789   8.630  2.7014  2.2689 -2.2390
  188SAPI  C31721710   1.677   3.871   8.823  0.1061 -0.4493  0.1548
  188SAPI  H17X21711   1.675   3.978   8.793 -0.6527 -0.0856  1.4777
  188SAPI  H17Y21712   1.769   3.859   8.884 -0.2021  0.7261  0.8679
  188SAPI  C31821713   1.552   3.840   8.900  0.3172  0.6446 -0.6424
  188SAPI  H18X21714   1.524   3.926   8.964 -1.7747  2.0480 -3.3368
  188SAPI  H18Y21715   1.565   3.746   8.958 -1.3872  0.0936 -1.1291
  188SAPI  H18Z21716   1.478   3.830   8.818  0.1666 -0.2545 -0.4028
  189POPC     N21717   2.185   5.396  11.161  0.2448  0.0069  0.1472
  189POPC   C1221718   2.041   5.352  11.182  0.1558  0.0495  0.3350
  189POPC  H12A21719   2.039   5.303  11.279 -4.3893  0.1826  0.4097
  189POPC  H12B21720   2.013   5.269  11.119  0.4805  0.0835  0.1502
  189POPC   C1321721   2.282   5.293  11.201  0.2746 -1.0013  0.0939
  189POPC  H13A21722   2.266   5.266  11.304 -0.3240 -0.3082  0.1850
  189POPC  H13B21723   2.273   5.202  11.144  2.1142 -0.8183 -0.5508
  189POPC  H13C21724   2.381   5.334  11.182 -0.1688  1.2932  2.5129
  189POPC   C1421725   2.199   5.429  11.010 -0.4645 -0.5841  0.4431
  189POPC  H14A21726   2.117   5.485  10.970  1.2239 -0.4026 -2.9020
  189POPC  H14B21727   2.289   5.483  10.983  0.1280 -0.7869  1.9609
  189POPC  H14C21728   2.196   5.335  10.957  0.1459  0.2162 -1.0381
  189POPC   C1521729   2.220   5.525  11.236 -0.7109 -0.6031  0.0933
  189POPC  H15A21730   2.207   5.513  11.343  1.3087 -1.0710  0.3114
  189POPC  H15B21731   2.154   5.603  11.203 -0.2011  0.0072  0.4964
  189POPC  H15C21732   2.326   5.544  11.226 -0.9859  1.3074  0.7143
  189POPC   C1121733   1.926   5.452  11.172 -0.1210  0.5468  0.2141
  189POPC  H11A21734   1.937   5.546  11.230  1.7081  0.8820 -0.6578
  189POPC  H11B21735   1.839   5.394  11.209  0.4736 -0.6718 -0.3016
  189POPC     P21736   1.846   5.400  10.931 -0.3932 -0.1330  0.6379
  189POPC   O1321737   1.704   5.384  10.966 -0.3203 -0.5631  0.0625
  189POPC   O1421738   1.930   5.278  10.917 -0.0849 -0.2106  0.0592
  189POPC   O1221739   1.913   5.497  11.034 -0.8855  0.3145 -0.5842
  189POPC   O1121740   1.876   5.470  10.792 -0.1887 -0.7816 -0.0417
  189POPC    C121741   1.814   5.598  10.764  0.1380 -0.5098  0.1101
  189POPC    HA21742   1.872   5.684  10.804  1.0612 -1.6101  1.1877
  189POPC    HB21743   1.715   5.616  10.811 -0.4686 -2.5493 -0.3501
  189POPC    C221744   1.802   5.629  10.614 -0.1992 -0.2980  0.4624
  189POPC    HS21745   1.767   5.734  10.608  1.1920  0.2627  2.1135
  189POPC   O2121746   1.713   5.536  10.545  0.2792  0.2557  0.5985
  189POPC   C2121747   1.582   5.557  10.556  0.1435 -0.1862  0.3085
  189POPC   O2221748   1.521   5.662  10.579 -0.0337 -0.2027  0.2502
  189POPC   C2221749   1.509   5.430  10.525 -0.4654 -0.0244  0.0607
  189POPC   H2R21750   1.402   5.449  10.544 -0.1565  1.6836  0.1299
  189POPC   H2S21751   1.530   5.343  10.591 -1.2120  1.0973  1.8087
  189POPC    C321752   1.946   5.624  10.555 -0.4432  0.3093  0.3979
  189POPC    HX21753   1.992   5.527  10.584  0.5261  0.8812  0.8165
  189POPC    HY21754   2.008   5.697  10.611  0.4312 -0.0336 -0.1216
  189POPC   O3121755   1.945   5.643  10.412 -0.1208  0.2652  0.3644
  189POPC   C3121756   2.073   5.622  10.361  0.2356  0.2697  0.2511
  189POPC   O3221757   2.166   5.589  10.429 -0.2869  0.1223 -0.0559
  189POPC   C3221758   2.083   5.661  10.220  0.1706 -0.5428 -0.3352
  189POPC   H2X21759   2.142   5.755  10.213 -0.1722 -0.2134  0.9719
  189POPC   H2Y21760   1.984   5.672  10.171  0.2517  0.5740 -0.2665
  189POPC   C2321761   1.529   5.390  10.371  1.1292  0.3375 -0.0522
  189POPC   H3R21762   1.512   5.476  10.303 -0.7754  0.0003 -0.0216
  189POPC   H3S21763   1.461   5.303  10.355  2.1513 -0.4083 -0.4124
  189POPC   C2421764   1.667   5.341  10.353  0.2899  0.1531  0.3813
  189POPC   H4R21765   1.712   5.287  10.440  1.9560  2.3976  0.9523
  189POPC   H4S21766   1.738   5.425  10.337  1.3866 -0.9337 -0.6495
  189POPC   C2521767   1.674   5.239  10.241  0.2575 -0.2952  0.3621
  189POPC   H5R21768   1.631   5.288  10.150 -1.4909 -0.2570  1.1949
  189POPC   H5S21769   1.618   5.146  10.264  1.4729 -0.3969  3.0791
  189POPC   C2621770   1.823   5.198  10.222  0.2513 -0.0036  0.0443
  189POPC   H6R21771   1.869   5.174  10.320 -0.7072 -2.1530 -0.0069
  189POPC   H6S21772   1.875   5.291  10.190  1.9670 -1.0442 -0.2683
  189POPC   C2721773   1.839   5.086  10.123 -0.2558  0.6213  0.1183
  189POPC   H7R21774   1.787   4.991  10.148 -1.4185  1.3324  0.4141
  189POPC   H7S21775   1.946   5.054  10.125 -0.0826  1.2849  2.3361
  189POPC   C2821776   1.815   5.110   9.968 -0.2993  0.0623  0.1277
  189POPC   H8R21777   1.707   5.130   9.952 -0.5863 -1.2685  0.3289
  189POPC   H8S21778   1.819   5.021   9.901  1.1721 -0.2238  0.5739
  189POPC   C2921779   1.896   5.224   9.914 -0.6391  0.2611  0.1930
  189POPC   H9121780   1.918   5.306   9.984  1.5791 -1.4073  1.5267
  189POPC  C21021781   1.953   5.230   9.792 -0.1738  0.4789 -0.1260
  189POPC  H10121782   2.006   5.324   9.772  0.3383  0.6966  2.1150
  189POPC  C21121783   1.935   5.133   9.679 -0.0577 -0.3282 -0.0247
  189POPC  H11R21784   1.865   5.053   9.710  0.0596  0.2993  1.9107
  189POPC  H11S21785   2.025   5.074   9.652 -0.4635  0.0898 -2.4260
  189POPC  C21221786   1.881   5.196   9.546 -0.2963  0.0270  0.6133
  189POPC  H12R21787   1.950   5.277   9.514 -0.3528  0.2034  0.9325
  189POPC  H12S21788   1.779   5.237   9.564  0.2921  1.4518  0.8136
  189POPC  C21321789   1.876   5.099   9.427 -0.7172 -0.5873  0.6783
  189POPC  H13R21790   1.777   5.049   9.434 -0.6198 -1.0889 -1.2324
  189POPC  H13S21791   1.951   5.018   9.441  1.8048  1.7538  1.2647
  189POPC  C21421792   1.888   5.163   9.285 -0.2266  0.4249 -0.5329
  189POPC  H14R21793   1.958   5.249   9.288  1.2604 -0.7582 -0.3417
  189POPC  H14S21794   1.789   5.192   9.245 -1.9958 -1.7922  2.0480
  189POPC  C21521795   1.950   5.068   9.175 -0.8669 -0.1580 -0.1813
  189POPC  H15R21796   1.880   4.983   9.161 -1.5539  0.2892  0.4677
  189POPC  H15S21797   2.053   5.035   9.199 -0.5237  0.8207 -0.2927
  189POPC  C21621798   1.978   5.154   9.045  0.8101  0.2951 -0.0632
  189POPC  H16R21799   2.034   5.246   9.071 -2.2567  3.1524 -3.1471
  189POPC  H16S21800   1.873   5.180   9.021  0.4182 -2.2447 -1.3291
  189POPC  C21721801   2.047   5.071   8.929  0.3405  0.5255  0.2030
  189POPC  H17R21802   1.982   4.994   8.883 -0.8546  0.3415  2.1709
  189POPC  H17S21803   2.141   5.023   8.963 -2.2797 -3.3095  2.3011
  189POPC  C21821804   2.086   5.162   8.812 -0.0930 -0.3254 -0.6449
  189POPC  H18R21805   2.129   5.105   8.727 -0.2474  0.7020 -1.4168
  189POPC  H18S21806   2.154   5.238   8.856 -3.5150  1.9159  1.0027
  189POPC  H18T21807   1.992   5.210   8.777 -0.7443 -0.5934  0.7002
  189POPC   C3321808   2.160   5.548  10.147 -0.2245  0.1496 -0.1739
  189POPC   H3X21809   2.089   5.471  10.112 -1.0969  0.0225  1.8375
  189POPC   H3Y21810   2.236   5.503  10.214 -1.1343 -1.4407 -0.1938
  189POPC   C3421811   2.231   5.598  10.020 -0.6850  0.5768 -1.0297
  189POPC   H4X21812   2.310   5.523   9.998 -1.4668 -0.5197 -0.1632
  189POPC   H4Y21813   2.284   5.695  10.028  0.5324 -0.0473 -1.4430
  189POPC   C3521814   2.138   5.612   9.889 -0.8189  0.5676 -0.8557
  189POPC   H5X21815   2.048   5.674   9.911  0.8810  2.6363  0.3825
  189POPC   H5Y21816   2.097   5.510   9.869 -0.4557  0.3256 -0.3842
  189POPC   C3621817   2.215   5.669   9.773  0.0606  0.3735  0.4983
  189POPC   H6X21818   2.307   5.611   9.747  1.2999  2.2694  0.5498
  189POPC   H6Y21819   2.244   5.772   9.800 -1.2651  0.8499  0.1357
  189POPC   C3721820   2.134   5.650   9.640  0.1947 -0.6614  0.1968
  189POPC   H7X21821   2.039   5.706   9.655  0.1149 -0.6611 -0.3022
  189POPC   H7Y21822   2.095   5.549   9.614 -3.1149 -0.1787  2.9487
  189POPC   C3821823   2.200   5.704   9.515  0.6586 -0.6353 -0.2555
  189POPC   H8X21824   2.279   5.643   9.468 -0.0802 -1.7826 -0.0300
  189POPC   H8Y21825   2.255   5.800   9.527  0.4349 -0.3483 -1.4727
  189POPC   C3921826   2.096   5.723   9.408 -0.1741  0.6328  0.7601
  189POPC   H9X21827   2.016   5.790   9.445  0.5447  0.8584  1.9186
  189POPC   H9Y21828   2.052   5.623   9.385 -2.4276  1.5278  1.0736
  189POPC  C31021829   2.145   5.783   9.272  0.0270 -0.1795  0.3091
  189POPC  H10X21830   2.208   5.701   9.232  0.6201  0.1157  0.6294
  189POPC  H10Y21831   2.204   5.876   9.291 -0.3571  0.6079 -2.1901
  189POPC  C31121832   2.038   5.820   9.165 -0.5253  0.4870 -0.2174
  189POPC  H11X21833   1.963   5.879   9.221 -1.0574 -0.2344 -0.1611
  189POPC  H11Y21834   1.987   5.727   9.129  1.2266  0.6285 -3.3135
  189POPC  C31221835   2.098   5.891   9.046 -0.2314 -0.5384 -0.5798
  189POPC  H12X21836   2.165   5.819   8.994 -2.1468 -1.6040 -1.5964
  189POPC  H12Y21837   2.154   5.978   9.087  0.8748 -1.7105  0.4631
  189POPC  C31321838   1.985   5.939   8.960  0.0966  0.4424 -0.0904
  189POPC  H13X21839   1.935   6.031   8.997  1.2607  0.5950  1.1299
  189POPC  H13Y21840   1.903   5.865   8.948 -0.9897  1.7619 -1.0537
  189POPC  C31421841   2.048   5.987   8.823 -0.4834  0.2468  0.0411
  189POPC  H14X21842   2.096   5.893   8.788  0.7667  1.4975 -1.6768
  189POPC  H14Y21843   2.119   6.067   8.850 -1.2083  0.6382  0.8148
  189POPC  C31521844   1.951   6.024   8.710  0.8416 -0.0863 -0.5085
  189POPC  H15X21845   1.918   6.123   8.747  1.7011 -0.3513  0.9807
  189POPC  H15Y21846   1.872   5.946   8.706 -0.8857  1.6645 -1.2819
  189POPC  C31621847   2.015   6.025   8.577 -0.5881  0.4879 -0.0739
  189POPC  H16X21848   2.115   6.073   8.574 -0.1986 -0.3234 -0.2140
  189POPC  H16Y21849   1.949   6.076   8.503  1.0338  0.4253 -1.6173
  189POPC  H16Z21850   2.038   5.923   8.539  2.3962  1.0270  0.1385
  190POPC     N21851   3.455   2.228  11.161  0.2717 -0.0164 -0.3450
  190POPC   C1221852   3.503   2.196  11.021  0.6828 -0.2450  0.3761
  190POPC  H12A21853   3.512   2.295  10.978  1.8627 -0.5452 -0.0852
  190POPC  H12B21854   3.428   2.135  10.973 -1.1080  2.2312 -0.1106
  190POPC   C1321855   3.434   2.115  11.252  0.6888  0.4048  0.0103
  190POPC  H13A21856   3.362   2.051  11.205  1.5303  0.3952 -1.2909
  190POPC  H13B21857   3.525   2.061  11.272  1.5203  1.6833 -0.2006
  190POPC  H13C21858   3.402   2.145  11.351 -0.1339 -0.7565  0.1036
  190POPC   C1421859   3.551   2.321  11.215  0.9556  0.0169 -0.2424
  190POPC  H14A21860   3.515   2.376  11.302 -0.1721 -0.8824 -0.1274
  190POPC  H14B21861   3.639   2.266  11.246  1.2049  1.1181  1.0722
  190POPC  H14C21862   3.575   2.401  11.146 -1.1677  0.4245 -0.5624
  190POPC   C1521863   3.319   2.298  11.146  0.3573  0.3576  0.3922
  190POPC  H15A21864   3.326   2.397  11.102 -0.7858  0.2979  0.0489
  190POPC  H15B21865   3.274   2.322  11.241  0.3278  2.9203 -0.2272
  190POPC  H15C21866   3.241   2.248  11.090  1.0096  1.6329 -1.6934
  190POPC   C1121867   3.644   2.128  11.002  0.2273 -0.1797  0.4380
  190POPC  H11A21868   3.652   2.089  10.898  0.4919  0.3477  0.2603
  190POPC  H11B21869   3.650   2.041  11.070 -2.0287 -0.6793  0.0316
  190POPC     P21870   3.788   2.336  10.943  0.0175 -0.1108 -0.0400
  190POPC   O1321871   3.923   2.386  10.978  0.3792  0.5403 -0.0507
  190POPC   O1421872   3.683   2.434  10.941 -0.5863  0.1475 -0.4009
  190POPC   O1221873   3.755   2.215  11.038  1.1462  0.1725  0.3171
  190POPC   O1121874   3.797   2.265  10.803 -0.0150 -0.0478 -0.2655
  190POPC    C121875   3.907   2.183  10.758 -0.2875 -0.1453 -0.5366
  190POPC    HA21876   3.876   2.077  10.772  0.5989 -0.3438 -0.0766
  190POPC    HB21877   3.996   2.208  10.820 -0.0996  2.0316 -1.6223
  190POPC    C221878   3.946   2.231  10.616 -0.1254 -0.4326 -0.0674
  190POPC    HS21879   3.960   2.341  10.613 -1.6431 -0.2814 -2.0370
  190POPC   O2121880   3.840   2.192  10.528 -0.5165  0.3751 -0.5232
  190POPC   C2121881   3.811   2.275  10.431 -0.1314  0.5076 -0.2619
  190POPC   O2221882   3.862   2.383  10.411 -0.0983  0.5960  0.1168
  190POPC   C2221883   3.699   2.209  10.349 -0.5553 -0.2263  0.0700
  190POPC   H2R21884   3.621   2.182  10.423  1.4584  0.4374  2.5210
  190POPC   H2S21885   3.743   2.114  10.312 -0.6831 -0.4880  0.5763
  190POPC    C321886   4.085   2.170  10.573  0.3631 -0.9788  0.2778
  190POPC    HX21887   4.158   2.212  10.645  0.8883 -1.6482  0.1304
  190POPC    HY21888   4.104   2.203  10.469 -2.5692  1.3190  0.3844
  190POPC   O3121889   4.071   2.024  10.573  0.3784  0.1530 -0.0548
  190POPC   C3121890   4.164   1.952  10.627  0.0995  0.5527 -0.5110
  190POPC   O3221891   4.262   1.995  10.684 -0.1846  0.1165  0.3067
  190POPC   C3221892   4.119   1.810  10.627  0.1497  0.0459  0.5043
  190POPC   H2X21893   4.018   1.801  10.584  0.1888 -0.7912  0.5889
  190POPC   H2Y21894   4.122   1.782  10.735  3.5438  0.6507  0.6270
  190POPC   C2321895   3.640   2.279  10.220  0.4114  0.0828 -0.5291
  190POPC   H3R21896   3.614   2.385  10.241 -1.6880 -0.4699 -0.1078
  190POPC   H3S21897   3.543   2.230  10.193 -0.1734  1.1099 -0.3286
  190POPC   C2421898   3.745   2.272  10.100 -0.2238 -0.0610  0.1466
  190POPC   H4R21899   3.801   2.177  10.116 -1.6828 -1.2989 -1.9019
  190POPC   H4S21900   3.807   2.364  10.092 -2.1948  1.1300 -1.9078
  190POPC   C2521901   3.663   2.272   9.968 -0.3753  0.1636 -0.1372
  190POPC   H5R21902   3.599   2.362   9.959  1.2488  1.5504  1.9227
  190POPC   H5S21903   3.594   2.185   9.976 -0.7869  0.6034  1.3633
  190POPC   C2621904   3.749   2.275   9.847  0.4453 -0.0385  0.2600
  190POPC   H6R21905   3.828   2.197   9.852  2.4302  1.9128  0.3673
  190POPC   H6S21906   3.806   2.370   9.848  0.3952 -0.0002 -0.4142
  190POPC   C2721907   3.660   2.253   9.723 -0.5902 -0.3031 -0.1550
  190POPC   H7R21908   3.566   2.312   9.729 -0.6688 -0.6193  2.1245
  190POPC   H7S21909   3.635   2.145   9.721 -1.7828 -0.0307 -0.4485
  190POPC   C2821910   3.731   2.294   9.588  0.5143 -0.5474  0.6815
  190POPC   H8R21911   3.770   2.398   9.599  0.4393 -0.2693 -1.3661
  190POPC   H8S21912   3.640   2.308   9.525 -0.1152  3.0405  2.2442
  190POPC   C2921913   3.832   2.187   9.544 -0.1731  0.5718 -0.4896
  190POPC   H9121914   3.925   2.186   9.603 -0.8654  1.1914  0.6297
  190POPC  C21021915   3.821   2.101   9.442  0.3546 -0.8852 -0.2487
  190POPC  H10121916   3.903   2.032   9.418  1.5257  0.8941 -1.4932
  190POPC  C21121917   3.701   2.102   9.355  0.3923  0.7197  0.1778
  190POPC  H11R21918   3.612   2.103   9.421  3.3545 -0.2493  4.4016
  190POPC  H11S21919   3.699   2.001   9.307  2.7315 -0.5549  2.6356
  190POPC  C21221920   3.690   2.201   9.236  0.3988  0.2570  0.2525
  190POPC  H12R21921   3.727   2.300   9.270  0.8245  0.2659 -0.2343
  190POPC  H12S21922   3.582   2.217   9.212  0.4622  0.7300  0.2846
  190POPC  C21321923   3.762   2.158   9.104  0.2006  0.7024 -0.1568
  190POPC  H13R21924   3.706   2.065   9.079  0.5510  0.6339 -0.7028
  190POPC  H13S21925   3.871   2.143   9.121  1.0571  1.8401 -4.1868
  190POPC  C21421926   3.740   2.250   8.982 -0.2928 -0.2680 -0.2840
  190POPC  H14R21927   3.772   2.348   9.024 -3.4613 -0.1762  2.1305
  190POPC  H14S21928   3.634   2.265   8.950 -0.9530  1.2431  2.3796
  190POPC  C21521929   3.835   2.209   8.872  0.1367 -0.1461 -0.1096
  190POPC  H15R21930   3.851   2.100   8.885  0.5856  0.1157  1.8119
  190POPC  H15S21931   3.934   2.251   8.902  1.5963 -2.0336 -2.1949
  190POPC  C21621932   3.787   2.255   8.733  0.8078 -0.7428 -0.1702
  190POPC  H16R21933   3.808   2.364   8.731  1.7200 -0.9163 -3.2192
  190POPC  H16S21934   3.680   2.234   8.710  0.0628  0.1617  2.3184
  190POPC  C21721935   3.867   2.201   8.611 -0.8019 -0.7097 -0.1137
  190POPC  H17R21936   3.809   2.233   8.521 -0.8478  1.4554  0.6469
  190POPC  H17S21937   3.872   2.091   8.610 -0.1361 -0.6920 -2.4315
  190POPC  C21821938   4.018   2.253   8.617 -0.1696 -0.2770 -0.2724
  190POPC  H18R21939   4.026   2.350   8.563 -1.0807  0.4256  0.8139
  190POPC  H18S21940   4.090   2.181   8.574 -0.4957 -0.5216 -0.4077
  190POPC  H18T21941   4.043   2.277   8.723 -0.7006 -0.2316 -0.1575
  190POPC   C3321942   4.229   1.726  10.551  0.5532  0.4485 -0.4516
  190POPC   H3X21943   4.203   1.625  10.588  0.1330  0.4446 -0.7576
  190POPC   H3Y21944   4.331   1.756  10.583  1.0169  1.0996 -2.4771
  190POPC   C3421945   4.217   1.739  10.393  0.7996  0.5436 -0.2117
  190POPC   H4X21946   4.215   1.847  10.366  0.6588  0.6903  0.3853
  190POPC   H4Y21947   4.120   1.696  10.361 -0.9685  1.3903  3.7734
  190POPC   C3521948   4.333   1.681  10.308 -0.2222  0.0076 -0.0136
  190POPC   H5X21949   4.324   1.571  10.319 -0.2804 -0.0850 -0.9700
  190POPC   H5Y21950   4.430   1.723  10.344  0.0481 -2.2692  2.0631
  190POPC   C3621951   4.323   1.726  10.161 -0.0500  0.3485  0.7397
  190POPC   H6X21952   4.341   1.833  10.139 -0.3741  0.2405 -0.0682
  190POPC   H6Y21953   4.218   1.703  10.132  0.4657 -1.8606  0.5172
  190POPC   C3721954   4.421   1.662  10.058  0.0773 -0.4786  0.3754
  190POPC   H7X21955   4.421   1.551  10.061  0.0359 -0.4581  1.4462
  190POPC   H7Y21956   4.523   1.689  10.095  0.9047 -1.0411 -1.4403
  190POPC   C3821957   4.386   1.713   9.921  0.0930  0.1213 -0.7788
  190POPC   H8X21958   4.400   1.823   9.916  0.1910  0.2164  1.2024
  190POPC   H8Y21959   4.282   1.680   9.900  0.2656 -0.7676 -0.2467
  190POPC   C3921960   4.478   1.663   9.813 -0.5316 -0.3517  0.1319
  190POPC   H9X21961   4.466   1.553   9.801  0.8860 -0.4057 -0.8501
  190POPC   H9Y21962   4.582   1.685   9.845 -1.0835  0.7247  1.2465
  190POPC  C31021963   4.446   1.727   9.680 -0.4191 -0.1836  0.2084
  190POPC  H10X21964   4.472   1.835   9.676 -0.5695 -0.1433  0.3401
  190POPC  H10Y21965   4.339   1.715   9.655 -0.2261 -0.7169 -0.3951
  190POPC  C31121966   4.521   1.657   9.561  0.2229 -0.3152  0.2397
  190POPC  H11X21967   4.508   1.546   9.562 -1.5287 -0.1540 -1.2119
  190POPC  H11Y21968   4.629   1.659   9.586 -0.1129  0.3754  1.7249
  190POPC  C31221969   4.500   1.717   9.425 -0.2717  0.6568 -0.6196
  190POPC  H12X21970   4.568   1.804   9.422  0.2389  0.3461  1.4320
  190POPC  H12Y21971   4.392   1.745   9.419 -0.8035 -0.0319  4.0082
  190POPC  C31321972   4.527   1.621   9.304 -0.0050  0.5978 -0.8530
  190POPC  H13X21973   4.464   1.531   9.316  2.1437 -0.7914  0.4100
  190POPC  H13Y21974   4.633   1.586   9.303  0.5280  2.0874  0.7600
  190POPC  C31421975   4.519   1.699   9.171 -0.2098  0.1756  0.0815
  190POPC  H14X21976   4.581   1.791   9.171 -0.8931  0.6644  1.9882
  190POPC  H14Y21977   4.412   1.729   9.167 -0.2767  0.0677  1.0951
  190POPC  C31521978   4.546   1.611   9.048 -0.5416 -0.1311  0.0358
  190POPC  H15X21979   4.501   1.512   9.068  0.5909 -0.7597 -0.4928
  190POPC  H15Y21980   4.656   1.593   9.040 -0.6028  0.1737 -1.5812
  190POPC  C31621981   4.488   1.669   8.921  0.0666  0.4423 -0.2963
  190POPC  H16X21982   4.379   1.654   8.905  0.1021  0.5316 -0.6275
  190POPC  H16Y21983   4.536   1.638   8.826 -0.7792  3.8847 -1.9537
  190POPC  H16Z21984   4.495   1.780   8.931 -1.0987  0.3440  1.7687
  191POPC     N21985   4.667   3.563   6.011  0.7493 -0.4096  0.2239
  191POPC   C1221986   4.639   3.539   6.158 -0.0661 -0.2070  0.2507
  191POPC  H12A21987   4.531   3.546   6.163  0.0394  1.0156  1.0518
  191POPC  H12B21988   4.698   3.608   6.217  0.2400 -0.1792 -0.0855
  191POPC   C1321989   4.595   3.689   5.959  0.8057  0.1782 -0.2656
  191POPC  H13A21990   4.626   3.728   5.863  1.1304 -0.0847 -0.2704
  191POPC  H13B21991   4.489   3.678   5.946  0.8936  0.0169 -0.8690
  191POPC  H13C21992   4.619   3.772   6.024  2.3499  1.2134 -2.0690
  191POPC   C1421993   4.807   3.590   5.979 -0.7253 -0.1079 -0.1715
  191POPC  H14A21994   4.858   3.644   6.058 -2.3805  0.1794  0.7089
  191POPC  H14B21995   4.857   3.495   5.970  1.0048  0.6284  1.2414
  191POPC  H14C21996   4.814   3.646   5.887 -0.3616  0.2488  0.0711
  191POPC   C1521997   4.615   3.454   5.928 -0.1672 -0.0467 -0.0462
  191POPC  H15A21998   4.620   3.474   5.822  0.1422  1.3452  0.2294
  191POPC  H15B21999   4.512   3.435   5.955 -0.3824 -0.2872 -1.0182
  191POPC  H15C22000   4.663   3.358   5.943  0.2565  0.3153  0.9414
  191POPC   C1122001   4.670   3.409   6.220  0.8738  0.7651 -0.2423
  191POPC  H11A22002   4.592   3.345   6.173 -0.1070  1.5556  0.2867
  191POPC  H11B22003   4.654   3.409   6.330 -3.0050 -0.6906 -0.7368
  191POPC     P22004   4.920   3.374   6.298 -0.4265 -0.1802 -0.0826
  191POPC   O1322005   4.975   3.513   6.284 -0.3028 -0.4643  0.8541
  191POPC   O1422006   5.008   3.256   6.268 -0.0662  0.3238  0.0243
  191POPC   O1222007   4.798   3.360   6.193 -0.2182 -0.1434  0.3052
  191POPC   O1122008   4.846   3.356   6.438  0.0881 -0.3194  0.0644
  191POPC    C122009   4.782   3.232   6.479 -0.2777 -0.0833  0.1409
  191POPC    HA22010   4.774   3.159   6.396  0.1040  1.5556 -1.3715
  191POPC    HB22011   4.680   3.258   6.516 -0.3963 -0.2029 -0.0998
  191POPC    C222012   4.845   3.168   6.606 -0.1402  0.0844  0.1812
  191POPC    HS22013   4.773   3.092   6.644  0.0561  1.0805  2.6018
  191POPC   O2122014   4.853   3.270   6.713 -0.0525 -0.0188 -0.4059
  191POPC   C2122015   4.747   3.285   6.777  0.0076 -0.4278 -0.1055
  191POPC   O2222016   4.638   3.232   6.758 -0.0083  0.4981  0.2184
  191POPC   C2222017   4.779   3.392   6.886  0.0988  0.1810 -0.2095
  191POPC   H2R22018   4.759   3.489   6.838  0.3239  0.3499  0.0334
  191POPC   H2S22019   4.885   3.393   6.920 -0.1648 -0.9280  0.6771
  191POPC    C322020   4.980   3.097   6.584  0.4927  0.0353  0.0038
  191POPC    HX22021   5.063   3.171   6.587  1.6436 -1.1955 -0.7082
  191POPC    HY22022   4.971   3.044   6.487 -1.3007  0.9514 -0.3466
  191POPC   O3122023   5.003   3.008   6.694 -0.7978  0.6531 -0.6407
  191POPC   C3122024   4.952   2.887   6.676  0.4828  0.1896  0.4794
  191POPC   O3222025   4.885   2.853   6.582 -0.5012  0.2499 -0.3852
  191POPC   C3222026   4.987   2.802   6.799 -0.1159 -1.3010 -0.4566
  191POPC   H2X22027   5.088   2.759   6.781 -0.0170 -0.7796 -1.1698
  191POPC   H2Y22028   4.914   2.719   6.812  0.2088 -1.4730  0.3242
  191POPC   C2322029   4.685   3.368   7.002 -0.2288  0.5234 -0.0550
  191POPC   H3R22030   4.696   3.263   7.035 -1.8501  0.2092 -0.4778
  191POPC   H3S22031   4.583   3.392   6.967  0.1604  0.8995 -0.9682
  191POPC   C2422032   4.727   3.453   7.126  0.6155  0.1216  0.3677
  191POPC   H4R22033   4.726   3.559   7.095 -0.5525 -0.1197 -0.4810
  191POPC   H4S22034   4.830   3.423   7.153  0.3412 -0.4814  0.7846
  191POPC   C2522035   4.621   3.427   7.231  0.4794  0.2548 -0.4447
  191POPC   H5R22036   4.631   3.318   7.254 -2.8962 -0.1379 -0.5928
  191POPC   H5S22037   4.519   3.443   7.191 -0.7346  0.3573  2.5667
  191POPC   C2622038   4.640   3.510   7.359 -0.4513  0.5357  0.4798
  191POPC   H6R22039   4.560   3.484   7.431 -0.9578  1.1742  0.1465
  191POPC   H6S22040   4.637   3.619   7.338 -0.9736  0.6097  0.9474
  191POPC   C2722041   4.777   3.483   7.425 -0.1115  0.4055 -0.1037
  191POPC   H7R22042   4.865   3.505   7.360 -0.5076  0.4655 -0.6204
  191POPC   H7S22043   4.782   3.373   7.430  0.8195  0.4851  1.0304
  191POPC   C2822044   4.786   3.550   7.564  0.0045 -0.3910  0.4831
  191POPC   H8R22045   4.715   3.510   7.639  2.1493  0.9847  3.3205
  191POPC   H8S22046   4.771   3.660   7.557 -0.0072 -0.3789  0.7001
  191POPC   C2922047   4.920   3.537   7.626  0.4181 -0.6371  0.0688
  191POPC   H9122048   5.004   3.557   7.558  0.6765 -3.1996 -0.4373
  191POPC  C21022049   4.948   3.497   7.754 -0.2037 -0.8429  0.1089
  191POPC  H10122050   5.051   3.496   7.791  0.7229  0.7569 -2.3227
  191POPC  C21122051   4.846   3.442   7.849  0.3491 -0.1885 -0.1562
  191POPC  H11R22052   4.786   3.362   7.800 -0.1289  0.5311 -0.7583
  191POPC  H11S22053   4.782   3.526   7.882  1.5505  0.3641  0.8281
  191POPC  C21222054   4.912   3.382   7.980  0.5001 -0.1416 -0.2307
  191POPC  H12R22055   4.933   3.471   8.043  0.2177 -1.0576  1.1915
  191POPC  H12S22056   4.995   3.310   7.963  0.8960 -0.2113  1.7967
  191POPC  C21322057   4.809   3.314   8.081 -0.0033  0.8108  0.1748
  191POPC  H13R22058   4.781   3.209   8.057  1.3129  0.6795 -0.8094
  191POPC  H13S22059   4.708   3.359   8.072 -0.6918 -0.9540 -1.1899
  191POPC  C21422060   4.845   3.343   8.234 -0.0427 -1.1163 -0.1995
  191POPC  H14R22061   4.840   3.454   8.238 -1.1774 -1.1289 -0.8411
  191POPC  H14S22062   4.951   3.317   8.252  0.1872  1.4834  2.5876
  191POPC  C21522063   4.740   3.283   8.333  0.0486  0.2184  0.5238
  191POPC  H15R22064   4.750   3.172   8.332  0.9318  0.2997 -0.0820
  191POPC  H15S22065   4.634   3.310   8.309 -0.5112 -1.0766  1.5014
  191POPC  C21622066   4.773   3.325   8.473 -0.1598 -0.0020  0.5247
  191POPC  H16R22067   4.764   3.435   8.483 -0.8994 -0.1041  1.0474
  191POPC  H16S22068   4.875   3.304   8.512 -0.0023  0.6121  0.4423
  191POPC  C21722069   4.676   3.270   8.580 -0.0564 -0.3610 -0.1362
  191POPC  H17R22070   4.640   3.168   8.552  0.5264 -0.5529 -0.1840
  191POPC  H17S22071   4.583   3.331   8.585 -0.3626 -0.9125  1.2061
  191POPC  C21822072   4.727   3.280   8.720 -0.4953  0.3935  0.5798
  191POPC  H18R22073   4.811   3.210   8.735 -1.3232 -0.7122  0.1972
  191POPC  H18S22074   4.649   3.254   8.795  1.9638 -0.4241  2.9047
  191POPC  H18T22075   4.761   3.382   8.749 -1.8238 -0.0442  3.9247
  191POPC   C3322076   5.006   2.877   6.931  0.5009  0.5234 -0.6403
  191POPC   H3X22077   5.072   2.965   6.919 -0.9347  1.6750 -0.3114
  191POPC   H3Y22078   5.039   2.799   7.004 -1.5044 -1.5535 -1.8878
  191POPC   C3422079   4.881   2.935   6.992 -0.4406 -0.3354  0.1582
  191POPC   H4X22080   4.811   2.852   7.018  1.0897 -1.0403  2.1433
  191POPC   H4Y22081   4.842   3.006   6.916 -1.9164 -1.0300  0.2491
  191POPC   C3522082   4.913   3.019   7.122  0.0472  0.1368 -0.6658
  191POPC   H5X22083   4.931   3.123   7.089  2.1740  0.1152  0.3902
  191POPC   H5Y22084   5.006   2.978   7.167 -0.4509  0.5566  0.7605
  191POPC   C3622085   4.799   3.026   7.219  0.1022 -0.3005  0.0646
  191POPC   H6X22086   4.757   2.925   7.236  0.5283 -0.1844  1.9307
  191POPC   H6Y22087   4.714   3.073   7.165 -0.7713 -1.2579  0.5884
  191POPC   C3722088   4.842   3.106   7.338 -0.2253 -0.5514  0.1235
  191POPC   H7X22089   4.758   3.129   7.407  0.9937  2.8843  0.5207
  191POPC   H7Y22090   4.887   3.201   7.302 -0.4359 -0.2940  0.5351
  191POPC   C3822091   4.917   3.021   7.442 -0.5345  1.0937  0.2087
  191POPC   H8X22092   5.017   3.005   7.398 -0.2694 -0.0112  1.1866
  191POPC   H8Y22093   4.874   2.920   7.458  2.1941  0.0991  1.4536
  191POPC   C3922094   4.909   3.076   7.581 -0.0370 -0.6982 -1.3540
  191POPC   H9X22095   4.805   3.074   7.618  0.4441  1.0587  0.1866
  191POPC   H9Y22096   4.952   3.178   7.582 -0.3605 -0.5365  1.1353
  191POPC  C31022097   4.997   2.993   7.676  0.1787  0.2825  0.1274
  191POPC  H10X22098   5.103   3.019   7.658 -0.0771  2.1847  1.2740
  191POPC  H10Y22099   4.989   2.882   7.665 -0.6972  0.2705  0.7838
  191POPC  C31122100   4.975   3.015   7.819 -0.0697  0.2449 -0.3351
  191POPC  H11X22101   4.866   3.013   7.840  0.0910 -1.4779  0.4120
  191POPC  H11Y22102   5.016   3.117   7.834  0.7383  0.0497 -1.1918
  191POPC  C31222103   5.041   2.914   7.912 -0.2758  1.4359 -0.2971
  191POPC  H12X22104   5.150   2.908   7.891 -0.3183 -0.9909 -0.0686
  191POPC  H12Y22105   4.993   2.818   7.883  0.0954  1.3279 -0.5593
  191POPC  C31322106   5.015   2.948   8.055  0.1818 -0.6968  0.0783
  191POPC  H13X22107   4.907   2.967   8.076  0.4546 -0.8061  1.6043
  191POPC  H13Y22108   5.067   3.044   8.076 -2.1783  0.1692  2.2616
  191POPC  C31422109   5.066   2.843   8.154 -0.5878 -0.3045 -0.1805
  191POPC  H14X22110   5.174   2.826   8.134 -0.5245  0.3909 -0.4595
  191POPC  H14Y22111   5.021   2.743   8.134 -0.6679 -0.4255  0.5971
  191POPC  C31522112   5.050   2.890   8.303 -0.1508  1.0901 -0.0881
  191POPC  H15X22113   4.946   2.929   8.302 -1.7162 -2.8924 -0.8729
  191POPC  H15Y22114   5.113   2.978   8.330  0.7305 -0.0611  1.7037
  191POPC  C31622115   5.056   2.781   8.411 -0.2030 -0.2971  0.2163
  191POPC  H16X22116   5.146   2.715   8.403 -1.0850 -1.1367 -3.3043
  191POPC  H16Y22117   4.975   2.707   8.396 -0.8715  0.6202 -0.7117
  191POPC  H16Z22118   5.042   2.821   8.514  1.0396  0.3225  0.1603
  192POPC     N22119   3.454   5.413   5.885 -0.0370 -0.2255 -0.1562
  192POPC   C1222120   3.597   5.443   5.943  0.1601 -0.1717 -0.2339
  192POPC  H12A22121   3.665   5.379   5.889 -0.8556 -0.0536 -1.6888
  192POPC  H12B22122   3.603   5.399   6.041  0.2197 -0.7457 -0.4931
  192POPC   C1322123   3.431   5.264   5.889 -0.9720 -0.0450  0.3157
  192POPC  H13A22124   3.331   5.241   5.855 -1.1914  1.8253 -0.3450
  192POPC  H13B22125   3.499   5.200   5.836 -0.9167  0.7208 -0.5353
  192POPC  H13C22126   3.438   5.244   5.995 -1.5050 -0.1958  0.3274
  192POPC   C1422127   3.344   5.483   5.965 -0.2613 -0.0407  0.3465
  192POPC  H14A22128   3.380   5.580   5.996 -0.4169 -0.3907  1.6699
  192POPC  H14B22129   3.257   5.499   5.904  0.1764 -1.9651 -0.8370
  192POPC  H14C22130   3.309   5.433   6.054  1.1150 -1.4042  0.1551
  192POPC   C1522131   3.448   5.457   5.748 -0.1648  0.2139  0.0638
  192POPC  H15A22132   3.354   5.420   5.708 -0.8476  1.5913  0.3664
  192POPC  H15B22133   3.528   5.412   5.691  0.0332  1.7762 -0.9179
  192POPC  H15C22134   3.447   5.564   5.731  2.3910 -0.1208 -2.4318
  192POPC   C1122135   3.645   5.587   5.930  0.1605  0.3119  0.1401
  192POPC  H11A22136   3.677   5.609   5.826  1.5690 -0.0623  0.4821
  192POPC  H11B22137   3.741   5.592   5.986  0.0484  0.1271  0.3484
  192POPC     P22138   3.551   5.772   6.101  0.2037  0.0508 -0.2765
  192POPC   O1322139   3.414   5.830   6.122 -0.7864  0.0584 -0.4392
  192POPC   O1422140   3.657   5.869   6.111  0.2148  0.1368 -1.0472
  192POPC   O1222141   3.548   5.688   5.966 -0.2487  0.2421 -0.6128
  192POPC   O1122142   3.578   5.665   6.208  0.9675 -0.6551  0.4855
  192POPC    C122143   3.488   5.580   6.265 -0.4155  0.0496  0.0155
  192POPC    HA22144   3.512   5.478   6.226  2.0002  1.0195 -1.1007
  192POPC    HB22145   3.383   5.601   6.237 -0.2780 -1.9006 -2.1912
  192POPC    C222146   3.498   5.579   6.420 -0.0174 -0.1175  0.1342
  192POPC    HS22147   3.517   5.679   6.465 -2.5618  0.6028 -0.3444
  192POPC   O2122148   3.608   5.489   6.460 -0.1047  0.3362 -0.1873
  192POPC   C2122149   3.724   5.551   6.490 -0.5645  0.2096 -0.4630
  192POPC   O2222150   3.749   5.669   6.473 -0.0433 -0.1652  0.3066
  192POPC   C2222151   3.820   5.446   6.557 -0.0609  0.4512  0.0108
  192POPC   H2R22152   3.859   5.388   6.471 -0.6461 -1.7920  1.2129
  192POPC   H2S22153   3.756   5.370   6.606  0.0431  0.9229  0.9027
  192POPC    C322154   3.368   5.522   6.480  0.0934  0.0183 -0.3192
  192POPC    HX22155   3.352   5.425   6.428 -0.6330  0.1108 -0.2844
  192POPC    HY22156   3.276   5.577   6.451  0.5190 -0.4451 -2.5943
  192POPC   O3122157   3.376   5.522   6.621 -0.0638  0.7602  0.1089
  192POPC   C3122158   3.421   5.411   6.678  0.5056 -0.2681  0.1024
  192POPC   O3222159   3.459   5.308   6.619  0.4527 -0.2218 -0.7619
  192POPC   C3222160   3.408   5.434   6.827  0.3808  0.1854 -0.0299
  192POPC   H2X22161   3.363   5.340   6.867  0.2201  0.4046  0.3066
  192POPC   H2Y22162   3.330   5.512   6.830  0.0716 -0.1295  0.1959
  192POPC   C2322163   3.918   5.503   6.652  0.2248 -0.1562 -0.8349
  192POPC   H3R22164   3.950   5.606   6.623  2.7727  0.1482  2.6364
  192POPC   H3S22165   4.008   5.438   6.644 -0.2738 -1.1889  1.4491
  192POPC   C2422166   3.868   5.515   6.794  0.4990 -0.2123 -0.1200
  192POPC   H4R22167   3.822   5.419   6.825 -0.0994  0.6503  1.7862
  192POPC   H4S22168   3.795   5.598   6.809 -1.0485 -1.3116 -1.3509
  192POPC   C2522169   3.981   5.529   6.898  1.0380 -0.1687  0.6635
  192POPC   H5R22170   4.067   5.592   6.865  0.3361 -0.4347 -1.7699
  192POPC   H5S22171   4.028   5.431   6.919 -0.4751 -0.9700  0.3546
  192POPC   C2622172   3.925   5.582   7.025  0.4984  0.1859  0.7323
  192POPC   H6R22173   3.848   5.515   7.069  1.9817  0.0015  3.1853
  192POPC   H6S22174   3.883   5.685   7.016 -0.0137 -0.1518 -0.8779
  192POPC   C2722175   4.032   5.588   7.136  0.2327 -0.3227 -0.3032
  192POPC   H7R22176   4.116   5.655   7.108 -2.0317  1.8570 -2.0598
  192POPC   H7S22177   4.087   5.492   7.139  0.6938 -0.0418  0.2448
  192POPC   C2822178   3.980   5.622   7.277 -0.5930  0.8866  0.6441
  192POPC   H8R22179   3.918   5.536   7.313  0.8403  0.4761  2.2108
  192POPC   H8S22180   3.899   5.698   7.269 -1.0325  0.1164 -2.9384
  192POPC   C2922181   4.078   5.658   7.385 -0.3676  0.2553  0.6074
  192POPC   H9122182   4.167   5.714   7.351 -0.0224 -0.9154 -0.4575
  192POPC  C21022183   4.074   5.626   7.515  0.1557 -0.4214  1.2045
  192POPC  H10122184   4.139   5.682   7.584 -0.5031  2.4012 -0.4021
  192POPC  C21122185   3.966   5.547   7.575  0.0732  0.6798  0.2173
  192POPC  H11R22186   3.946   5.453   7.520  0.4261  0.9033 -0.2939
  192POPC  H11S22187   3.875   5.611   7.577  0.8803  1.8034  1.8476
  192POPC  C21222188   3.989   5.517   7.726 -0.1249 -0.1580  0.2030
  192POPC  H12R22189   4.081   5.459   7.746  0.7741  0.5572 -1.6813
  192POPC  H12S22190   3.908   5.448   7.756  0.5052 -0.7393  0.5559
  192POPC  C21322191   3.995   5.651   7.810 -0.2770  0.1665 -0.7142
  192POPC  H13R22192   3.924   5.733   7.789  2.0809  2.6072  0.5661
  192POPC  H13S22193   4.098   5.695   7.806 -0.9142  1.8272  0.5901
  192POPC  C21422194   3.977   5.611   7.964  0.6610  0.2097  0.7458
  192POPC  H14R22195   3.879   5.559   7.953  1.0724 -0.4784  0.3368
  192POPC  H14S22196   3.947   5.703   8.019 -1.6952 -1.7991  2.9196
  192POPC  C21522197   4.091   5.532   8.021  0.4663 -0.3422 -0.5108
  192POPC  H15R22198   4.188   5.583   8.004 -0.6100  2.1017  0.3883
  192POPC  H15S22199   4.100   5.436   7.966 -0.0583  0.7480 -2.5674
  192POPC  C21622200   4.079   5.486   8.174  0.0579 -0.9966 -0.7632
  192POPC  H16R22201   4.113   5.574   8.233 -0.6051 -0.8366 -0.6177
  192POPC  H16S22202   4.168   5.420   8.189  1.4358  1.4533  2.4409
  192POPC  C21722203   3.946   5.425   8.214 -0.5642 -0.5290  0.0217
  192POPC  H17R22204   3.928   5.337   8.148 -1.2836 -0.2193 -0.1904
  192POPC  H17S22205   3.861   5.491   8.187  0.6170 -0.5325 -3.9785
  192POPC  C21822206   3.940   5.369   8.354 -0.3936  0.0579 -0.2402
  192POPC  H18R22207   3.941   5.452   8.428  2.9213  2.0917 -2.4158
  192POPC  H18S22208   4.017   5.292   8.374 -0.1664 -0.0277 -1.3961
  192POPC  H18T22209   3.835   5.333   8.365  0.0915 -2.0851 -2.3108
  192POPC   C3322210   3.542   5.456   6.908 -0.6125  0.4393 -0.0327
  192POPC   H3X22211   3.576   5.561   6.903  2.9705 -0.7796 -3.3820
  192POPC   H3Y22212   3.627   5.399   6.865  0.0033  1.3564 -0.0290
  192POPC   C3422213   3.535   5.403   7.053  0.2970  0.3861  0.3223
  192POPC   H4X22214   3.639   5.404   7.092  0.5463  0.5813 -0.3366
  192POPC   H4Y22215   3.506   5.297   7.037  3.2768 -0.2605 -1.2012
  192POPC   C3522216   3.432   5.467   7.147  0.4214 -0.4442 -0.3075
  192POPC   H5X22217   3.336   5.476   7.092  0.4176  0.4424 -0.1590
  192POPC   H5Y22218   3.457   5.574   7.161  1.4552 -0.8148  0.9347
  192POPC   C3622219   3.417   5.394   7.270 -0.0526 -0.1212  0.0816
  192POPC   H6X22220   3.378   5.291   7.252  0.0594 -0.5411  2.1198
  192POPC   H6Y22221   3.349   5.447   7.341 -0.0755  0.1460 -0.1404
  192POPC   C3722222   3.543   5.360   7.342  0.0165 -0.4701 -0.1688
  192POPC   H7X22223   3.621   5.433   7.313 -0.3727 -0.3508 -0.9265
  192POPC   H7Y22224   3.585   5.259   7.318  0.1357 -0.2762 -0.7738
  192POPC   C3822225   3.540   5.377   7.498  0.3316  0.3935  0.1376
  192POPC   H8X22226   3.462   5.447   7.536  0.5595 -0.2661  1.8708
  192POPC   H8Y22227   3.635   5.419   7.539  1.5622 -2.3476  0.1855
  192POPC   C3922228   3.512   5.248   7.575  0.4630  0.7359  0.8626
  192POPC   H9X22229   3.593   5.173   7.562 -1.2089 -0.7563 -1.3371
  192POPC   H9Y22230   3.412   5.205   7.553 -0.0652  0.7215  3.1591
  192POPC  C31022231   3.505   5.261   7.732  0.4198 -0.5026 -0.6996
  192POPC  H10X22232   3.443   5.346   7.768 -0.3167 -0.5296 -1.8614
  192POPC  H10Y22233   3.607   5.280   7.771 -0.0302  0.4230  0.0458
  192POPC  C31122234   3.442   5.139   7.794  0.3669 -0.3348  0.2380
  192POPC  H11X22235   3.479   5.055   7.731 -1.0275 -0.1263 -0.8897
  192POPC  H11Y22236   3.336   5.136   7.761  0.6106  1.1429 -0.7079
  192POPC  C31222237   3.459   5.125   7.945  0.0645 -0.0832 -0.3181
  192POPC  H12X22238   3.563   5.088   7.957 -0.6060 -1.6847  0.8780
  192POPC  H12Y22239   3.393   5.039   7.973  1.5311 -0.7520  1.1725
  192POPC  C31322240   3.439   5.241   8.032 -0.0454 -0.4294  1.5002
  192POPC  H13X22241   3.328   5.247   8.038 -0.1461  0.4602 -0.6007
  192POPC  H13Y22242   3.481   5.338   7.996 -0.3042 -0.4126  1.2328
  192POPC  C31422243   3.498   5.231   8.171 -0.8967 -0.7451  0.6125
  192POPC  H14X22244   3.607   5.210   8.166 -1.0508 -1.4804  0.3027
  192POPC  H14Y22245   3.455   5.131   8.192  1.0234 -1.6893  0.1850
  192POPC  C31522246   3.469   5.337   8.272  0.3370  0.3200 -0.9604
  192POPC  H15X22247   3.358   5.341   8.277  0.3503 -1.6392  2.0237
  192POPC  H15Y22248   3.504   5.440   8.251  0.7196  0.4489  0.3179
  192POPC  C31622249   3.522   5.298   8.417  0.0467 -0.2819 -0.1407
  192POPC  H16X22250   3.473   5.204   8.451  3.6826 -1.6706  1.4514
  192POPC  H16Y22251   3.497   5.368   8.499 -0.0708  0.3795 -0.7390
  192POPC  H16Z22252   3.632   5.299   8.409 -0.0239 -2.7262 -2.2644
  193SOD    SOD22253   4.006   6.314  11.202 -0.3159  0.4001 -0.2414
  194SOD    SOD22254   0.395   2.337   0.823  0.4078 -0.1232 -0.2438
  195SOD    SOD22255   6.518   4.724  10.733 -0.1539 -0.3010  0.1630
  196SOD    SOD22256   0.603   4.844  16.802 -0.3693 -0.2979 -0.1458
  197SOD    SOD22257   0.859   4.890  13.139  0.3153 -0.2601  0.5088
  198SOD    SOD22258   6.002   2.764  10.616  0.2290  0.6151 -0.0537
  199SOD    SOD22259   5.398   0.152   2.603  0.4805  0.2678 -0.2284
  200SOD    SOD22260   2.700   2.947  14.581 -0.5844 -0.6273  0.1753
  201SOD    SOD22261   1.955   5.163   4.012  0.5532  0.0233 -0.1098
  202SOD    SOD22262   5.427   2.938  10.818 -0.4094  0.0722 -0.1547
  203SOD    SOD22263   3.302   6.608   0.450  0.4609  0.1051  0.1126
  204SOD    SOD22264   1.921   1.180   6.154  0.0003 -0.0566 -0.5281
  205SOD    SOD22265   4.992   6.343  10.417 -0.1123 -0.0505  0.3435
  206SOD    SOD22266   0.442   1.225  10.997  0.0584  0.5514  0.0349
  207SOD    SOD22267   3.639   0.999  15.106 -0.3521  0.3997  0.3632
  208SOD    SOD22268   5.734   2.766   0.104  0.1707  0.1207 -0.2093
  209SOD    SOD22269   5.363   0.830   4.653  0.1397  0.1209 -0.2338
  210SOD    SOD22270   4.317   0.396   5.924 -0.1486 -0.1976 -0.3368
  211SOD    SOD22271   0.960   1.880   3.746  0.2550 -0.2259  0.1439
  212SOD    SOD22272   2.140   6.663   0.464  0.0343 -0.3910  0.0121
  213SOD    SOD22273   2.993   1.980   5.043  0.1247 -0.0317 -0.2774
  214SOD    SOD22274   0.886   5.132  15.726  0.0456  0.5301 -0.5641
  215SOD    SOD22275   1.434   5.672  10.998  0.5508 -0.0277 -0.0315
  216SOD    SOD22276   5.984   1.555  16.207  0.4348 -0.3536  0.1521
  217SOD    SOD22277   4.796   6.424  15.995 -0.5159  0.1440  0.0804
  218SOD    SOD22278   3.881   5.010   0.512 -0.0838  0.4974 -0.1955
  219SOD    SOD22279   4.864   5.390  11.018  0.1774  0.0815 -0.4002
  220SOD    SOD22280   0.236   4.186  13.732  0.1323  0.5039  0.0643
  221SOD    SOD22281   0.456   4.004  16.306  0.2568  0.3877  0.0983
  222SOD    SOD22282   5.340   0.723  11.832 -0.0039  0.0270 -0.0376
  223SOD    SOD22283   0.653   6.061   4.199 -0.3267  0.5630 -0.1585
  224SOD    SOD22284   6.465   6.735   4.407 -0.0975  0.0734  0.4488
  225SOD    SOD22285   6.740   4.380   0.414 -0.0233 -0.1611  0.3513
  226SOD    SOD22286   1.053   4.795  14.940  0.2177 -0.1718  0.5881
  227SOD    SOD22287   3.455   3.831  17.073 -0.3588 -0.0329 -0.3953
  228SOD    SOD22288   4.102   2.330   3.205  0.0043 -0.5854  0.2511
  229SOD    SOD22289   3.926   5.117  11.374 -0.8035  0.4566 -0.2802
  230SOD    SOD22290   5.079   5.211  15.183  0.2671  0.3061 -0.0683
  231SOD    SOD22291   4.293   3.106  13.523  0.2592 -0.3060 -0.4679
  232SOD    SOD22292   5.436   1.733   6.174  0.1450  0.1605  0.2998
  233SOD    SOD22293   0.931   1.925  16.302  0.1563 -0.1298 -0.2120
  234SOD    SOD22294   3.935   2.249   2.175  0.2755  0.2189 -0.2634
  235SOD    SOD22295   2.694   1.457  14.327  0.5386  0.1795  0.2413
  236SOD    SOD22296   2.644   6.786  16.296  0.0537 -0.2431 -0.3474
  237SOD    SOD22297   6.142   1.213  14.945 -0.1426 -0.6066 -0.2606
  238SOD    SOD22298   6.577   0.217   1.270 -0.8993  0.1248  0.3457
  239SOD    SOD22299   4.002   3.440  11.282  0.0763 -0.4621 -0.7000
  240SOD    SOD22300   4.992   2.575  13.848  0.3524 -0.0322  0.2405
  241SOD    SOD22301   4.540   2.590   6.073 -0.5204  0.2699 -0.0755
  242SOD    SOD22302   6.539   5.378   6.100 -0.5612 -0.0597 -0.2851
  243SOD    SOD22303   1.746   6.067  11.305  0.0457  0.4240  0.2090
  244SOD    SOD22304   6.231   5.505   0.655  0.0143  0.0798  0.1656
  245SOD    SOD22305   6.458   2.737  16.016 -0.0956  0.0669 -0.3084
  246SOD    SOD22306   3.159   3.925   4.847  0.2875 -0.2774  0.1621
  247SOD    SOD22307   1.517   3.218   6.020 -0.1981 -0.3322 -0.2525
  248SOD    SOD22308   5.069   5.253   4.160 -0.5761  0.1441  0.5511
  249SOD    SOD22309   5.264   4.603   6.214  0.0614 -0.0037 -0.0447
  250SOD    SOD22310   2.403   5.200  11.698  0.1229 -0.0858  0.3352
  251SOD    SOD22311   2.200   2.964   2.094 -0.0918 -0.3156  0.0943
  252SOD    SOD22312   0.245   1.812   6.013 -0.2868  0.0498  0.1280
  253SOD    SOD22313   3.860   6.400  10.702  0.2684 -0.1160  0.3604
  254SOD    SOD22314   3.091   1.740  16.691  0.7007  0.5897  0.1385
  255SOD    SOD22315   0.504   0.425  11.423  0.4761  0.3030 -0.4976
  256SOD    SOD22316   3.352   3.810  13.349 -0.0193 -0.5588 -0.3617
  257SOD    SOD22317   0.442   2.633   4.890 -0.3002  0.1551 -0.4580
  258SOD    SOD22318   3.471   6.016  12.630 -0.3512  0.4427 -0.2006
  259SOD    SOD22319   0.440   1.701  13.090 -0.3828 -0.0674 -0.4417
  260SOD    SOD22320   3.511   2.810   4.390  0.0611 -0.4778  0.8143
  261SOD    SOD22321   5.992   2.538   3.917 -0.0747 -0.3122  0.4921
  262SOD    SOD22322   4.855   4.701   1.831 -0.3191  0.0118 -0.1607
  263SOD    SOD22323   1.190   1.657  14.037 -0.0484  0.1080 -0.2308
  264SOD    SOD22324   1.457   6.124   1.744 -0.0807 -0.0615  0.3195
  265SOD    SOD22325   0.053   6.351   5.166  0.1791 -0.1480  0.0797
  266SOD    SOD22326   3.563   4.469  11.840  0.4108  0.4035  0.5157
  267SOD    SOD22327   4.315   1.899  14.098  0.3913  0.4639 -0.1750
  268SOD    SOD22328   2.878   3.396   5.910 -0.4605  0.4037  0.4602
  269SOD    SOD22329   5.716   0.415  14.219 -0.2323  0.2438  0.0896
  270CLA    CLA22330   5.445   3.115   4.122 -0.3266 -0.2391 -0.4333
  271CLA    CLA22331   2.524   1.002  12.744 -0.2352 -0.0687  0.6580
  272CLA    CLA22332   0.297   2.550   0.956 -0.2828  0.3728 -0.4037
  273CLA    CLA22333   3.936   5.575   0.791 -0.0779  0.2873 -0.5072
  274CLA    CLA22334   4.427   2.184   2.082 -0.1646 -0.2543  0.0124
  275CLA    CLA22335   5.162   4.061   3.423 -0.1710 -0.1471  0.2857
  276CLA    CLA22336   1.372   6.564  15.639 -0.1476 -0.0651 -0.2465
  277CLA    CLA22337   0.638   1.537  13.122 -0.2563  0.3547 -0.1023
  278CLA    CLA22338   6.087   5.846  17.196 -0.3335 -0.3636  0.3262
  279CLA    CLA22339   2.104   2.588  12.064  0.0370 -0.3864 -0.3224
  280CLA    CLA22340   4.689   3.381  16.420  0.3772  0.0357  0.3545
  281CLA    CLA22341   3.338   5.159  16.750 -0.3967 -0.1066  0.0149
  282CLA    CLA22342   1.614   5.116  13.943 -0.2735  0.1197 -0.0369
  283CLA    CLA22343   2.716   6.330   2.495 -0.2393 -0.0594  0.1588
  284CLA    CLA22344   6.083   4.745   5.298  0.2347  0.4567 -0.3640
  285CLA    CLA22345   0.063   0.811  13.956  0.0830 -0.1369 -0.3911
  286CLA    CLA22346   0.207   3.753  16.994 -0.0725  0.0755  0.0094
  287CLA    CLA22347   5.936   0.882  14.137 -0.0744 -0.3385 -0.1039
  288CLA    CLA22348   4.090   4.195  16.353  0.5252  0.1152 -0.1652
  289CLA    CLA22349   4.991   2.560  14.295 -0.0940 -0.3507  0.2594
  290CLA    CLA22350   1.669   0.062   0.577  0.1817 -0.0327  0.2107
  291CLA    CLA22351   2.817   3.937   3.892 -0.4299 -0.1215 -0.0029
  292CLA    CLA22352   0.058   4.716  14.058  0.4826 -0.2742 -0.0069
  293CLA    CLA22353   3.431   4.987  12.157 -0.3738 -0.0687 -0.3068
  294CLA    CLA22354   4.735   6.163  16.440  0.2040 -0.4823 -0.1076
  295CLA    CLA22355   1.668   5.507  15.951 -0.0294  0.2301  0.1732
  296CLA    CLA22356   5.040   6.349   3.685 -0.1094  0.1063  0.0699
  297CLA    CLA22357   0.983   2.908   4.205 -0.3333 -0.1129  0.1390
  298CLA    CLA22358   4.287   4.843   4.267 -0.5787 -0.2764  0.3291
  299CLA    CLA22359   1.169   6.254  16.829 -0.0206  0.0737 -0.1367
  300CLA    CLA22360   5.737   1.631   1.017 -0.1469 -0.1354  0.0030
  301CLA    CLA22361   6.408   0.380   1.396 -0.0673 -0.2505 -0.0338
  302CLA    CLA22362   0.433   5.057  16.847 -0.3530  0.1656  0.0471
  303CLA    CLA22363   0.082   0.597  11.936 -0.5835 -0.4931 -0.3409
  304CLA    CLA22364   6.358   3.843  13.653  0.0012 -0.0870 -0.9191
  305CLA    CLA22365   0.743   3.572  16.240 -0.0346  0.1538 -0.5098
  306CLA    CLA22366   0.448   0.497   0.927  0.2877 -0.2703 -0.0024
  307CLA    CLA22367   0.856   5.268  13.833  0.0215  0.1832 -0.5483
  308CLA    CLA22368   0.483   2.744  15.530  0.3893  0.1353 -0.1043
  309CLA    CLA22369   0.471   3.308   0.248 -0.3706  0.0627 -0.1705
  310CLA    CLA22370   2.968   6.740   1.030 -0.4347 -0.6387  0.1787
  311CLA    CLA22371   4.756   6.203  11.840  0.0410 -0.0495  0.2976
  312CLA    CLA22372   4.821   0.912  16.534 -0.3074  0.3586  0.1392
  313CLA    CLA22373   1.285   1.996   0.933  0.1081  0.2076  0.2098
  314CLA    CLA22374   2.358   4.888   4.993  0.0995 -0.4143  0.0370
  315CLA    CLA22375   1.914   5.187   2.065  0.3068 -0.4076 -0.1507
  316CLA    CLA22376   3.671   4.247   5.614  0.1546  0.2432  0.4947
  317CLA    CLA22377   4.193   6.627  15.567  0.4262  0.2303  0.0672
  318CLA    CLA22378   2.137   4.096   0.546  0.0346 -0.3272 -0.3868
  319CLA    CLA22379   2.711   2.186  14.302  0.0294  0.2500 -0.1600
  320CLA    CLA22380   4.773   2.035  14.126  0.6151 -0.4859  0.2233
  321CLA    CLA22381   1.894   5.456  13.742  0.2457 -0.3855  0.8577
  322CLA    CLA22382   3.324   0.699  14.287 -0.3538 -0.0245 -0.1295
  323TIP3   OH222383   3.322   3.663   3.262 -0.1388 -0.2613  0.2794
  323TIP3    H122384   3.255   3.731   3.254 -0.1125 -0.3768 -1.0415
  323TIP3    H222385   3.344   3.661   3.355 -2.8478 -1.0196  0.9616
  324TIP3   OH222386   4.620   0.922   1.277 -0.2408 -0.1435  0.1142
  324TIP3    H122387   4.550   0.960   1.330 -0.9876 -0.7691 -0.4132
  324TIP3    H222388   4.695   0.979   1.293 -0.5614 -0.0983  1.5364
  325TIP3   OH222389   5.871   4.868   5.763  0.2302  0.4623 -0.0078
  325TIP3    H122390   5.874   4.962   5.775  0.3956  0.4885 -0.2564
  325TIP3    H222391   5.883   4.832   5.851 -0.8838  0.6884  0.2502
  326TIP3   OH222392   6.311   5.316   6.163  0.2449  0.1900  0.2819
  326TIP3    H122393   6.259   5.388   6.198  0.5881 -0.1048  1.4341
  326TIP3    H222394   6.265   5.290   6.083  1.5430  3.3496 -1.5794
  327TIP3   OH222395   1.800   2.755   3.621 -0.3582 -0.1791  0.3733
  327TIP3    H122396   1.798   2.844   3.656  1.1474 -0.1460  0.4119
  327TIP3    H222397   1.785   2.766   3.527 -1.6199 -0.0166  0.5950
  328TIP3   OH222398   5.826   1.129   6.076  0.1623 -0.6259 -0.1830
  328TIP3    H122399   5.884   1.202   6.052  2.0814 -1.8854  0.4494
  328TIP3    H222400   5.864   1.096   6.158 -1.9008 -1.0370  0.6212
  329TIP3   OH222401   6.136   0.883   5.796 -0.7069 -0.1852  0.2309
  329TIP3    H122402   6.215   0.893   5.743  1.3415 -1.3668  2.9307
  329TIP3    H222403   6.125   0.967   5.840  0.1341 -0.5796  1.2280
  330TIP3   OH222404   4.419   3.611  12.758 -0.0446 -0.3590  0.8154
  330TIP3    H122405   4.472   3.640  12.684  1.1220 -0.9377  1.4192
  330TIP3    H222406   4.477   3.616  12.833 -0.8627 -0.9566  1.4967
  331TIP3   OH222407   6.496   4.504   1.199 -0.3874  0.7637 -0.3394
  331TIP3    H122408   6.506   4.573   1.134 -2.6216  1.6912  0.2411
  331TIP3    H222409   6.411   4.464   1.179 -0.1648 -0.2697  0.7344
  332TIP3   OH222410   2.421   3.005   3.327  0.1139  0.6393  0.2594
  332TIP3    H122411   2.477   3.059   3.382 -1.1431  1.5537  0.6644
  332TIP3    H222412   2.380   2.943   3.388  0.9776 -0.2810 -0.0917
  333TIP3   OH222413   2.824   3.616  15.624 -0.3119  0.1446  0.1158
  333TIP3    H122414   2.766   3.679  15.667  0.3020  2.5333 -2.4428
  333TIP3    H222415   2.902   3.614  15.679  1.0475  4.2453 -1.5333
  334TIP3   OH222416   5.852   3.711   1.020  0.0622 -0.1928  0.1852
  334TIP3    H122417   5.801   3.787   1.049  1.4957  0.1839  1.7936
  334TIP3    H222418   5.936   3.720   1.065  1.6630 -0.6691 -2.5824
  335TIP3   OH222419   0.916   4.203   5.394  0.2358 -0.0521 -0.2371
  335TIP3    H122420   0.829   4.174   5.369  0.6203 -1.3967 -0.0595
  335TIP3    H222421   0.927   4.171   5.484  1.0279 -0.1773 -0.3736
  336TIP3   OH222422   0.559   3.734  14.789 -0.1377  0.4269 -0.1971
  336TIP3    H122423   0.597   3.819  14.765  1.6856 -0.2350  0.3046
  336TIP3    H222424   0.553   3.686  14.707  1.0767  0.1554 -0.1332
  337TIP3   OH222425   4.645   4.094  16.254 -0.2795 -0.3924  0.3532
  337TIP3    H122426   4.672   4.102  16.162 -2.8036  0.4766 -0.3896
  337TIP3    H222427   4.683   4.170  16.297  0.5146 -0.5359 -0.0966
  338TIP3   OH222428   3.797   4.632  12.676 -0.4666 -0.0274 -0.7881
  338TIP3    H122429   3.848   4.699  12.629 -0.4695  0.1758 -0.4978
  338TIP3    H222430   3.770   4.571  12.607  1.5022 -1.0011 -0.7413
  339TIP3   OH222431   2.277   3.963   4.817 -0.0071  0.2205  0.2847
  339TIP3    H122432   2.286   3.904   4.893 -0.1315 -1.4763 -0.9781
  339TIP3    H222433   2.183   3.982   4.813  0.2895  2.1368  1.8728
  340TIP3   OH222434   5.016   5.127   1.421  0.2731 -0.1949 -0.2305
  340TIP3    H122435   5.035   5.033   1.428 -0.3490 -0.6028 -3.2786
  340TIP3    H222436   5.077   5.159   1.356  0.1428  1.4386  0.4335
  341TIP3   OH222437   3.297   0.755  15.882 -0.5579  0.2198  0.3022
  341TIP3    H122438   3.275   0.844  15.909 -1.3941  0.0712  0.1399
  341TIP3    H222439   3.391   0.748  15.896 -0.5137  1.0745  0.4748
  342TIP3   OH222440   5.441   4.574   5.424 -0.7719  0.3736 -0.0487
  342TIP3    H122441   5.364   4.586   5.370 -1.9183 -1.0105  1.2033
  342TIP3    H222442   5.497   4.648   5.404 -2.3573  1.3160 -1.0972
  343TIP3   OH222443   6.133   6.430  12.886  0.1131 -0.0019 -0.2372
  343TIP3    H122444   6.123   6.505  12.946 -0.2430 -0.5277  0.3636
  343TIP3    H222445   6.197   6.460  12.821  1.3202  0.1952  1.0258
  344TIP3   OH222446   4.522   0.522  14.016  0.0988  0.1964  0.3259
  344TIP3    H122447   4.572   0.549  13.939 -2.3640  0.8766 -1.0783
  344TIP3    H222448   4.536   0.427  14.021  1.9876  0.4430  0.3299
  345TIP3   OH222449   2.260   4.052   2.396  0.3277  0.1326 -0.1557
  345TIP3    H122450   2.242   3.992   2.323 -0.8637  1.2040 -0.7700
  345TIP3    H222451   2.174   4.080   2.426  0.7508 -1.1565  2.4412
  346TIP3   OH222452   1.680   5.391   2.664  0.2604 -0.1418  0.1377
  346TIP3    H122453   1.600   5.435   2.694 -0.0983 -0.8798  0.2816
  346TIP3    H222454   1.748   5.457   2.670 -0.5125  0.7676 -0.8122
  347TIP3   OH222455   2.825   5.208   2.068 -0.2408  0.6035  0.1495
  347TIP3    H122456   2.748   5.153   2.054  0.9310 -0.8276 -0.9696
  347TIP3    H222457   2.809   5.253   2.150 -2.8156  1.2785 -0.6876
  348TIP3   OH222458   5.673   1.884  16.683 -0.4016 -0.0890  0.0590
  348TIP3    H122459   5.592   1.935  16.691 -0.1268  0.6460 -1.7117
  348TIP3    H222460   5.648   1.807  16.631 -0.0187  0.0076 -0.2654
  349TIP3   OH222461   3.638   2.384  14.604 -0.0657  0.0257 -0.2514
  349TIP3    H122462   3.655   2.410  14.694 -0.8850  1.3663 -0.4686
  349TIP3    H222463   3.697   2.311  14.588 -0.8741 -1.0982  1.8012
  350TIP3   OH222464   3.885   1.740   5.430  0.1164  0.2320 -0.3865
  350TIP3    H122465   3.823   1.777   5.493 -1.6795 -0.3739 -1.7521
  350TIP3    H222466   3.921   1.664   5.475  0.8713  1.3416  0.9222
  351TIP3   OH222467   6.340   5.624  16.521  0.3237 -0.7874  0.4935
  351TIP3    H122468   6.337   5.609  16.426  3.5258 -0.2257  0.2488
  351TIP3    H222469   6.268   5.685  16.537 -0.0964 -0.6648 -1.6337
  352TIP3   OH222470   3.645   1.488   0.276 -0.1370  0.2954 -0.6296
  352TIP3    H122471   3.717   1.435   0.310  0.3217  0.6164 -1.0914
  352TIP3    H222472   3.613   1.536   0.353 -0.8311 -0.9531 -0.1297
  353TIP3   OH222473   5.747   0.673  12.568  0.0319 -0.3612  0.1262
  353TIP3    H122474   5.821   0.655  12.626  1.9939  0.4145 -2.0651
  353TIP3    H222475   5.736   0.593  12.517  2.5826  1.1138 -2.9303
  354TIP3   OH222476   4.502   2.561  13.984  0.0709 -0.2087  0.3996
  354TIP3    H122477   4.479   2.591  14.072 -3.0901  0.3589 -0.5610
  354TIP3    H222478   4.449   2.615  13.926  1.1942 -1.4312 -1.8096
  355TIP3   OH222479   3.261   3.734   4.927 -0.0795  0.1192 -0.2908
  355TIP3    H122480   3.205   3.691   4.991 -0.5055  3.6842  1.8874
  355TIP3    H222481   3.347   3.692   4.938 -1.0356 -1.8440 -0.0684
  356TIP3   OH222482   2.106   0.316   3.047  0.4571 -0.7513 -0.0629
  356TIP3    H122483   2.161   0.392   3.068 -0.2838 -0.4018  0.6636
  356TIP3    H222484   2.023   0.354   3.019  0.2977 -1.2867 -0.3130
  357TIP3   OH222485   6.758   1.741  14.834 -0.1240 -0.1961  0.2301
  357TIP3    H122486   6.800   1.713  14.915 -0.4022  2.2490  1.2582
  357TIP3    H222487   6.681   1.791  14.863 -0.1539  0.8216 -1.5351
  358TIP3   OH222488   6.289   4.175  16.137  0.0826  0.8426  0.8240
  358TIP3    H122489   6.362   4.182  16.198  0.5541  0.5168  0.2982
  358TIP3    H222490   6.229   4.113  16.179  1.8220 -1.7764 -0.4346
  359TIP3   OH222491   6.785   2.013  11.790 -1.1763 -0.1255 -0.0903
  359TIP3    H122492   6.871   1.975  11.805 -0.2734  1.5890 -0.8705
  359TIP3    H222493   6.748   2.023  11.878  0.6558  1.9332  0.4876
  360TIP3   OH222494   1.107   5.802   5.606  0.3111 -0.1989  0.3791
  360TIP3    H122495   1.160   5.812   5.685  0.4269  1.3741  0.1293
  360TIP3    H222496   1.040   5.869   5.615  0.5839  0.2756 -1.0589
  361TIP3   OH222497   2.637   6.289  16.027  0.5353 -0.4002 -0.4338
  361TIP3    H122498   2.702   6.218  16.033  0.4572 -0.4211  0.2129
  361TIP3    H222499   2.626   6.319  16.117  1.0035  0.8379 -0.7847
  362TIP3   OH222500   4.652   3.644  14.862 -0.1003 -0.2244  0.0730
  362TIP3    H122501   4.698   3.674  14.940  0.5839  0.4679 -0.5855
  362TIP3    H222502   4.714   3.658  14.790 -1.0607  0.0340 -0.7285
  363TIP3   OH222503   5.201   1.614  17.099 -0.1711  0.2319 -0.7076
  363TIP3    H122504   5.142   1.578  17.033 -0.0748 -1.5879  0.1649
  363TIP3    H222505   5.144   1.653  17.164 -0.3697 -0.2861 -0.5708
  364TIP3   OH222506   6.424   6.517  14.834 -0.4658  0.0204  0.0234
  364TIP3    H122507   6.494   6.456  14.809  0.0729  0.7247 -0.2147
  364TIP3    H222508   6.455   6.602  14.802 -0.6907  0.6047  1.3341
  365TIP3   OH222509   3.685   5.336   4.550 -0.3673 -1.2865  0.2251
  365TIP3    H122510   3.741   5.355   4.625 -0.6472  1.6290 -0.2197
  365TIP3    H222511   3.618   5.277   4.585  0.9446 -1.9731  1.6368
  366TIP3   OH222512   1.026   6.676  15.667  0.1295  0.7301  0.2286
  366TIP3    H122513   1.009   6.755  15.615  2.2430  0.8337 -0.3484
  366TIP3    H222514   1.103   6.637  15.626 -0.5096 -1.3051  0.9087
  367TIP3   OH222515   6.609   4.554   5.890 -0.0310 -0.2923 -0.2887
  367TIP3    H122516   6.562   4.471   5.898 -1.4841  0.4988 -0.6223
  367TIP3    H222517   6.554   4.618   5.935  2.0159  0.1434  1.6751
  368TIP3   OH222518   6.692   0.242   2.067 -0.3275 -0.2981 -0.1385
  368TIP3    H122519   6.703   0.336   2.051  0.9784 -0.4395 -0.1005
  368TIP3    H222520   6.745   0.200   2.000 -0.2578 -0.9987  0.3529
  369TIP3   OH222521   4.370   2.502  15.506  0.3182  0.3460 -0.3639
  369TIP3    H122522   4.325   2.425  15.540  0.5050 -0.1433 -1.2052
  369TIP3    H222523   4.418   2.537  15.581  1.5922 -1.3461 -0.3534
  370TIP3   OH222524   1.140   0.939   5.068  0.2690  0.2371 -0.3364
  370TIP3    H122525   1.109   0.863   5.116 -2.0421  0.8268 -0.8348
  370TIP3    H222526   1.192   0.903   4.996  1.6630 -0.7354  1.1365
  371TIP3   OH222527   1.705   3.681  15.749  0.3890 -0.5947 -0.4276
  371TIP3    H122528   1.684   3.753  15.690 -1.0392 -0.0180  0.7462
  371TIP3    H222529   1.690   3.716  15.837  0.2427 -2.1378  0.1923
  372TIP3   OH222530   6.655   5.650  15.840 -0.3208 -0.3368  0.7506
  372TIP3    H122531   6.644   5.702  15.920 -0.9882 -2.1643  1.8781
  372TIP3    H222532   6.739   5.605  15.852 -0.9789 -1.5370  0.9943
  373TIP3   OH222533   5.458   1.900   5.393 -0.3418 -0.2203 -0.3876
  373TIP3    H122534   5.437   1.827   5.335  0.2462 -0.1071 -0.7504
  373TIP3    H222535   5.554   1.898   5.399 -0.2809  0.9101 -0.9103
  374TIP3   OH222536   2.690   3.217   3.716  0.3664 -0.3298 -0.5493
  374TIP3    H122537   2.774   3.172   3.707 -1.0115 -3.0185 -0.6754
  374TIP3    H222538   2.669   3.210   3.809 -0.1015 -0.4070 -0.6572
  375TIP3   OH222539   2.497   6.305  13.210 -0.2939 -0.8363 -0.9790
  375TIP3    H122540   2.580   6.277  13.171  0.3153 -2.3889  1.2892
  375TIP3    H222541   2.449   6.223  13.224 -0.1097 -0.4682  2.2328
  376TIP3   OH222542   0.030   3.490   3.378 -0.1822  0.2744  0.7189
  376TIP3    H122543   0.122   3.482   3.352 -0.2273  1.3802  0.2009
  376TIP3    H222544  -0.015   3.428   3.321 -0.0034  1.1608 -0.4179
  377TIP3   OH222545   5.039   6.171  16.961  0.3772  0.6052 -0.3987
  377TIP3    H122546   4.963   6.167  17.019  1.5029  0.1989  1.1063
  377TIP3    H222547   5.017   6.114  16.888 -0.5925  0.1579  0.2331
  378TIP3   OH222548   4.738   5.014   3.209  0.2624  0.4417  0.1259
  378TIP3    H122549   4.774   5.045   3.126 -0.3426  2.1857  0.5049
  378TIP3    H222550   4.704   4.927   3.189 -0.7977  1.2558 -1.7043
  379TIP3   OH222551   2.452   5.534  15.892  0.1704 -0.2550  0.4903
  379TIP3    H122552   2.512   5.491  15.953  0.8099 -0.0207  0.0295
  379TIP3    H222553   2.410   5.462  15.845  0.4107 -0.4077  0.5099
  380TIP3   OH222554   6.370   4.071  12.692 -0.1359  0.0178  0.5516
  380TIP3    H122555   6.416   4.141  12.738 -0.5533  0.0217  0.9604
  380TIP3    H222556   6.429   3.996  12.697  0.4339  0.4072 -0.1152
  381TIP3   OH222557   1.245   2.946  12.588 -0.3081  0.7154 -0.2158
  381TIP3    H122558   1.285   2.979  12.507 -0.2583 -0.1812 -0.5664
  381TIP3    H222559   1.276   3.005  12.656 -1.9043  2.6443 -1.1365
  382TIP3   OH222560   6.205   4.430   3.557  0.2702  0.0501  0.2782
  382TIP3    H122561   6.130   4.478   3.593 -0.3346  0.8939 -2.0323
  382TIP3    H222562   6.186   4.338   3.575 -0.9757  0.3129  0.3288
  383TIP3   OH222563   5.906   4.909  13.929  0.2304  0.2105  0.4902
  383TIP3    H122564   5.968   4.879  13.862  0.1381  1.2393 -0.0618
  383TIP3    H222565   5.938   4.870  14.010  1.2905  0.2921  0.1214
  384TIP3   OH222566   6.653   3.267  16.041 -0.1179  0.0768  0.8008
  384TIP3    H122567   6.639   3.253  15.947 -1.6090  1.9298  0.7271
  384TIP3    H222568   6.748   3.277  16.050 -0.1677  2.3032 -0.8677
  385TIP3   OH222569   2.119   3.056  11.995  0.1020  0.1081 -0.0432
  385TIP3    H122570   2.160   3.133  11.955 -0.1461  0.8313  1.0701
  385TIP3    H222571   2.034   3.048  11.952  0.2263  0.3110 -0.3260
  386TIP3   OH222572   4.725   0.276  16.039 -0.2346  0.3553 -0.1662
  386TIP3    H122573   4.718   0.342  15.969  1.4511 -1.2784 -1.9269
  386TIP3    H222574   4.672   0.203  16.009  0.7033 -0.4632  0.1347
  387TIP3   OH222575   6.009   1.943   5.195  0.0526  0.0152  0.8362
  387TIP3    H122576   6.087   1.967   5.245 -0.3638  0.2159  1.4052
  387TIP3    H222577   6.006   1.848   5.198  1.2928 -0.0857 -0.7700
  388TIP3   OH222578   3.059   6.143   3.230  0.2606 -0.2072 -0.7589
  388TIP3    H122579   3.093   6.077   3.168 -1.5399 -2.0381  0.1596
  388TIP3    H222580   2.976   6.107   3.260 -0.6180  2.3720  0.0250
  389TIP3   OH222581   2.306   1.515   1.387 -0.0384 -0.5198 -0.1907
  389TIP3    H122582   2.372   1.474   1.332  1.2902  3.8065 -2.0265
  389TIP3    H222583   2.223   1.477   1.359  0.9490 -0.6365 -3.0325
  390TIP3   OH222584   0.055   3.487   2.423 -0.1881  0.4225 -0.5369
  390TIP3    H122585   0.035   3.450   2.509 -0.7277  0.6042 -0.5836
  390TIP3    H222586   0.137   3.444   2.396  0.4148  0.9535  0.4171
  391TIP3   OH222587   1.698   1.538  15.267  0.1664  0.5969 -0.4850
  391TIP3    H122588   1.768   1.521  15.205 -0.3364  2.6601 -1.6433
  391TIP3    H222589   1.743   1.558  15.349  0.8963  0.5354 -0.8686
  392TIP3   OH222590   2.411   1.792   3.506  0.4286 -0.3156  0.5843
  392TIP3    H122591   2.468   1.847   3.559  1.7684 -0.0970 -1.0648
  392TIP3    H222592   2.456   1.708   3.502  0.4361 -0.2613 -0.4087
  393TIP3   OH222593   1.072   2.789  16.379  0.1071  0.3558  0.1685
  393TIP3    H122594   1.139   2.835  16.328  1.6900 -1.2710  0.6824
  393TIP3    H222595   0.990   2.807  16.334  1.0811  1.3193 -1.2653
  394TIP3   OH222596   1.798   1.362   5.775 -0.4260 -0.1020 -0.6672
  394TIP3    H122597   1.722   1.410   5.807  1.8078  2.2287  1.3520
  394TIP3    H222598   1.791   1.275   5.815 -1.4419  0.4518  0.3834
  395TIP3   OH222599   1.934   1.464  15.174 -0.0415 -0.5698 -0.1744
  395TIP3    H122600   1.970   1.414  15.100 -0.3794  0.3183 -0.9497
  395TIP3    H222601   1.979   1.548  15.169 -0.0003 -0.5424  0.6941
  396TIP3   OH222602   5.629   3.892   1.770 -0.3078 -0.1954  0.4193
  396TIP3    H122603   5.619   3.987   1.764  0.2528 -0.0985  1.1120
  396TIP3    H222604   5.702   3.872   1.712  1.1874  0.0733  2.1998
  397TIP3   OH222605   1.176   6.425   1.950 -0.1690 -0.0061 -0.1864
  397TIP3    H122606   1.195   6.518   1.966 -1.2048  0.5095 -1.8548
  397TIP3    H222607   1.089   6.425   1.911 -0.3414 -1.7353  0.1678
  398TIP3   OH222608   0.682   5.956   0.037  0.6771 -0.1238 -0.0632
  398TIP3    H122609   0.669   5.994   0.125  1.4894  0.2943 -0.1195
  398TIP3    H222610   0.593   5.937   0.006  0.1988  2.2693 -0.2558
  399TIP3   OH222611   1.037   0.223  14.322  0.2632 -0.7133  0.5183
  399TIP3    H122612   0.955   0.193  14.360  0.6624 -1.1739  1.0197
  399TIP3    H222613   1.104   0.165  14.358  0.8217 -0.2992  0.1715
  400TIP3   OH222614   5.374   3.177  13.741  0.3482 -0.0234 -0.2043
  400TIP3    H122615   5.432   3.204  13.812  1.8647 -0.1203 -1.3915
  400TIP3    H222616   5.394   3.084  13.728 -0.0482 -0.0507 -0.6284
  401TIP3   OH222617   6.170   1.976  15.554 -0.1952 -0.6017 -0.3127
  401TIP3    H122618   6.193   1.890  15.587  0.0831 -1.0727 -1.7223
  401TIP3    H222619   6.237   2.035  15.590 -0.5003 -0.9225  0.8099
  402TIP3   OH222620   4.560   5.779  17.079  0.0522  0.2722 -0.7118
  402TIP3    H122621   4.494   5.750  17.143  0.3172  0.5594 -0.3070
  402TIP3    H222622   4.637   5.801  17.131  0.0312  1.2084 -1.0517
  403TIP3   OH222623   1.578   6.451  16.178  0.0692 -0.2989 -0.6764
  403TIP3    H122624   1.650   6.408  16.133 -0.8008 -0.8198 -1.6097
  403TIP3    H222625   1.538   6.382  16.231 -1.5173 -0.7683 -2.4093
  404TIP3   OH222626   2.522   0.502  12.941 -0.1671 -0.3555  0.2268
  404TIP3    H122627   2.526   0.548  12.857  1.4059 -2.5984 -0.9967
  404TIP3    H222628   2.527   0.571  13.007 -0.9968  1.4199 -1.5220
  405TIP3   OH222629   0.325   2.487  16.238 -0.1133  0.0509  0.0334
  405TIP3    H122630   0.374   2.421  16.188 -0.2747  0.1247 -0.2237
  405TIP3    H222631   0.372   2.568  16.223 -1.0613  0.3643 -1.2617
  406TIP3   OH222632   5.564   6.601  15.451 -0.0021 -0.1616  0.2496
  406TIP3    H122633   5.630   6.540  15.483 -0.2777 -1.4029 -1.4609
  406TIP3    H222634   5.612   6.682  15.434  0.2576  0.3253  3.0905
  407TIP3   OH222635   2.400   1.933  12.769  0.5150  0.0908  0.1471
  407TIP3    H122636   2.419   1.871  12.839 -2.6040 -0.5011  0.5398
  407TIP3    H222637   2.388   2.017  12.813 -0.4782 -0.0902  0.2370
  408TIP3   OH222638   5.152   3.917   0.699  0.2726 -0.9611  0.0594
  408TIP3    H122639   5.161   3.825   0.677  2.1219 -1.4274  2.4699
  408TIP3    H222640   5.142   3.918   0.795  0.4615  1.3308  0.0946
  409TIP3   OH222641   4.840   5.982  13.297 -0.1463 -0.0439  0.0628
  409TIP3    H122642   4.923   5.934  13.299  0.1067  0.4150  0.5617
  409TIP3    H222643   4.775   5.918  13.326  0.2940  0.1120  1.4086
  410TIP3   OH222644   3.547   4.239   2.622  0.2102 -0.2092  0.2943
  410TIP3    H122645   3.520   4.191   2.700  0.4799  0.0442  0.5468
  410TIP3    H222646   3.614   4.184   2.582 -0.7603 -0.9006 -0.4043
  411TIP3   OH222647   1.666   4.698  16.488  0.4307 -0.9394 -0.7676
  411TIP3    H122648   1.650   4.757  16.562 -0.6750 -0.5129 -1.3364
  411TIP3    H222649   1.654   4.610  16.523  0.4679 -0.7618 -0.3111
  412TIP3   OH222650   4.030   2.738   5.013  0.3504 -0.8424 -0.0241
  412TIP3    H122651   4.002   2.783   5.092  0.2400 -1.8966  0.5506
  412TIP3    H222652   3.981   2.656   5.014  2.2657 -2.0188  0.1699
  413TIP3   OH222653   3.361   4.193   5.208  0.0100  0.3009 -0.5188
  413TIP3    H122654   3.379   4.171   5.117 -1.0343  1.7985 -1.0982
  413TIP3    H222655   3.403   4.277   5.222 -0.1883  0.2773  0.2714
  414TIP3   OH222656   2.042   5.893   2.877  1.3824 -0.5851  0.0510
  414TIP3    H122657   2.059   5.987   2.884 -1.9491  0.0646  0.4184
  414TIP3    H222658   2.073   5.857   2.959  0.3558  0.6428  1.0093
  415TIP3   OH222659   2.800   2.896   4.878  0.3990  0.0633  0.4508
  415TIP3    H122660   2.760   2.827   4.826  0.7457 -0.7355  1.2179
  415TIP3    H222661   2.753   2.976   4.853  0.5992 -0.3035 -1.0867
  416TIP3   OH222662   3.313   4.472  17.056 -0.6537  0.4547  0.1756
  416TIP3    H122663   3.272   4.396  17.098 -0.5073  0.8104  0.9813
  416TIP3    H222664   3.252   4.544  17.072  0.6670  1.1893  2.1934
  417TIP3   OH222665   3.171   1.526  16.612  0.1782  0.2139 -0.1578
  417TIP3    H122666   3.123   1.487  16.539  1.6499 -0.1765 -0.9417
  417TIP3    H222667   3.241   1.464  16.631  0.8953  1.1712  0.3938
  418TIP3   OH222668   1.513   4.889  15.235  0.0627 -0.1722  0.1833
  418TIP3    H122669   1.532   4.981  15.216  0.8480 -0.2069  0.7683
  418TIP3    H222670   1.599   4.848  15.238 -0.1332 -0.4580  2.3049
  419TIP3   OH222671   2.325   2.532   3.229 -0.1103 -0.1843 -0.5347
  419TIP3    H122672   2.281   2.616   3.215  0.0594 -0.2915 -1.7095
  419TIP3    H222673   2.255   2.472   3.255  0.0467  0.7798  2.3211
  420TIP3   OH222674   4.595   2.721   3.972 -0.1446  0.2546 -0.0401
  420TIP3    H122675   4.604   2.814   3.994 -1.6764  0.7119 -1.2894
  420TIP3    H222676   4.501   2.708   3.963  0.1352 -1.1654 -0.9446
  421TIP3   OH222677   3.587   2.645   5.258  0.3765  0.0327 -0.1011
  421TIP3    H122678   3.516   2.590   5.291  0.7330 -0.8131 -0.7215
  421TIP3    H222679   3.624   2.685   5.337  0.2936 -0.8423  0.3951
  422TIP3   OH222680   5.304   4.374  11.297 -0.1857  0.1211 -0.1014
  422TIP3    H122681   5.258   4.376  11.213  1.7800 -1.6053 -1.2677
  422TIP3    H222682   5.346   4.288  11.299  1.9474  1.1485  1.5002
  423TIP3   OH222683   3.125   2.948   4.030  0.4710 -0.1865  0.1445
  423TIP3    H122684   3.173   3.019   3.987 -3.7588  1.9452 -1.4530
  423TIP3    H222685   3.081   2.902   3.958 -1.7208 -0.5033  1.6183
  424TIP3   OH222686   3.401   5.294  14.119  0.1694 -0.3893 -0.0560
  424TIP3    H122687   3.331   5.258  14.064  0.0554 -1.6091  0.8559
  424TIP3    H222688   3.474   5.309  14.058 -1.1338  1.6717 -1.1571
  425TIP3   OH222689   3.774   0.340  11.895 -0.2278 -0.0598 -0.2701
  425TIP3    H122690   3.815   0.391  11.964 -1.8841  0.0169  0.6873
  425TIP3    H222691   3.683   0.371  11.892 -0.2942 -0.3365 -2.2119
  426TIP3   OH222692   3.582   1.850  16.630  0.0220 -0.7195 -0.1337
  426TIP3    H122693   3.614   1.937  16.606  1.2925 -1.7481 -2.3311
  426TIP3    H222694   3.627   1.829  16.712 -0.8335  0.9663  0.7792
  427TIP3   OH222695   4.075   5.535   1.978  0.3412 -0.3579  0.1344
  427TIP3    H122696   4.001   5.524   1.919 -0.6935  1.4585  1.0223
  427TIP3    H222697   4.134   5.596   1.933  0.8979 -1.1538 -0.2168
  428TIP3   OH222698   5.437   1.022   4.572  0.1875  0.4554 -0.4496
  428TIP3    H122699   5.518   1.062   4.540  0.0757 -0.1548 -1.5214
  428TIP3    H222700   5.367   1.068   4.526 -0.0492  0.5878  0.0396
  429TIP3   OH222701   0.986   6.554  16.139  0.4906  0.0608 -0.5493
  429TIP3    H122702   0.987   6.619  16.069 -2.5398 -0.2821 -0.9632
  429TIP3    H222703   0.923   6.588  16.203  0.5452 -1.3885  0.3020
  430TIP3   OH222704   2.998   0.693   2.917  0.6135  0.0845  0.4072
  430TIP3    H122705   2.959   0.672   3.002  0.9399  0.6889  0.7057
  430TIP3    H222706   2.947   0.641   2.855  0.8816 -0.9897  1.0520
  431TIP3   OH222707   5.837   5.551   1.026 -0.2074 -0.3973 -0.0927
  431TIP3    H122708   5.786   5.620   0.983 -2.1336 -1.4504  0.4075
  431TIP3    H222709   5.893   5.597   1.088 -1.2742  0.7639  0.0391
  432TIP3   OH222710   5.960   6.604   0.964  0.0326  0.5881  0.0545
  432TIP3    H122711   5.890   6.592   1.028  0.2625 -1.2695 -0.0192
  432TIP3    H222712   5.973   6.518   0.926  2.4282  0.8589  0.1444
  433TIP3   OH222713   4.344   3.938   0.207  0.0056 -0.0245  0.6353
  433TIP3    H122714   4.324   3.849   0.181  1.5488 -0.3245  0.4100
  433TIP3    H222715   4.325   3.991   0.129 -0.2189 -0.2572  0.5346
  434TIP3   OH222716   5.327   3.493  11.223 -0.1838 -0.1092 -0.7656
  434TIP3    H122717   5.251   3.507  11.280 -0.6857 -0.3519 -1.3701
  434TIP3    H222718   5.346   3.579  11.187 -0.0863 -0.0233 -0.5142
  435TIP3   OH222719   2.942   2.512  16.600  0.4106  0.0731 -0.0740
  435TIP3    H122720   2.962   2.498  16.507 -0.5408 -0.5874 -0.1928
  435TIP3    H222721   2.919   2.424  16.632 -1.6290  0.6918  0.2016
  436TIP3   OH222722   1.759   5.085   4.476  0.3923  0.0242  0.4054
  436TIP3    H122723   1.732   5.136   4.553  0.9394  1.4923 -0.3612
  436TIP3    H222724   1.700   5.114   4.406 -0.0417 -1.2392  0.2361
  437TIP3   OH222725   6.638   4.175   0.319  0.3253  0.1646  0.0409
  437TIP3    H122726   6.689   4.130   0.386  0.5087 -0.4054 -0.4724
  437TIP3    H222727   6.557   4.125   0.311 -0.4945  1.2894  1.1218
  438TIP3   OH222728   2.065   5.294  17.015  0.0327  0.0293 -0.1509
  438TIP3    H122729   2.099   5.381  17.040  1.8849 -1.2093  1.7915
  438TIP3    H222730   2.023   5.262  17.095 -2.5826  0.0136 -1.4997
  439TIP3   OH222731   3.813   6.411   0.394  0.1003  0.1843  0.0855
  439TIP3    H122732   3.771   6.334   0.356  0.3113  0.0728  0.0733
  439TIP3    H222733   3.779   6.485   0.344 -0.7122  0.1761  0.6257
  440TIP3   OH222734   6.674   3.818  11.892 -0.0956 -0.0881 -0.4394
  440TIP3    H122735   6.762   3.847  11.918 -0.1171 -0.2675 -0.1683
  440TIP3    H222736   6.683   3.724  11.876 -1.0212 -0.8435  3.0640
  441TIP3   OH222737   5.311   2.462   4.669  0.4469  0.2922  0.3478
  441TIP3    H122738   5.382   2.512   4.628  1.1692 -0.9887  0.0141
  441TIP3    H222739   5.237   2.473   4.610  1.1140 -0.4845 -0.6364
  442TIP3   OH222740   6.075   3.586  12.991  0.3557 -0.4847 -0.0854
  442TIP3    H122741   6.020   3.507  12.986 -3.3004  1.9833 -0.8695
  442TIP3    H222742   6.068   3.625  12.904  2.7148  0.3721  0.0861
  443TIP3   OH222743   2.045   4.888   1.325 -0.0610  0.8119  0.4211
  443TIP3    H122744   2.119   4.909   1.382 -0.4200  0.9494  0.8319
  443TIP3    H222745   2.084   4.878   1.238  0.9131 -1.9623  1.1066
  444TIP3   OH222746   5.456   1.793   3.001 -0.4241  0.1367  0.2491
  444TIP3    H122747   5.400   1.871   2.994 -0.8496 -0.0488  1.5806
  444TIP3    H222748   5.406   1.725   2.956 -0.0542  0.6120 -0.9128
  445TIP3   OH222749   5.280   4.747  13.663  1.0339 -0.1616 -0.7216
  445TIP3    H122750   5.198   4.764  13.617  0.9318 -0.5528 -0.6889
  445TIP3    H222751   5.332   4.825  13.649  2.1007 -1.3694 -3.8197
  446TIP3   OH222752   5.834   6.719  16.752  0.2846 -0.2904  0.0795
  446TIP3    H122753   5.835   6.747  16.843  1.7762  0.6703 -0.2228
  446TIP3    H222754   5.775   6.643  16.751 -1.6281  1.1366  1.3965
  447TIP3   OH222755   6.695   2.340  11.146  0.1326 -0.6380  0.6889
  447TIP3    H122756   6.736   2.258  11.118 -1.4727 -1.2918  0.2144
  447TIP3    H222757   6.661   2.322  11.233  0.9275 -0.0691  1.1178
  448TIP3   OH222758   0.086   3.811  14.805 -0.2472 -0.0062 -0.5505
  448TIP3    H122759   0.026   3.885  14.817  0.7694  0.7082  0.2322
  448TIP3    H222760   0.108   3.783  14.894 -1.3023 -1.8364 -0.8360
  449TIP3   OH222761   0.225   6.667   3.468 -0.3996  0.1415  0.4072
  449TIP3    H122762   0.150   6.690   3.522 -0.4720  0.2205  0.2736
  449TIP3    H222763   0.301   6.692   3.520 -0.4861  2.7560 -0.6471
  450TIP3   OH222764   5.475   0.807   3.448 -0.4628 -0.7215 -0.0639
  450TIP3    H122765   5.431   0.727   3.480  0.0464 -0.5811  1.0198
  450TIP3    H222766   5.528   0.836   3.522 -1.1223  0.9853 -0.2371
  451TIP3   OH222767   5.895   2.252  15.916 -0.1573  0.0779  0.1559
  451TIP3    H122768   5.978   2.254  15.870 -0.9304  0.0512 -1.2751
  451TIP3    H222769   5.856   2.168  15.892 -0.2331 -0.2827  1.4896
  452TIP3   OH222770   6.232   0.858   0.082 -0.2430 -0.3578 -0.2744
  452TIP3    H122771   6.307   0.798   0.086 -1.2471 -1.7686 -1.8778
  452TIP3    H222772   6.207   0.871   0.173  1.9879  0.2164  0.3090
  453TIP3   OH222773   5.336   2.877   0.789 -0.0925 -0.2292 -0.5642
  453TIP3    H122774   5.345   2.783   0.770  3.6322 -0.4639  1.9191
  453TIP3    H222775   5.313   2.880   0.881  0.0589  1.3180 -0.5732
  454TIP3   OH222776   4.593   3.647  13.662  0.4680 -0.1202  0.1652
  454TIP3    H122777   4.647   3.625  13.586  1.6709  1.5794  0.4848
  454TIP3    H222778   4.624   3.589  13.731  0.8157 -0.2242 -0.0759
  455TIP3   OH222779   2.144   0.728   2.399 -0.6210  0.5900 -0.2863
  455TIP3    H122780   2.214   0.766   2.452 -1.3043  1.4824 -0.0015
  455TIP3    H222781   2.067   0.780   2.421 -1.5081 -0.7529 -0.1504
  456TIP3   OH222782   1.188   5.383   2.504 -0.4485  0.3542  0.1561
  456TIP3    H122783   1.093   5.382   2.496 -0.6344 -0.5815  2.1416
  456TIP3    H222784   1.220   5.343   2.424 -1.7744 -0.2353 -0.0834
  457TIP3   OH222785   2.554   2.644  14.230 -0.1607  0.2598  0.2252
  457TIP3    H122786   2.473   2.689  14.253  0.1669 -0.1564  2.3005
  457TIP3    H222787   2.532   2.594  14.151 -1.7711  0.5432  0.4751
  458TIP3   OH222788   3.449   4.293   5.820  0.0494 -0.6891  0.4354
  458TIP3    H122789   3.511   4.284   5.748 -1.6450  0.6348 -1.2383
  458TIP3    H222790   3.381   4.351   5.786 -1.0609 -0.4794  2.9248
  459TIP3   OH222791   5.221   4.250   5.903 -0.8517  0.0736  0.4920
  459TIP3    H122792   5.224   4.321   5.839  0.9284  1.1422  1.7046
  459TIP3    H222793   5.265   4.177   5.860  1.9217  1.3319  1.0738
  460TIP3   OH222794   0.794   3.030   0.492  0.0186 -0.5274 -0.5808
  460TIP3    H122795   0.712   3.005   0.534 -0.2087  0.2315 -0.5716
  460TIP3    H222796   0.855   2.960   0.517 -0.2009 -0.2781  0.7252
  461TIP3   OH222797   1.283   3.258  15.307 -0.6194  0.4518  0.7385
  461TIP3    H122798   1.224   3.239  15.234 -0.0743  2.0349 -0.1236
  461TIP3    H222799   1.369   3.270  15.267 -0.5087  2.4173  1.4881
  462TIP3   OH222800   1.491   5.774  14.175 -0.0507  0.1102  0.2044
  462TIP3    H122801   1.530   5.754  14.090 -0.8873 -0.3148 -0.0954
  462TIP3    H222802   1.398   5.788  14.155 -0.0037  1.3817  0.8488
  463TIP3   OH222803   4.511   1.518  16.937 -0.4222  0.2705  0.0478
  463TIP3    H122804   4.528   1.538  16.845  1.8448  1.6326  0.7053
  463TIP3    H222805   4.469   1.432  16.936  0.7731 -0.3235 -2.1849
  464TIP3   OH222806   4.670   6.639  16.785  0.1017 -0.6619 -0.1015
  464TIP3    H122807   4.677   6.546  16.806 -2.7844 -0.7380  0.7531
  464TIP3    H222808   4.599   6.671  16.842  0.8582  1.9869 -0.5884
  465TIP3   OH222809   4.338   3.412  16.702  0.4527  0.0287 -0.1312
  465TIP3    H122810   4.391   3.350  16.651  0.1266 -0.6545  0.3521
  465TIP3    H222811   4.278   3.357  16.752  0.1280  0.7419  0.2751
  466TIP3   OH222812   0.709   6.536   2.188  0.0337  0.4272  0.8066
  466TIP3    H122813   0.803   6.529   2.204  0.6814 -0.2741 -2.8238
  466TIP3    H222814   0.700   6.528   2.093 -3.6102  1.6814  0.9575
  467TIP3   OH222815   6.456   4.949   1.918  0.6476 -0.2357  0.1999
  467TIP3    H122816   6.437   4.931   1.826  1.5101 -1.4663  0.2511
  467TIP3    H222817   6.449   4.863   1.961  0.2373  0.3249  1.2847
  468TIP3   OH222818   6.151   5.419   1.108  0.4200  0.1816  0.1329
  468TIP3    H122819   6.125   5.340   1.155  0.5459  0.9064  1.4252
  468TIP3    H222820   6.235   5.395   1.067  0.7496 -0.1722  0.9986
  469TIP3   OH222821   1.152   0.681   4.021  0.0500  0.0662  0.4130
  469TIP3    H122822   1.132   0.638   3.938 -3.2947 -1.9595  2.1811
  469TIP3    H222823   1.223   0.629   4.058  0.3018 -0.1196 -0.3142
  470TIP3   OH222824   3.650   5.198   2.562  0.1113  0.5076 -0.2452
  470TIP3    H122825   3.567   5.182   2.516 -0.2635 -3.2206  1.5156
  470TIP3    H222826   3.717   5.194   2.493 -1.0180  2.3240 -1.4920
  471TIP3   OH222827   0.013   3.886  16.194  0.1106  0.5897  0.1259
  471TIP3    H122828  -0.016   3.801  16.226  0.3948  1.2397  2.1924
  471TIP3    H222829  -0.050   3.910  16.127  0.3755 -1.5171 -0.9010
  472TIP3   OH222830   2.814   4.942   1.513 -0.1288 -0.1306 -0.1423
  472TIP3    H122831   2.829   5.029   1.550  0.3932  1.2783 -3.4913
  472TIP3    H222832   2.804   4.885   1.589  2.8903  2.2361  2.1602
  473TIP3   OH222833   6.306   6.079  16.792  0.1339  0.0731  0.0510
  473TIP3    H122834   6.213   6.100  16.783 -0.2184 -1.1527  0.6757
  473TIP3    H222835   6.320   6.006  16.732  0.2648 -0.9175  1.2498
  474TIP3   OH222836   2.603   2.185   1.057 -0.0875  0.3538 -0.5173
  474TIP3    H122837   2.511   2.201   1.035 -0.5204  0.4185  1.2572
  474TIP3    H222838   2.609   2.209   1.149  1.8868  1.0584 -0.8206
  475TIP3   OH222839   1.589   3.421  15.096  0.0462  0.0664  0.1032
  475TIP3    H122840   1.590   3.516  15.088 -1.9991  0.2270  1.4052
  475TIP3    H222841   1.625   3.389  15.014 -2.6363  1.9048 -1.8496
  476TIP3   OH222842   0.882   3.641   4.623  0.2411  0.1782 -0.1671
  476TIP3    H122843   0.957   3.622   4.679  0.1338 -0.9956 -0.4040
  476TIP3    H222844   0.905   3.603   4.538 -1.2045 -1.4622  0.1441
  477TIP3   OH222845   4.655   1.502   0.777 -0.0067 -0.2667 -0.5808
  477TIP3    H122846   4.702   1.461   0.849 -1.3100 -3.5141 -1.4885
  477TIP3    H222847   4.711   1.488   0.701 -0.4809 -0.3867 -0.9092
  478TIP3   OH222848   5.532   5.929   1.825  0.0169 -0.0869  0.4901
  478TIP3    H122849   5.579   5.850   1.851  0.5649  0.9430  2.6592
  478TIP3    H222850   5.445   5.919   1.863 -0.9151 -1.0076 -1.7652
  479TIP3   OH222851   3.423   1.435  12.230  0.1187  0.6155  0.4475
  479TIP3    H122852   3.444   1.493  12.156  0.7826  0.7776  0.7606
  479TIP3    H222853   3.328   1.440  12.237  0.2523  2.4960  1.1324
  480TIP3   OH222854   2.719   0.295   1.591  0.1383  0.4351 -0.0926
  480TIP3    H122855   2.726   0.270   1.684  2.8070  1.4345  0.0087
  480TIP3    H222856   2.645   0.244   1.558  0.2458 -1.2419  2.1619
  481TIP3   OH222857   0.915   0.652   0.315 -0.0632  0.3937 -0.1636
  481TIP3    H122858   0.876   0.590   0.254  0.2852  0.3935 -0.3861
  481TIP3    H222859   0.908   0.737   0.271 -0.6295  0.5278  0.1815
  482TIP3   OH222860   6.335   1.822   5.670 -0.3475  0.6008  0.4860
  482TIP3    H122861   6.243   1.799   5.662  0.2245 -0.8201 -2.7046
  482TIP3    H222862   6.343   1.906   5.626 -0.3744  1.5045  2.1654
  483TIP3   OH222863   1.322   2.064   2.204  0.1465  0.1955 -0.2524
  483TIP3    H122864   1.244   2.118   2.220  0.3808  0.2642  0.6632
  483TIP3    H222865   1.296   2.008   2.131 -0.4164  0.9109 -0.6169
  484TIP3   OH222866   3.451   4.116   0.195  0.2394  0.4811 -0.2415
  484TIP3    H122867   3.529   4.060   0.184  0.8467  1.4448 -0.8822
  484TIP3    H222868   3.380   4.054   0.211  0.9476 -0.4731 -0.7065
  485TIP3   OH222869   2.295   0.793   0.240 -0.1497 -0.1046  0.2412
  485TIP3    H122870   2.309   0.778   0.146  1.4230  1.9084  0.1239
  485TIP3    H222871   2.211   0.751   0.258 -0.1132 -1.1944 -1.8993
  486TIP3   OH222872   2.141   1.849  13.260 -0.6799  0.1134 -0.2636
  486TIP3    H122873   2.155   1.907  13.185  0.1218 -1.5295 -1.4190
  486TIP3    H222874   2.229   1.826  13.289 -0.9921  0.2879  0.8394
  487TIP3   OH222875   3.335   0.678  13.786 -0.3309  0.1323  0.5426
  487TIP3    H122876   3.418   0.637  13.808  0.3213  0.5424 -1.1090
  487TIP3    H222877   3.270   0.627  13.834  0.7927 -0.6834  1.2199
  488TIP3   OH222878   5.377   4.360   3.952  0.3430 -0.8390  0.2466
  488TIP3    H122879   5.353   4.374   4.043 -0.1869 -0.3716  0.0334
  488TIP3    H222880   5.456   4.305   3.956 -0.5761 -2.1168  0.9496
  489TIP3   OH222881   1.686   0.597   4.921 -0.3531 -0.2787  0.6021
  489TIP3    H122882   1.620   0.660   4.949  0.4409 -0.7430  3.6518
  489TIP3    H222883   1.737   0.578   5.000  1.4946 -2.2488 -0.9985
  490TIP3   OH222884   5.797   2.262  14.225  0.6547  0.0552  0.7742
  490TIP3    H122885   5.750   2.346  14.221  0.5682 -0.0427 -0.7017
  490TIP3    H222886   5.763   2.219  14.303 -0.9662  0.4461  0.3116
  491TIP3   OH222887   5.871   6.301  14.964  0.0326 -0.1717 -0.1845
  491TIP3    H122888   5.833   6.376  15.011  0.0271 -0.7147  0.6784
  491TIP3    H222889   5.831   6.224  15.005  0.4593 -0.6710 -0.7028
  492TIP3   OH222890   4.824   4.510  13.422  0.3966 -0.4147  0.1163
  492TIP3    H122891   4.777   4.575  13.473  1.0323 -1.1471  1.6738
  492TIP3    H222892   4.911   4.547  13.410  0.4145 -0.4797  0.0410
  493TIP3   OH222893   5.122   1.594  13.896  0.6974 -0.0334  0.2445
  493TIP3    H122894   5.150   1.590  13.804 -1.0686  0.2577 -0.3319
  493TIP3    H222895   5.046   1.651  13.895  0.8888  0.2795  1.9717
  494TIP3   OH222896   4.292   5.823  16.128  0.1151  0.0020 -0.8839
  494TIP3    H122897   4.294   5.904  16.077  1.7912 -0.8615 -2.2404
  494TIP3    H222898   4.337   5.846  16.210 -1.5696  1.0798 -0.2435
  495TIP3   OH222899   4.330   1.820  11.196  0.1569  0.0977 -0.1481
  495TIP3    H122900   4.289   1.839  11.112  0.6505 -0.7458 -0.5907
  495TIP3    H222901   4.265   1.847  11.261 -1.0589 -1.0645 -0.8302
  496TIP3   OH222902   3.890   2.946  13.044 -0.1026 -0.2898 -0.2117
  496TIP3    H122903   3.877   2.931  13.138 -1.0952 -1.0762 -0.4636
  496TIP3    H222904   3.858   3.035  13.029 -0.4489 -0.3594  0.1007
  497TIP3   OH222905   0.637   3.096  13.272  0.2615 -0.2289  0.1543
  497TIP3    H122906   0.685   3.113  13.190  1.6373 -0.6189  0.8652
  497TIP3    H222907   0.611   3.183  13.303 -2.0972 -0.1944 -1.7485
  498TIP3   OH222908   0.461   3.375  13.279 -0.1037  0.0472  0.9058
  498TIP3    H122909   0.434   3.397  13.368 -0.8208 -1.9959  1.2331
  498TIP3    H222910   0.443   3.453  13.228 -1.4752  0.5918  2.2011
  499TIP3   OH222911   2.173   2.874  12.355  0.6011 -1.0780 -0.2565
  499TIP3    H122912   2.202   2.820  12.282  0.7533 -1.5257  0.1328
  499TIP3    H222913   2.204   2.828  12.433 -0.0686 -0.9039  0.1142
  500TIP3   OH222914   5.494   0.289  13.723 -0.8838 -0.0470  0.4473
  500TIP3    H122915   5.507   0.210  13.671 -0.7322  0.0400  0.3556
  500TIP3    H222916   5.491   0.360  13.660  0.7003  0.2269  0.6567
  501TIP3   OH222917   2.791   0.599   1.799  0.3504  0.4863  0.1736
  501TIP3    H122918   2.772   0.506   1.789  1.2737  0.2063  0.9239
  501TIP3    H222919   2.706   0.639   1.817  0.0543 -0.3181  0.5999
  502TIP3   OH222920   3.080   1.343   3.505 -0.1325 -0.1205 -0.8446
  502TIP3    H122921   3.066   1.389   3.422 -0.3432 -0.3504 -0.9360
  502TIP3    H222922   2.996   1.303   3.525 -0.5154  1.1998  0.2560
  503TIP3   OH222923   4.211   1.472   5.775  0.0322 -0.2446 -0.3078
  503TIP3    H122924   4.155   1.550   5.776 -1.2225 -1.1410  0.1456
  503TIP3    H222925   4.165   1.409   5.830  1.0705 -1.2942 -0.6367
  504TIP3   OH222926   3.865   2.981   4.891 -0.5029 -0.1763 -0.3321
  504TIP3    H122927   3.926   2.908   4.897 -0.2756  0.0730  0.6358
  504TIP3    H222928   3.867   3.021   4.979 -1.1992  0.5178 -0.6201
  505TIP3   OH222929   2.016   4.244  16.985  0.0403 -0.4643 -0.6928
  505TIP3    H122930   1.961   4.280  16.916 -0.4277  0.2560  0.0399
  505TIP3    H222931   1.982   4.283  17.066  0.8213 -0.9925 -0.0969
  506TIP3   OH222932   6.546   1.620   3.998  0.1049 -0.0082 -0.4714
  506TIP3    H122933   6.536   1.618   3.903  0.6052  1.3785 -0.5605
  506TIP3    H222934   6.487   1.689   4.028 -0.1277 -0.5022  0.2419
  507TIP3   OH222935   5.295   2.459  13.331  0.3615 -0.0402 -0.0472
  507TIP3    H122936   5.276   2.426  13.419  0.1326 -1.7070 -0.7031
  507TIP3    H222937   5.320   2.381  13.281 -1.2511  0.6039 -1.9347
  508TIP3   OH222938   2.267   6.465   3.997  0.2930 -0.3169 -0.0089
  508TIP3    H122939   2.229   6.381   4.023 -0.4895  0.4960  1.5835
  508TIP3    H222940   2.192   6.515   3.964  0.6491 -0.0412 -0.3971
  509TIP3   OH222941   3.320   5.836   0.135 -0.7263  0.0262  0.4564
  509TIP3    H122942   3.294   5.928   0.132 -0.8609 -0.0431 -0.7982
  509TIP3    H222943   3.291   5.805   0.221  0.0214  1.3576  1.1921
  510TIP3   OH222944   2.823   3.179   0.971 -0.0414 -0.6160 -0.2967
  510TIP3    H122945   2.768   3.243   1.016  0.1558 -0.7626  0.1509
  510TIP3    H222946   2.765   3.105   0.954 -0.6665  0.2656 -2.1329
  511TIP3   OH222947   3.952   5.057   4.807  0.2360 -0.0641 -0.0566
  511TIP3    H122948   3.894   5.047   4.883 -0.7002  2.1405 -0.4279
  511TIP3    H222949   4.003   5.136   4.827  0.3105  0.2619 -1.5171
  512TIP3   OH222950   1.902   6.564  11.214 -0.3319 -0.1189 -0.1340
  512TIP3    H122951   1.897   6.505  11.290  0.6686 -1.0447 -0.7696
  512TIP3    H222952   1.900   6.506  11.138  0.0450  0.7081 -0.7900
  513TIP3   OH222953   6.002   2.038   2.580  0.1420  0.4634  0.0919
  513TIP3    H122954   5.965   1.992   2.505 -1.6075  2.5924 -0.4186
  513TIP3    H222955   6.038   1.969   2.635 -1.1719 -1.3777 -1.2806
  514TIP3   OH222956   4.388   5.292  15.235 -0.2440 -0.1227 -0.3851
  514TIP3    H122957   4.337   5.221  15.196 -1.4685  0.7385 -0.4066
  514TIP3    H222958   4.326   5.334  15.295  0.5257  0.8078 -0.2406
  515TIP3   OH222959   6.615   0.138  12.198  0.3491  0.3514 -0.0130
  515TIP3    H122960   6.639   0.209  12.138  1.9326  0.4981  0.7640
  515TIP3    H222961   6.575   0.183  12.273  0.0861  0.3166 -0.1333
  516TIP3   OH222962   4.819   1.823   2.304 -0.1944 -0.3006 -0.1692
  516TIP3    H122963   4.854   1.811   2.216 -0.7991 -1.6875 -0.2319
  516TIP3    H222964   4.766   1.902   2.299  0.5942  0.1842 -0.7973
  517TIP3   OH222965   4.985   4.123   4.093 -0.1895 -0.2471 -0.6399
  517TIP3    H122966   4.916   4.118   4.158  0.6046  0.3006  0.2529
  517TIP3    H222967   4.940   4.151   4.013 -0.9872  0.1727 -0.0497
  518TIP3   OH222968   2.311   1.349  10.643 -0.0073 -0.2422  0.2940
  518TIP3    H122969   2.216   1.351  10.636 -0.0011  0.3850  0.3150
  518TIP3    H222970   2.339   1.434  10.609  0.4015  0.4283  2.2422
  519TIP3   OH222971   4.674   3.549  17.156  0.2095  0.4105  0.0428
  519TIP3    H122972   4.760   3.584  17.180  0.3655  0.5023 -0.6378
  519TIP3    H222973   4.613   3.618  17.180  0.3029  0.2665  0.7151
  520TIP3   OH222974   0.801   3.699   0.245  0.2409 -0.1740  0.0633
  520TIP3    H122975   0.775   3.610   0.223  0.3327 -0.0523 -0.5380
  520TIP3    H222976   0.719   3.743   0.267 -0.1059  0.2571 -1.9972
  521TIP3   OH222977   3.565   1.113   1.561 -0.8076 -0.9278 -0.6311
  521TIP3    H122978   3.568   1.197   1.516 -2.6132 -1.2059 -1.3164
  521TIP3    H222979   3.618   1.125   1.639 -1.0109  0.8397 -0.7529
  522TIP3   OH222980   0.322   2.978   3.717 -0.4379  0.3619 -0.0925
  522TIP3    H122981   0.365   2.968   3.801 -1.3343 -0.8708  0.2405
  522TIP3    H222982   0.340   3.068   3.691  0.4256  0.5398  1.0847
  523TIP3   OH222983   1.240   0.118   1.318  0.0814 -0.4104 -0.4111
  523TIP3    H122984   1.312   0.078   1.365 -1.8270 -1.9800  1.2778
  523TIP3    H222985   1.172   0.131   1.384 -1.5745  0.0625 -2.1509
  524TIP3   OH222986   4.637   4.919  16.171  0.4936  0.5623 -0.0690
  524TIP3    H122987   4.607   4.924  16.080  3.1204  2.6674 -0.8692
  524TIP3    H222988   4.706   4.853  16.171 -1.3818 -1.4861  1.0196
  525TIP3   OH222989   0.431   4.776  13.253  0.1425  0.4867 -0.0285
  525TIP3    H122990   0.428   4.798  13.160 -3.8493  0.8802  0.1091
  525TIP3    H222991   0.395   4.688  13.258  0.4042  0.4386  1.1484
  526TIP3   OH222992   5.846   2.102   5.062  0.1884 -0.5785  0.1142
  526TIP3    H122993   5.892   2.031   5.106 -2.7955 -1.9715  1.1158
  526TIP3    H222994   5.854   2.176   5.122 -1.0516 -1.5464  1.5155
  527TIP3   OH222995   6.702   4.777   4.945  0.3140  0.6179 -0.0714
  527TIP3    H122996   6.689   4.836   5.019  0.2992  0.2590  0.2107
  527TIP3    H222997   6.794   4.750   4.952  0.1257  0.0654  0.1897
  528TIP3   OH222998   2.393   1.673   3.250  0.0492 -0.0183 -0.1825
  528TIP3    H122999   2.392   1.717   3.335  0.8716 -0.8428  0.2627
  528TIP3    H223000   2.441   1.592   3.266  0.4095 -0.0677 -1.4892
  529TIP3   OH223001   1.259   2.257   5.763  0.6308 -0.1982 -0.1763
  529TIP3    H123002   1.174   2.277   5.724  0.8291 -0.4166 -0.7312
  529TIP3    H223003   1.259   2.304   5.846  1.2270  2.4277 -1.5876
  530TIP3   OH223004   2.942   1.825  11.321  0.0631  0.1442  0.4585
  530TIP3    H123005   2.854   1.803  11.290 -0.2474  0.0346  1.3990
  530TIP3    H223006   2.937   1.813  11.416  0.2263  3.1152  0.8738
  531TIP3   OH223007   3.196   3.865   2.227  0.2886 -0.0873 -0.1969
  531TIP3    H123008   3.180   3.798   2.294 -0.5725  0.3615  0.0505
  531TIP3    H223009   3.114   3.914   2.222  0.3226 -0.1685 -1.6519
  532TIP3   OH223010   3.498   2.383   1.465  0.7307 -0.1764  0.2378
  532TIP3    H123011   3.466   2.464   1.426 -0.4525  0.4683  2.4417
  532TIP3    H223012   3.421   2.326   1.470  1.0355 -0.5529  0.8448
  533TIP3   OH223013   5.120   4.448   0.833 -0.4118 -0.1496 -0.2849
  533TIP3    H123014   5.151   4.509   0.900 -1.0154 -0.4011  0.2386
  533TIP3    H223015   5.044   4.406   0.873  1.7167 -3.4286  0.5366
  534TIP3   OH223016   5.895   1.351  17.035 -0.3142 -0.2243 -0.2187
  534TIP3    H123017   5.833   1.424  17.046 -0.4014 -0.3192 -0.0794
  534TIP3    H223018   5.977   1.383  17.074 -0.5185 -0.4213  0.3834
  535TIP3   OH223019   1.147   1.907  11.947 -0.3332  0.0751  0.5038
  535TIP3    H123020   1.156   1.882  11.855  1.8182 -1.9349  1.2353
  535TIP3    H223021   1.056   1.938  11.954 -0.4438  0.5557 -2.3341
  536TIP3   OH223022   6.007   4.594   1.110  0.0091  0.0396 -0.2674
  536TIP3    H123023   6.024   4.682   1.145  0.2299 -0.4111  0.7623
  536TIP3    H223024   5.999   4.608   1.016  0.5096  1.0991 -0.1666
  537TIP3   OH223025   1.641   3.250   0.667  0.2414  0.3058 -0.2029
  537TIP3    H123026   1.552   3.259   0.702  0.1637 -2.1415  0.3199
  537TIP3    H223027   1.681   3.335   0.684 -1.3787  0.8063  1.3781
  538TIP3   OH223028   3.112   3.501  13.733 -0.0249  0.4481 -0.3348
  538TIP3    H123029   3.160   3.426  13.769 -1.2452 -0.0269  0.3159
  538TIP3    H223030   3.095   3.477  13.642 -0.5732 -0.1403 -0.0772
  539TIP3   OH223031   5.922   1.587   4.981 -0.4582 -0.6060  0.6589
  539TIP3    H123032   5.925   1.512   4.923  2.8841 -0.7665  0.9422
  539TIP3    H223033   5.965   1.657   4.932 -0.0580  0.0202  1.8795
  540TIP3   OH223034   6.176   4.551  10.559  0.4324  0.1759 -0.6231
  540TIP3    H123035   6.103   4.499  10.525  2.0322 -0.5808 -3.0398
  540TIP3    H223036   6.157   4.640  10.531 -2.9290  1.3307  4.5396
  541TIP3   OH223037   2.130   1.971  14.178  0.1655 -0.3907  0.1563
  541TIP3    H123038   2.036   1.953  14.180 -0.0348  0.6742  1.0332
  541TIP3    H223039   2.150   1.991  14.087 -0.3606 -1.1098 -0.1159
  542TIP3   OH223040   6.078   2.345  14.214 -0.3336 -0.2046  0.7023
  542TIP3    H123041   6.136   2.285  14.167 -0.0419  0.3238  0.3977
  542TIP3    H223042   6.060   2.300  14.297  1.3183  0.0785  1.2341
  543TIP3   OH223043   0.606   5.607   3.186 -0.1347 -0.1908  0.1463
  543TIP3    H123044   0.607   5.518   3.153  1.3093  0.1357 -0.7306
  543TIP3    H223045   0.689   5.645   3.157  0.8710  0.3543  3.4987
  544TIP3   OH223046   2.142   1.866  15.979 -0.1291  0.4306 -0.3839
  544TIP3    H123047   2.112   1.945  16.024 -1.0257 -0.0579 -0.1157
  544TIP3    H223048   2.065   1.809  15.976  0.6556 -0.6720 -0.0712
  545TIP3   OH223049   4.685   3.800   3.603  0.3632 -0.0560  0.5537
  545TIP3    H123050   4.695   3.888   3.641  1.1342 -0.6042  1.6651
  545TIP3    H223051   4.662   3.745   3.678 -0.7113 -0.7081 -0.2368
  546TIP3   OH223052   1.542   4.194   2.885 -0.6270  0.4738  0.1751
  546TIP3    H123053   1.584   4.202   2.970 -2.1839  3.0268  0.7551
  546TIP3    H223054   1.554   4.280   2.844 -0.9848 -0.3302 -1.6866
  547TIP3   OH223055   3.289   3.033   2.402 -0.3999  0.0311  0.0974
  547TIP3    H123056   3.207   3.063   2.362 -0.0648  2.0367  0.8476
  547TIP3    H223057   3.338   2.994   2.329 -2.7592 -2.9331 -0.0020
  548TIP3   OH223058   5.235   5.650   5.846 -0.4245 -0.0711 -0.2290
  548TIP3    H123059   5.254   5.593   5.771  1.6387 -2.6681  2.1492
  548TIP3    H223060   5.321   5.664   5.887 -1.5763  0.8491  1.9462
  549TIP3   OH223061   2.072   2.677   3.586  0.0729  0.4771 -0.1731
  549TIP3    H123062   1.990   2.683   3.637 -0.8010  0.0439 -1.4971
  549TIP3    H223063   2.132   2.630   3.644 -1.2645 -1.0044  0.0709
  550TIP3   OH223064   2.847   2.657  15.562  0.2144  0.0815 -0.0382
  550TIP3    H123065   2.870   2.644  15.470  0.1891  1.9103 -0.3192
  550TIP3    H223066   2.922   2.623  15.611 -0.1654 -1.7726 -0.6730
  551TIP3   OH223067   4.423   1.363   3.369 -0.1695 -0.2063  0.0798
  551TIP3    H123068   4.432   1.273   3.399  1.3649 -0.1511 -0.1882
  551TIP3    H223069   4.410   1.414   3.449  2.3860 -0.2460  0.5417
  552TIP3   OH223070   4.499   4.036   4.598 -0.3841 -0.4184 -0.6468
  552TIP3    H123071   4.423   3.995   4.639 -1.2190  0.5095 -1.2166
  552TIP3    H223072   4.572   3.978   4.618 -0.3026  1.1004  4.0047
  553TIP3   OH223073   4.996   3.005  11.945 -0.1720  0.3104  0.2647
  553TIP3    H123074   5.089   2.985  11.936 -0.3014  0.2140 -0.9155
  553TIP3    H223075   4.975   2.982  12.036  0.7067 -0.6521  0.2293
  554TIP3   OH223076   5.302   6.117  17.070  0.1717 -0.1168 -0.2392
  554TIP3    H123077   5.308   6.060  16.994 -0.0082 -1.9837  1.1143
  554TIP3    H223078   5.209   6.135  17.080  0.3017  1.1228 -1.1621
  555TIP3   OH223079   2.939   0.328  14.367 -0.1678 -0.7409  0.1021
  555TIP3    H123080   3.014   0.347  14.422  0.6286 -1.3445 -0.7608
  555TIP3    H223081   2.931   0.232  14.369  1.2413 -0.9703 -2.5756
  556TIP3   OH223082   0.326   0.893  16.895  0.7695 -1.0209 -0.1194
  556TIP3    H123083   0.343   0.983  16.867  2.4051 -1.1221  0.5034
  556TIP3    H223084   0.255   0.863  16.838  1.9144 -0.1783 -2.0278
  557TIP3   OH223085   2.324   0.845   2.568 -0.2987  0.1173 -0.3030
  557TIP3    H123086   2.269   0.896   2.627 -0.8956 -0.3709 -0.4370
  557TIP3    H223087   2.413   0.857   2.602 -0.6671 -0.3844  0.8431
  558TIP3   OH223088   3.239   1.573   3.647  0.3168 -0.0692  0.4910
  558TIP3    H123089   3.253   1.480   3.662 -1.3541 -0.0180  2.7516
  558TIP3    H223090   3.180   1.576   3.572 -0.4778 -0.9147  1.0589
  559TIP3   OH223091   4.798   4.716  13.135  0.2450 -0.2258  0.5509
  559TIP3    H123092   4.848   4.635  13.148 -1.3610 -1.5667 -1.2186
  559TIP3    H223093   4.720   4.705  13.190  0.9742  1.0279  1.8578
  560TIP3   OH223094   1.016   1.631   4.986 -0.1472  0.2941 -0.0547
  560TIP3    H123095   1.048   1.649   5.074 -1.2662  0.3601  0.3418
  560TIP3    H223096   0.970   1.711   4.960 -0.7783 -0.1401 -0.2674
  561TIP3   OH223097   2.327   0.510   0.393 -0.1355 -0.5724  0.0267
  561TIP3    H123098   2.274   0.561   0.455  0.9352 -0.4151  0.8149
  561TIP3    H223099   2.265   0.450   0.353 -1.3638  1.1040 -0.6574
  562TIP3   OH223100   4.039   6.299  13.480 -0.1849 -0.0889 -0.2511
  562TIP3    H123101   4.089   6.301  13.561  1.4653  1.3227 -1.2819
  562TIP3    H223102   3.971   6.233  13.496  1.0474 -0.9352  1.7077
  563TIP3   OH223103   0.773   2.157  14.710 -0.2730 -0.2166  0.0521
  563TIP3    H123104   0.773   2.101  14.632 -0.7692 -0.9895  0.6006
  563TIP3    H223105   0.693   2.208  14.703  0.5760  1.0384 -0.8650
  564TIP3   OH223106   1.654   6.716   4.461 -0.8400  0.0548  0.3691
  564TIP3    H123107   1.708   6.647   4.499 -1.2260 -0.9702 -0.9148
  564TIP3    H223108   1.671   6.710   4.367 -0.8000  1.7706  0.2550
  565TIP3   OH223109   1.790   3.800  16.860  0.0266 -0.3389  0.3213
  565TIP3    H123110   1.788   3.709  16.830  2.9494 -0.3380 -0.0858
  565TIP3    H223111   1.815   3.851  16.783  1.2654  0.4281  1.1908
  566TIP3   OH223112   3.105   4.342  13.815 -0.5441  0.5885 -0.1338
  566TIP3    H123113   3.137   4.259  13.850  0.5158  0.0862 -2.2589
  566TIP3    H223114   3.014   4.324  13.789 -0.8344  0.5456  0.8886
  567TIP3   OH223115   3.115   4.882   1.715 -0.1221 -0.2826 -0.0892
  567TIP3    H123116   3.045   4.865   1.778 -0.6111 -0.2696 -0.6292
  567TIP3    H223117   3.171   4.805   1.721  0.1484 -0.0239  0.7817
  568TIP3   OH223118   5.953   1.726  12.736  0.1181 -0.1310 -0.0653
  568TIP3    H123119   6.040   1.729  12.775  0.6364  1.9088 -1.2964
  568TIP3    H223120   5.905   1.797  12.779 -0.2286  0.1846 -0.9482
  569TIP3   OH223121   2.348   5.706  11.671  0.2735 -0.0672 -0.0883
  569TIP3    H123122   2.341   5.733  11.762  0.1619 -0.7922  0.1197
  569TIP3    H223123   2.434   5.738  11.643  0.4237 -0.0861  0.3496
  570TIP3   OH223124   4.295   0.466  13.294 -0.1581 -0.9022  0.7139
  570TIP3    H123125   4.372   0.495  13.341 -0.2779  1.0174 -0.2104
  570TIP3    H223126   4.223   0.518  13.330 -0.1048  1.2871 -2.1543
  571TIP3   OH223127   5.614   5.352   2.113  0.2326 -0.2045 -0.6632
  571TIP3    H123128   5.644   5.268   2.147  2.7485  0.2396 -1.7138
  571TIP3    H223129   5.655   5.360   2.027 -1.4927  1.2538 -1.3952
  572TIP3   OH223130   1.948   5.507   0.564  0.5154  0.5627  0.0278
  572TIP3    H123131   1.871   5.524   0.617 -0.3357  1.0298 -1.3515
  572TIP3    H223132   2.019   5.552   0.610  0.0616 -0.2239  1.5250
  573TIP3   OH223133   3.256   2.537   3.773  0.5882 -0.1747  0.8634
  573TIP3    H123134   3.289   2.618   3.812 -0.8276 -0.3436  2.5036
  573TIP3    H223135   3.207   2.566   3.696  0.9108  0.4498  0.8917
  574TIP3   OH223136   1.881   0.587   0.714 -0.0504 -0.0880  0.3850
  574TIP3    H123137   1.829   0.641   0.655 -1.5023  0.6053  2.2452
  574TIP3    H223138   1.825   0.511   0.732  1.2905 -1.3940 -0.8743
  575TIP3   OH223139   6.100   2.039  11.771  0.0768 -0.1363  0.4439
  575TIP3    H123140   6.012   2.069  11.794 -0.0068 -0.0178 -0.0223
  575TIP3    H223141   6.111   1.957  11.819 -0.8312 -0.8814 -0.5785
  576TIP3   OH223142   3.437   4.375   1.599 -0.1266 -0.1847  0.3452
  576TIP3    H123143   3.470   4.465   1.599 -0.5137 -0.0427 -0.4897
  576TIP3    H223144   3.383   4.369   1.520 -1.7555 -0.5422  1.4603
  577TIP3   OH223145   3.116   0.535   0.337  0.3990  0.2894 -0.2935
  577TIP3    H123146   3.154   0.451   0.362 -0.0444  0.6848  1.8035
  577TIP3    H223147   3.022   0.522   0.344  0.3382  1.0821  0.5056
  578TIP3   OH223148   0.858   2.769   3.160  0.3215 -0.2186  0.6963
  578TIP3    H123149   0.789   2.830   3.132  1.6062  0.4870 -1.0112
  578TIP3    H223150   0.850   2.766   3.255 -0.3328  1.9549  0.7435
  579TIP3   OH223151   2.431   4.755   4.304 -0.2331 -0.2285  0.4157
  579TIP3    H123152   2.472   4.672   4.329  0.1215 -1.0020 -2.5592
  579TIP3    H223153   2.493   4.822   4.333  0.2627 -1.0838  1.3576
  580TIP3   OH223154   5.707   6.071  11.208 -0.2593 -0.1848 -0.0522
  580TIP3    H123155   5.645   6.090  11.138 -1.2725  2.3668  1.4508
  580TIP3    H223156   5.762   6.150  11.214  1.8852 -1.6329 -0.0703
  581TIP3   OH223157   4.732   2.623  16.666 -0.4543  0.7023 -0.2696
  581TIP3    H123158   4.795   2.558  16.697  1.6441  2.8758  0.1406
  581TIP3    H223159   4.740   2.696  16.727 -1.8478  1.8835 -1.4438
  582TIP3   OH223160   6.278   6.252   6.445  0.3375  0.0002 -0.0371
  582TIP3    H123161   6.253   6.295   6.527 -0.6732  1.6275 -1.1562
  582TIP3    H223162   6.238   6.165   6.450 -0.4984  0.4245  0.8122
  583TIP3   OH223163   4.568   2.854   1.116  0.5492  0.3281 -0.0188
  583TIP3    H123164   4.482   2.861   1.076 -0.6661 -1.0820  2.2258
  583TIP3    H223165   4.610   2.781   1.071 -0.2652 -0.3532  0.3066
  584TIP3   OH223166   4.164   1.363  16.253  0.5512  0.5618 -0.0741
  584TIP3    H123167   4.081   1.396  16.218  0.7209 -0.2791 -1.3210
  584TIP3    H223168   4.179   1.414  16.333 -1.4976  0.2607  0.5333
  585TIP3   OH223169   5.502   2.572  17.108  0.4298  0.0206 -0.6694
  585TIP3    H123170   5.512   2.662  17.137 -1.2162 -0.2990  0.9631
  585TIP3    H223171   5.591   2.535  17.113  0.2785 -0.0184  4.1261
  586TIP3   OH223172   6.430   2.452  15.575  0.2055  0.3230  0.3376
  586TIP3    H123173   6.402   2.537  15.542  0.8623  0.2784 -0.3503
  586TIP3    H223174   6.504   2.428  15.519 -0.8759 -1.3684 -0.3979
  587TIP3   OH223175   6.191   5.674  10.965  0.5452  0.6096  0.3599
  587TIP3    H123176   6.239   5.756  10.978  0.7119  0.6089 -0.2307
  587TIP3    H223177   6.122   5.677  11.031  1.4087  0.5654  1.2888
  588TIP3   OH223178   5.340   1.722   2.569  0.1776 -0.5939 -0.3911
  588TIP3    H123179   5.326   1.660   2.497 -0.3646  0.9952 -1.6801
  588TIP3    H223180   5.416   1.773   2.542 -0.2491  0.2530  0.0058
  589TIP3   OH223181   2.027   2.632   4.253 -0.3792 -0.2922 -0.1563
  589TIP3    H123182   2.121   2.621   4.271 -0.7173 -0.6200  1.4527
  589TIP3    H223183   1.984   2.564   4.304 -1.5864  0.6578  0.1252
  590TIP3   OH223184   2.219   6.532   4.875  0.7974  0.0347 -0.0927
  590TIP3    H123185   2.178   6.517   4.789 -1.0752  0.4710  0.6944
  590TIP3    H223186   2.156   6.586   4.922  0.9339 -1.7972  2.2583
  591TIP3   OH223187   4.552   1.180   3.139 -0.8635  0.3726 -0.3768
  591TIP3    H123188   4.635   1.223   3.120  0.1548 -1.5136 -0.3619
  591TIP3    H223189   4.571   1.124   3.214 -1.4020 -2.1665 -2.0812
  592TIP3   OH223190   0.020   0.120   2.334 -0.3844  0.4357  0.0178
  592TIP3    H123191  -0.037   0.153   2.265 -0.0276  0.3486 -0.3200
  592TIP3    H223192   0.052   0.198   2.380 -0.2224  0.5170 -0.2347
  593TIP3   OH223193   1.224   5.753  14.108  0.7998  0.1295  0.6987
  593TIP3    H123194   1.223   5.682  14.171  1.2569 -0.9985 -0.5309
  593TIP3    H223195   1.131   5.769  14.089  0.7293 -2.5241 -1.5902
  594TIP3   OH223196   3.366   5.387  10.939  0.3040 -0.2417 -0.1801
  594TIP3    H123197   3.287   5.357  10.984  0.2328  2.0516  1.3729
  594TIP3    H223198   3.346   5.478  10.915  2.9440  0.8427  1.5070
  595TIP3   OH223199   3.098   5.096   5.582 -0.2136 -0.2381 -0.5300
  595TIP3    H123200   3.022   5.151   5.561 -0.9942 -0.9576  0.3340
  595TIP3    H223201   3.120   5.121   5.672 -2.1213 -3.0467  0.7743
  596TIP3   OH223202   2.578   0.691  13.138  0.3990 -0.0114 -0.1778
  596TIP3    H123203   2.656   0.736  13.105  1.2894 -0.7855  0.8373
  596TIP3    H223204   2.606   0.650  13.220 -1.2479  0.2267  0.5303
  597TIP3   OH223205   3.425   1.226   0.727 -0.4395 -0.0830  0.6035
  597TIP3    H123206   3.374   1.186   0.656  0.9619 -0.4562 -0.2233
  597TIP3    H223207   3.496   1.271   0.682  0.6895 -0.6365  1.7898
  598TIP3   OH223208   1.697   0.486  10.417  0.0751  0.5503  0.1590
  598TIP3    H123209   1.623   0.506  10.360  0.3202 -0.0869 -0.4013
  598TIP3    H223210   1.771   0.475  10.357  0.2874 -0.3675  0.5815
  599TIP3   OH223211   2.848   5.169  17.149 -0.2542  0.3025  0.7005
  599TIP3    H123212   2.760   5.205  17.147 -0.2579  0.2459 -1.1574
  599TIP3    H223213   2.853   5.114  17.071  0.9196 -0.9119  1.6158
  600TIP3   OH223214   3.272   2.915  12.203  0.1081  0.3994  0.0169
  600TIP3    H123215   3.318   2.871  12.131  0.5923 -0.2555  0.7145
  600TIP3    H223216   3.340   2.967  12.246  0.4200 -1.3455  1.6590
  601TIP3   OH223217   4.402   1.961   0.423  0.4056 -0.2032 -0.1488
  601TIP3    H123218   4.472   1.920   0.374  0.0214  0.1232 -0.9706
  601TIP3    H223219   4.387   1.902   0.497  2.3454  0.3131  0.7051
  602TIP3   OH223220   3.017   5.117   4.234  0.1615 -0.3184  0.5323
  602TIP3    H123221   3.020   5.080   4.146  0.5112  0.8131  0.0655
  602TIP3    H223222   3.101   5.160   4.246  1.0254 -2.3728  2.2816
  603TIP3   OH223223   0.022   2.339  16.550  0.6380 -0.1762  0.2444
  603TIP3    H123224   0.033   2.324  16.644 -1.8321 -2.2257  0.2440
  603TIP3    H223225  -0.041   2.411  16.545 -0.0416 -0.7748  0.1614
  604TIP3   OH223226   4.960   0.495  13.292  0.2520  0.5134  0.6523
  604TIP3    H123227   4.974   0.451  13.376 -1.4468  0.4825  0.9341
  604TIP3    H223228   4.948   0.587  13.315 -0.9617  0.3911  0.5192
  605TIP3   OH223229   0.590   3.886  16.461 -0.1506  0.1262  0.0866
  605TIP3    H123230   0.610   3.793  16.473  0.7782  0.3735  0.5652
  605TIP3    H223231   0.638   3.930  16.531 -2.9064  0.7332  1.6265
  606TIP3   OH223232   5.814   0.372  16.873  0.3623 -0.4154  0.2223
  606TIP3    H123233   5.809   0.317  16.794  2.4852  1.1622 -1.0828
  606TIP3    H223234   5.739   0.431  16.865 -0.5403 -1.5387  0.3801
  607TIP3   OH223235   2.767   1.392   1.303  0.0168  0.1419  0.0581
  607TIP3    H123236   2.747   1.336   1.378  1.4429 -1.6057 -0.8599
  607TIP3    H223237   2.848   1.437   1.328 -0.0269  0.2848 -0.0572
  608TIP3   OH223238   1.220   4.054   3.911 -0.3150  0.3153  0.1043
  608TIP3    H123239   1.215   4.142   3.874 -0.8777  0.0137 -0.5431
  608TIP3    H223240   1.130   4.036   3.940  0.2179  0.7306  2.0352
  609TIP3   OH223241   2.852   1.092   2.507  0.3290 -0.0352 -0.4308
  609TIP3    H123242   2.829   1.181   2.479 -0.2548 -0.4407 -1.2434
  609TIP3    H223243   2.791   1.036   2.460  0.3985 -0.8387  0.4396
  610TIP3   OH223244   3.617   0.874   3.765  0.1972 -0.2129  0.3014
  610TIP3    H123245   3.647   0.962   3.788 -0.0767  0.1255 -0.6149
  610TIP3    H223246   3.536   0.888   3.716  0.6459 -0.9329 -0.6515
  611TIP3   OH223247   2.660   1.584  15.268  0.5682 -0.0224  0.2865
  611TIP3    H123248   2.661   1.556  15.359 -2.5796 -1.3933 -0.0493
  611TIP3    H223249   2.639   1.677  15.272 -0.5146 -0.2841  0.9475
  612TIP3   OH223250   3.003   3.423   2.356  0.3402  0.0765  0.1329
  612TIP3    H123251   2.922   3.473   2.346 -0.4464 -0.9107  1.3191
  612TIP3    H223252   3.023   3.428   2.450  1.1305 -0.4666 -0.0038
  613TIP3   OH223253   5.255   5.599  12.168  1.1681 -0.2763 -0.0638
  613TIP3    H123254   5.269   5.689  12.195  1.1067 -0.7284  1.5041
  613TIP3    H223255   5.172   5.602  12.119  0.2225  0.2209  1.5297
  614TIP3   OH223256   4.078   5.596  12.746 -0.1135  0.0126  0.5235
  614TIP3    H123257   4.054   5.667  12.687  0.1957 -1.2652 -1.2090
  614TIP3    H223258   4.145   5.632  12.803  1.5351  0.5503 -1.6857
  615TIP3   OH223259   1.325   1.124   0.725 -0.1944 -0.2854 -0.3747
  615TIP3    H123260   1.340   1.214   0.753 -0.8386 -0.2244 -0.2117
  615TIP3    H223261   1.336   1.072   0.804 -2.8816 -0.0239  0.2254
  616TIP3   OH223262   6.506   1.939   4.378 -0.1454  1.0410 -0.5965
  616TIP3    H123263   6.460   1.865   4.339 -0.3356 -0.9006  3.1068
  616TIP3    H223264   6.594   1.936   4.339 -0.8519  0.3035 -2.1757
  617TIP3   OH223265   2.761   1.624  14.174 -0.1271  0.2072  0.3356
  617TIP3    H123266   2.735   1.603  14.085 -1.1312 -0.6170  0.8021
  617TIP3    H223267   2.822   1.697  14.166 -1.3062  1.0734 -0.9392
  618TIP3   OH223268   1.202   5.652  11.562  0.6162  0.2359  0.4692
  618TIP3    H123269   1.114   5.689  11.552 -0.5662 -2.9045 -1.4984
  618TIP3    H223270   1.248   5.714  11.618 -1.9710  3.4049 -0.7642
  619TIP3   OH223271   0.433   1.192   0.018  0.5790  0.8531  0.0642
  619TIP3    H123272   0.403   1.211  -0.071 -0.6995 -0.0654  0.2792
  619TIP3    H223273   0.354   1.201   0.072  0.8792 -0.6909  0.7809
  620TIP3   OH223274   0.511   6.278  15.533  0.9424  0.0404  0.5347
  620TIP3    H123275   0.580   6.337  15.563 -0.4386  2.3882 -0.7628
  620TIP3    H223276   0.483   6.231  15.612  3.9455 -0.9399  1.0796
  621TIP3   OH223277   4.350   6.685   6.073  0.2812 -0.0518  0.0873
  621TIP3    H123278   4.262   6.674   6.038  1.0467 -1.3458 -1.4567
  621TIP3    H223279   4.381   6.596   6.090  0.7190  0.4478  2.1135
  622TIP3   OH223280   1.399   3.957   0.698  0.1586 -0.5333 -0.3868
  622TIP3    H123281   1.349   3.980   0.620  0.5633  3.0155  0.2876
  622TIP3    H223282   1.353   4.000   0.770  2.2189 -0.0538  0.7066
  623TIP3   OH223283   2.473   2.065  14.134  0.0252  0.0061 -0.1815
  623TIP3    H123284   2.482   1.971  14.150 -1.2714 -0.1280 -0.1620
  623TIP3    H223285   2.545   2.105  14.183  1.0943 -1.0357 -0.8780
  624TIP3   OH223286   2.867   5.337   0.132  0.0292 -0.0540 -0.1312
  624TIP3    H123287   2.889   5.334   0.039  0.1287 -0.7146 -0.0869
  624TIP3    H223288   2.946   5.373   0.173 -0.0762  0.3996 -0.3184
  625TIP3   OH223289   4.836   2.489   2.705  0.6547 -0.2618  0.1989
  625TIP3    H123290   4.832   2.576   2.664  0.7510 -0.3276  0.0493
  625TIP3    H223291   4.799   2.502   2.792  1.9872  0.2390  0.6933
  626TIP3   OH223292   6.514   0.745  16.793 -0.0937  0.7216  0.0029
  626TIP3    H123293   6.460   0.744  16.872  1.1315  1.3839  0.8734
  626TIP3    H223294   6.531   0.653  16.774 -1.1566  0.5265 -0.0297
  627TIP3   OH223295   6.771   6.338   0.471 -0.4994 -0.3758  0.5579
  627TIP3    H123296   6.786   6.267   0.533 -1.1855 -1.4532 -0.4726
  627TIP3    H223297   6.724   6.405   0.521  0.5825 -0.4241  1.6655
  628TIP3   OH223298   5.594   4.886   5.729  0.0521 -0.3373 -0.1059
  628TIP3    H123299   5.687   4.897   5.752  0.3728 -1.1097 -1.0242
  628TIP3    H223300   5.584   4.935   5.647 -0.2133 -0.7625 -0.3267
  629TIP3   OH223301   3.456   1.378   3.258  0.0171 -0.6175 -0.0826
  629TIP3    H123302   3.485   1.381   3.349 -0.5227  0.0531  0.0663
  629TIP3    H223303   3.395   1.305   3.254 -0.9514  0.1692  0.3802
  630TIP3   OH223304   0.207   1.523   2.854  0.5335 -0.2582  0.0587
  630TIP3    H123305   0.125   1.478   2.872  0.3220  0.2744  0.4660
  630TIP3    H223306   0.207   1.538   2.760  0.6732 -1.2293 -0.0957
  631TIP3   OH223307   0.269   1.458   2.202  0.2797 -0.3971  0.6567
  631TIP3    H123308   0.333   1.394   2.233  0.1284 -0.8166  0.1136
  631TIP3    H223309   0.200   1.406   2.161 -0.4087  0.0540  1.2261
  632TIP3   OH223310   0.453   2.679   4.647 -0.2000  0.2988 -0.1241
  632TIP3    H123311   0.415   2.728   4.574  0.3945  0.8278 -0.0779
  632TIP3    H223312   0.491   2.601   4.606 -0.7587  0.0895 -0.2497
  633TIP3   OH223313   4.361   6.744  14.291  0.4733 -0.0601 -0.3162
  633TIP3    H123314   4.418   6.737  14.214 -0.1017  1.4352 -0.9088
  633TIP3    H223315   4.362   6.837  14.313  0.1157 -0.3804  1.1029
  634TIP3   OH223316   5.827   2.964  17.214  0.2566  0.2474  0.1993
  634TIP3    H123317   5.810   3.046  17.261  0.9696  1.1558 -1.0941
  634TIP3    H223318   5.921   2.964  17.198 -0.0547  0.2840 -1.8051
  635TIP3   OH223319   2.708   2.990   4.307 -0.0208  0.0162 -0.0204
  635TIP3    H123320   2.688   2.921   4.371  1.9634 -0.0475  0.5681
  635TIP3    H223321   2.750   3.059   4.359  0.1230  0.6748 -0.9939
  636TIP3   OH223322   3.798   6.633  10.709  0.2626  0.4282 -0.1061
  636TIP3    H123323   3.818   6.725  10.727 -1.8407  0.7664  0.5745
  636TIP3    H223324   3.728   6.635  10.644 -0.4939 -0.6605  0.6472
  637TIP3   OH223325   1.900   0.694  12.843  0.8522  0.1158 -0.0961
  637TIP3    H123326   1.820   0.746  12.834  0.5080  0.0157  2.1500
  637TIP3    H223327   1.951   0.739  12.910  0.9632 -1.8986  1.2279
  638TIP3   OH223328   6.442   2.239  14.307 -0.2021  0.2772  0.5298
  638TIP3    H123329   6.456   2.221  14.400 -0.2036  2.3506  0.9624
  638TIP3    H223330   6.527   2.225  14.266  0.3241  1.4414  1.2134
  639TIP3   OH223331   3.085   4.621   2.030 -0.2579 -0.7790  0.5359
  639TIP3    H123332   3.126   4.702   1.999 -0.3178  0.2673  3.1150
  639TIP3    H223333   3.030   4.593   1.957 -1.5211  2.4007  0.1875
  640TIP3   OH223334   0.033   4.998   5.912 -0.0920  0.4429 -0.1938
  640TIP3    H123335   0.074   5.064   5.967  1.9869  0.6314 -1.8846
  640TIP3    H223336  -0.061   5.016   5.919  0.2866  2.0029  1.3068
  641TIP3   OH223337   2.773   5.965  15.438 -0.1214 -0.4412 -0.3413
  641TIP3    H123338   2.677   5.966  15.429 -0.0193 -1.1218 -1.6418
  641TIP3    H223339   2.790   5.908  15.512 -0.8391  1.9377  1.7310
  642TIP3   OH223340   5.380   6.388  15.113  0.1171  0.1635  0.1616
  642TIP3    H123341   5.287   6.401  15.128  0.1394 -0.4804  0.9041
  642TIP3    H223342   5.386   6.303  15.070  0.2183  1.0858 -1.6992
  643TIP3   OH223343   6.607   1.378   2.399 -0.1107 -0.7258 -1.2147
  643TIP3    H123344   6.631   1.344   2.313  0.7332 -0.9690 -0.8902
  643TIP3    H223345   6.613   1.302   2.457  0.2560 -0.3534 -0.7691
  644TIP3   OH223346   1.022   1.102   1.431 -1.4681  0.1492  0.4251
  644TIP3    H123347   0.962   1.118   1.504 -1.6805 -1.4240  0.6013
  644TIP3    H223348   1.070   1.023   1.455 -1.7709 -0.5848 -1.2818
  645TIP3   OH223349   0.308   0.983  12.096  0.5645  0.3015 -0.3678
  645TIP3    H123350   0.226   0.949  12.132  0.3226 -1.5788 -2.5744
  645TIP3    H223351   0.330   1.057  12.152 -0.9931 -1.0977  2.1862
  646TIP3   OH223352   1.446   2.987  13.988 -0.3526  0.2417 -0.0347
  646TIP3    H123353   1.531   3.024  14.012 -1.2895  2.1258  0.3940
  646TIP3    H223354   1.462   2.947  13.902  0.9545  0.6565  0.0009
  647TIP3   OH223355   4.316   1.232   4.694 -0.4827 -0.3913 -0.4897
  647TIP3    H123356   4.240   1.182   4.723 -1.4064  1.5439  0.5038
  647TIP3    H223357   4.360   1.260   4.774  0.7905 -0.7410 -1.0455
  648TIP3   OH223358   3.355   3.914   1.362  0.2386 -0.3387 -0.4805
  648TIP3    H123359   3.281   3.958   1.403 -0.0726  0.2332 -1.6260
  648TIP3    H223360   3.420   3.906   1.431 -0.4749  0.1483  0.2500
  649TIP3   OH223361   3.419   3.859  11.947  0.0342 -0.3181  0.4239
  649TIP3    H123362   3.334   3.867  11.990  1.5017  1.8573  3.1338
  649TIP3    H223363   3.411   3.911  11.867 -1.5049 -1.0653  0.0735
  650TIP3   OH223364   0.853   4.441  13.056  0.0159  0.2912  0.2347
  650TIP3    H123365   0.847   4.355  13.015  0.8428  0.0630  0.5855
  650TIP3    H223366   0.766   4.456  13.093 -0.3457 -0.0677 -0.4682
  651TIP3   OH223367   6.094   5.160   4.545  0.0852  0.0456 -0.0618
  651TIP3    H123368   6.082   5.195   4.633  1.7305  3.1406 -0.9727
  651TIP3    H223369   6.114   5.067   4.558 -0.3883  0.2999  2.7580
  652TIP3   OH223370   1.632   3.148  15.687  0.0759  0.1642 -0.3926
  652TIP3    H123371   1.625   3.228  15.740  0.8262 -0.4880  0.6947
  652TIP3    H223372   1.726   3.129  15.685  0.0039 -0.1430 -1.4976
  653TIP3   OH223373   1.176   5.413  15.869  0.0777 -0.5481  0.0012
  653TIP3    H123374   1.220   5.409  15.784  0.6760 -2.0484  0.3807
  653TIP3    H223375   1.240   5.455  15.927 -1.9409  4.6886 -1.2586
  654TIP3   OH223376   5.682   3.870  16.425  0.3585 -0.2583 -0.3248
  654TIP3    H123377   5.695   3.859  16.519 -0.0586 -0.7847 -0.3280
  654TIP3    H223378   5.625   3.946  16.417  0.4593 -0.1653 -0.1570
  655TIP3   OH223379   6.293   1.618  13.188  0.0711  0.0637  0.1481
  655TIP3    H123380   6.238   1.546  13.219  1.7642 -0.6472  1.5687
  655TIP3    H223381   6.323   1.590  13.102  0.7407 -0.9366  0.7045
  656TIP3   OH223382   6.595   1.569  11.598  0.1571 -0.4604  0.1963
  656TIP3    H123383   6.597   1.642  11.660 -0.4141  0.6356 -1.0367
  656TIP3    H223384   6.512   1.524  11.616 -0.2333  0.1415 -0.0779
  657TIP3   OH223385   3.674   6.215  11.857  0.2145  0.3403  0.6443
  657TIP3    H123386   3.728   6.221  11.779 -0.4848  1.3547  0.2285
  657TIP3    H223387   3.735   6.228  11.930  0.6885  0.4915  0.2216
  658TIP3   OH223388   1.361   3.778  11.688 -0.3818 -0.2099 -0.3612
  658TIP3    H123389   1.345   3.720  11.614 -1.4178 -2.2784  1.4443
  658TIP3    H223390   1.444   3.747  11.726  0.0897  0.7669 -0.5833
  659TIP3   OH223391   1.425   5.814   6.681 -0.1223  0.3390 -0.5687
  659TIP3    H123392   1.467   5.816   6.595  0.7162  3.2466 -0.1183
  659TIP3    H223393   1.333   5.796   6.662  0.1132  0.6278 -2.0368
  660TIP3   OH223394   1.555   3.381  14.759  0.2865  0.1444  0.5113
  660TIP3    H123395   1.468   3.360  14.793  0.5519  0.2992  1.3072
  660TIP3    H223396   1.540   3.407  14.669 -0.2895 -1.5589  0.0872
  661TIP3   OH223397   0.326   3.996   2.020  0.1201 -0.2624  0.0310
  661TIP3    H123398   0.331   3.913   2.066  0.6551  0.0027  0.4599
  661TIP3    H223399   0.232   4.014   2.012  0.0271 -0.1689  1.2673
  662TIP3   OH223400   3.307   4.116   0.954 -0.8140 -0.6167 -0.0990
  662TIP3    H123401   3.299   4.067   0.873 -0.3445 -0.6526 -0.1262
  662TIP3    H223402   3.386   4.170   0.942 -0.9222 -0.3857  0.2069
  663TIP3   OH223403   5.233   5.900  16.898 -0.5685 -0.5273 -0.1524
  663TIP3    H123404   5.219   5.851  16.979 -0.9778  0.9454  0.6865
  663TIP3    H223405   5.149   5.899  16.854 -0.6385 -0.4060 -0.0236
  664TIP3   OH223406   2.996   2.960   0.535  0.2789 -0.4646 -0.2285
  664TIP3    H123407   2.926   2.989   0.594 -0.1430 -1.8985 -0.0033
  664TIP3    H223408   2.966   2.874   0.504  2.8625 -1.9783  1.3655
  665TIP3   OH223409   5.106   4.604   0.601 -0.2727  0.3111 -0.6097
  665TIP3    H123410   5.136   4.666   0.668  1.3419 -1.7067  0.6006
  665TIP3    H223411   5.093   4.522   0.648 -4.0909  0.1083 -1.8447
  666TIP3   OH223412   0.570   1.817   0.247  0.0433 -0.5187 -0.1428
  666TIP3    H123413   0.654   1.831   0.291 -0.0953 -0.8454  0.2207
  666TIP3    H223414   0.545   1.728   0.270 -0.0054 -0.7075 -0.9249
  667TIP3   OH223415   4.569   1.551   5.832  0.6999  0.1182  0.1600
  667TIP3    H123416   4.531   1.484   5.776  0.5117 -0.7880  1.3590
  667TIP3    H223417   4.516   1.629   5.815  0.7683 -0.0898 -1.0547
  668TIP3   OH223418   2.502   3.184   3.528  0.2788 -0.0462  0.1553
  668TIP3    H123419   2.416   3.220   3.549 -0.4835 -1.5098 -0.3835
  668TIP3    H223420   2.557   3.209   3.602  0.0098  2.9607 -0.6221
  669TIP3   OH223421   1.252   0.820   1.875 -0.1835  0.1120  0.1061
  669TIP3    H123422   1.178   0.876   1.849 -0.1972 -0.0191 -0.1339
  669TIP3    H223423   1.317   0.881   1.909 -0.5347  0.2006  0.6321
  670TIP3   OH223424   3.038   2.799   2.209 -0.4603  0.0078 -0.0588
  670TIP3    H123425   3.039   2.894   2.218 -0.5368  0.0460 -0.4346
  670TIP3    H223426   3.027   2.784   2.115  0.4014 -0.3623 -0.1132
  671TIP3   OH223427   4.806   1.170   1.182  0.1351  0.4465 -0.4825
  671TIP3    H123428   4.738   1.235   1.202  0.7255  1.6686 -2.2970
  671TIP3    H223429   4.888   1.214   1.205  0.5283  0.2749 -1.5638
  672TIP3   OH223430   2.892   0.163  13.648  0.1501  0.3448 -0.1558
  672TIP3    H123431   2.832   0.181  13.576  0.0980 -0.6847 -0.3894
  672TIP3    H223432   2.836   0.130  13.718  0.3903 -0.2374 -0.2323
  673TIP3   OH223433   2.803   2.767   4.430 -0.1637  0.2300  0.6648
  673TIP3    H123434   2.742   2.715   4.379 -0.7710  2.4538 -0.9503
  673TIP3    H223435   2.885   2.764   4.380  0.3358 -0.6407  1.5118
  674TIP3   OH223436   6.141   4.729  13.357 -0.3970  0.8109  0.5804
  674TIP3    H123437   6.182   4.792  13.418  1.0767 -0.3686  0.8587
  674TIP3    H223438   6.128   4.650  13.410  0.9202 -0.2434 -0.6081
  675TIP3   OH223439   3.694   6.525   4.080 -0.1416 -0.1465  0.2420
  675TIP3    H123440   3.693   6.559   3.990 -0.0852 -0.3248  0.1712
  675TIP3    H223441   3.765   6.461   4.079 -0.7418 -0.8205  0.1601
  676TIP3   OH223442   1.288   0.192  14.067 -0.1768 -0.6982 -0.0592
  676TIP3    H123443   1.330   0.121  14.019 -0.5027 -0.3190 -0.8950
  676TIP3    H223444   1.196   0.167  14.072  0.2734 -2.0409  2.6759
  677TIP3   OH223445   1.324   3.181  13.152 -0.0827  0.2729 -0.1963
  677TIP3    H123446   1.406   3.158  13.196 -0.2511  1.1979  0.6155
  677TIP3    H223447   1.324   3.277  13.151 -1.2448  0.2788 -0.0077
  678TIP3   OH223448   3.899   5.176   4.435  0.4707 -0.0302  0.1613
  678TIP3    H123449   3.863   5.249   4.485 -0.4989  0.9555 -1.9211
  678TIP3    H223450   3.987   5.205   4.410  0.7944 -0.3528  0.8980
  679TIP3   OH223451   0.561   2.119   5.495  0.3599  0.1774  0.7693
  679TIP3    H123452   0.515   2.063   5.558 -1.2328  2.6749  1.8809
  679TIP3    H223453   0.617   2.175   5.549  0.0686  1.3619 -0.1472
  680TIP3   OH223454   5.897   5.010   5.123  0.2613  0.6536  0.8977
  680TIP3    H123455   5.860   4.925   5.144 -1.5737  1.0928 -0.4386
  680TIP3    H223456   5.954   4.994   5.048  2.0694  0.1430  2.3602
  681TIP3   OH223457   0.114   0.569   4.502 -0.6324  0.2049 -0.3090
  681TIP3    H123458   0.194   0.592   4.455  0.0137 -1.8169 -0.2771
  681TIP3    H223459   0.047   0.563   4.434 -0.4246  0.5022 -0.5372
  682TIP3   OH223460   6.335   3.022  14.277 -0.7917  0.3187 -0.1363
  682TIP3    H123461   6.382   2.945  14.310 -0.1647  1.1865  1.0278
  682TIP3    H223462   6.402   3.090  14.269 -1.5080  1.0203 -0.2386
  683TIP3   OH223463   0.765   2.585  14.581  0.3094  0.2701 -0.8262
  683TIP3    H123464   0.814   2.668  14.585 -1.0762  1.0537  0.0270
  683TIP3    H223465   0.679   2.610  14.548  0.3627 -1.0686 -2.0296
  684TIP3   OH223466   3.605   3.261  15.850  0.1069  0.0119  0.8293
  684TIP3    H123467   3.580   3.338  15.799  0.1356  0.5017  1.5457
  684TIP3    H223468   3.522   3.222  15.877  0.0843 -0.6079 -0.1208
  685TIP3   OH223469   0.309   5.408  17.203  0.1008  0.7549 -0.7140
  685TIP3    H123470   0.232   5.417  17.147 -0.8659  0.7229  0.5980
  685TIP3    H223471   0.352   5.327  17.172 -0.4140  0.7340 -1.3942
  686TIP3   OH223472   3.877   4.128   0.001 -0.2117  0.1616 -0.1489
  686TIP3    H123473   3.852   4.201   0.057  0.6932  0.5799 -0.2862
  686TIP3    H223474   3.830   4.145  -0.082 -1.7468 -0.5921  0.5355
  687TIP3   OH223475   4.220   3.214  16.206 -0.1442 -0.1238 -0.9038
  687TIP3    H123476   4.225   3.224  16.111  0.5464 -0.5578 -0.9154
  687TIP3    H223477   4.294   3.264  16.239 -1.0855  1.0402 -0.5137
  688TIP3   OH223478   4.615   4.458   1.141  0.2477  0.0808  0.1991
  688TIP3    H123479   4.540   4.459   1.082 -1.1533  0.2083  1.9365
  688TIP3    H223480   4.649   4.369   1.136 -1.7960 -0.7971  1.5710
  689TIP3   OH223481   3.962   6.739  16.109  0.2745 -0.9964  0.3506
  689TIP3    H123482   3.941   6.814  16.053 -1.3057 -0.7612  1.2186
  689TIP3    H223483   4.053   6.719  16.090  0.3197  0.3183 -0.8657
  690TIP3   OH223484   2.155   6.399  15.796 -0.0551  0.7177 -0.3698
  690TIP3    H123485   2.225   6.333  15.796 -0.5948  0.1292 -1.7880
  690TIP3    H223486   2.196   6.477  15.759 -0.3690  0.1000 -2.0801
  691TIP3   OH223487   1.603   0.578   1.333 -0.3622  0.0942  0.7492
  691TIP3    H123488   1.650   0.659   1.354 -1.8859  1.0067  0.6760
  691TIP3    H223489   1.621   0.563   1.241  0.1661  0.1813  0.8333
  692TIP3   OH223490   2.608   3.607   3.121  0.4605 -1.0666  0.0540
  692TIP3    H123491   2.542   3.592   3.189  0.5373  1.6272  0.7609
  692TIP3    H223492   2.571   3.675   3.066  2.6550  0.6009  0.5388
  693TIP3   OH223493   3.913   2.589   4.308 -0.0397  0.1139 -0.8122
  693TIP3    H123494   3.866   2.671   4.293  0.4205  0.1405 -2.1847
  693TIP3    H223495   3.887   2.532   4.236  0.6772 -0.4794 -0.6156
  694TIP3   OH223496   2.273   2.537  14.369 -0.2288 -0.1804  0.2424
  694TIP3    H123497   2.229   2.475  14.312  2.1055  0.0138 -1.8718
  694TIP3    H223498   2.354   2.493  14.394 -0.9984 -0.0644  3.0575
  695TIP3   OH223499   3.443   3.548   6.892  0.1977 -0.1039 -0.4244
  695TIP3    H123500   3.354   3.518   6.911  0.9943 -1.0464  2.1737
  695TIP3    H223501   3.452   3.539   6.797 -2.6765  0.6745 -0.8277
  696TIP3   OH223502   3.425   1.415  11.773  0.0593  0.6349  0.3881
  696TIP3    H123503   3.439   1.320  11.766  0.3563  0.7345 -0.3816
  696TIP3    H223504   3.350   1.432  11.717 -0.2568  0.7965  0.8592
  697TIP3   OH223505   3.314   5.396   1.439  0.2579 -0.3726  0.6846
  697TIP3    H123506   3.316   5.364   1.529 -1.6176  1.6217  1.4842
  697TIP3    H223507   3.365   5.477   1.442  1.8070 -1.2837 -0.4902
  698TIP3   OH223508   1.905   1.571  14.337  0.4927  0.7212 -0.6685
  698TIP3    H123509   1.830   1.533  14.382  1.2009  0.8305  0.6221
  698TIP3    H223510   1.932   1.644  14.392  2.4353 -0.2082 -0.3370
  699TIP3   OH223511   2.879   6.139   0.172  0.2319 -0.3790 -0.7137
  699TIP3    H123512   2.846   6.169   0.088 -0.2542 -0.2317 -0.4704
  699TIP3    H223513   2.845   6.050   0.181 -2.3299  0.6921  0.7292
  700TIP3   OH223514   4.813   5.062  13.093  0.1352  0.1088 -0.8543
  700TIP3    H123515   4.860   5.029  13.017 -1.9327 -0.7728 -1.7963
  700TIP3    H223516   4.737   5.109  13.057 -0.9931 -0.5030  0.6319
  701TIP3   OH223517   4.855   5.735   1.494  0.0057  0.0235 -0.5160
  701TIP3    H123518   4.833   5.657   1.545  0.2884  0.7711  0.7567
  701TIP3    H223519   4.936   5.767   1.534 -0.3266  1.2009 -0.7926
  702TIP3   OH223520   2.181   0.921   4.139 -0.0625 -0.1895 -0.0792
  702TIP3    H123521   2.140   0.888   4.059 -0.2100  0.8716 -0.4430
  702TIP3    H223522   2.137   1.004   4.157  1.1124  0.3921  0.1806
  703TIP3   OH223523   2.735   4.618  15.519  0.2240  0.4912 -0.2901
  703TIP3    H123524   2.645   4.604  15.491 -0.0185 -1.1278  1.1822
  703TIP3    H223525   2.735   4.705  15.560 -1.2213 -0.4054  1.7321
  704TIP3   OH223526   2.515   0.339   4.977 -0.1715 -0.7889  0.2054
  704TIP3    H123527   2.564   0.379   4.905 -2.1790 -0.7614 -1.1887
  704TIP3    H223528   2.567   0.262   5.001  1.2295 -0.0372 -0.3380
  705TIP3   OH223529   0.874   1.211  13.247 -0.2104 -0.3163  0.5617
  705TIP3    H123530   0.962   1.179  13.266 -0.5994 -0.4266  2.2836
  705TIP3    H223531   0.870   1.218  13.152  2.5975  2.3561  0.5823
  706TIP3   OH223532   6.222   3.539  16.143  0.1701 -0.1604  0.1078
  706TIP3    H123533   6.160   3.595  16.096  0.2789 -1.8101 -2.0743
  706TIP3    H223534   6.211   3.563  16.235 -1.0528  2.1659 -0.6115
  707TIP3   OH223535   6.695   2.449  12.319  0.2949 -0.5658  0.4704
  707TIP3    H123536   6.615   2.502  12.311  0.7015  0.1076  0.7846
  707TIP3    H223537   6.689   2.386  12.248  0.4938  0.8324 -0.8150
  708TIP3   OH223538   6.008   1.869   4.369  0.4557  0.1987  0.0002
  708TIP3    H123539   6.074   1.902   4.431  0.1592  0.6266  0.0908
  708TIP3    H223540   6.054   1.864   4.286  0.4457  1.0791 -0.0676
  709TIP3   OH223541   3.578   2.893   6.741 -0.0421 -0.6761 -0.0286
  709TIP3    H123542   3.562   2.820   6.682 -0.6052 -0.0957 -0.5884
  709TIP3    H223543   3.630   2.855   6.812 -2.9027 -2.3367  1.2590
  710TIP3   OH223544   5.363   6.359   1.176  0.2481 -0.8359 -0.1489
  710TIP3    H123545   5.374   6.316   1.261  0.2323  0.6288  0.6054
  710TIP3    H223546   5.269   6.356   1.159  0.3631 -2.0688 -0.6261
  711TIP3   OH223547   5.369   4.562  12.209 -0.4265  0.0475 -0.1504
  711TIP3    H123548   5.302   4.618  12.250 -0.1890  0.7763 -0.7576
  711TIP3    H223549   5.328   4.476  12.202 -0.6172  0.0126  1.2586
  712TIP3   OH223550   0.739   3.664   2.299  0.2056  0.0454  0.4905
  712TIP3    H123551   0.688   3.657   2.380 -2.5174  2.1476 -0.9373
  712TIP3    H223552   0.699   3.599   2.241  2.2174 -1.5283  0.8367
  713TIP3   OH223553   3.543   4.222  15.066 -0.1460 -0.4795 -0.1574
  713TIP3    H123554   3.587   4.193  15.145  2.5299  0.6830 -1.1558
  713TIP3    H223555   3.497   4.145  15.034  0.2027 -1.4204  1.5484
  714TIP3   OH223556   2.765   3.741   5.730  0.4364  0.3711 -0.2661
  714TIP3    H123557   2.716   3.695   5.662  0.3885  0.3942 -0.2476
  714TIP3    H223558   2.755   3.686   5.808  0.3674  0.4215 -0.2400
  715TIP3   OH223559   5.371   4.806  11.112  0.4024  0.1441  0.7486
  715TIP3    H123560   5.311   4.784  11.184 -1.7644 -1.9801 -1.6239
  715TIP3    H223561   5.429   4.872  11.150 -1.2928 -0.1698  4.1606
  716TIP3   OH223562   2.515   2.456   3.521  0.3916 -0.1644 -0.4861
  716TIP3    H123563   2.554   2.543   3.519  1.1185 -0.4466  1.2205
  716TIP3    H223564   2.441   2.463   3.581  0.9247 -0.9202  0.2666
  717TIP3   OH223565   0.085   1.247   0.529 -0.0522 -0.5037 -0.0838
  717TIP3    H123566   0.100   1.180   0.463 -0.3619 -1.3340  0.6672
  717TIP3    H223567  -0.009   1.238   0.550 -0.6279  1.6643 -1.5863
  718TIP3   OH223568   2.744   4.063  14.502 -0.3182 -0.2595  0.2233
  718TIP3    H123569   2.717   4.153  14.484 -0.1201 -0.2843 -0.1887
  718TIP3    H223570   2.751   4.059  14.598  0.3406  0.3478  0.2007
  719TIP3   OH223571   2.037   6.270  17.121  0.0447 -0.7329  0.4160
  719TIP3    H123572   2.130   6.275  17.142  0.2745 -2.4465 -0.1522
  719TIP3    H223573   2.015   6.358  17.090  1.6804 -0.5796 -0.3411
  720TIP3   OH223574   1.066   3.158  16.764 -0.0515 -0.5421 -0.2389
  720TIP3    H123575   1.012   3.138  16.688 -0.0337  0.6360 -0.5852
  720TIP3    H223576   1.006   3.201  16.825  0.1468 -0.6332  0.0191
  721TIP3   OH223577   4.346   4.681  13.059  0.0993  0.7415  0.5710
  721TIP3    H123578   4.279   4.741  13.025 -0.9409 -1.3641 -1.2196
  721TIP3    H223579   4.334   4.601  13.008  3.7623  0.1867  0.4408
  722TIP3   OH223580   1.132   3.739  14.344 -0.5225  0.2221  0.2374
  722TIP3    H123581   1.039   3.728  14.366 -0.5566 -1.6083 -0.7375
  722TIP3    H223582   1.169   3.652  14.353  1.4061  1.1796  1.8913
  723TIP3   OH223583   6.028   0.813   0.863 -0.3648  0.5205 -0.3489
  723TIP3    H123584   6.025   0.888   0.804  2.5460  0.3100 -0.8211
  723TIP3    H223585   6.069   0.846   0.942  1.0753 -0.5855 -0.6123
  724TIP3   OH223586   1.589   4.574  16.822  0.6682 -0.3861 -0.0263
  724TIP3    H123587   1.669   4.608  16.862  0.9012 -1.3095  0.3079
  724TIP3    H223588   1.619   4.537  16.738 -0.0494  2.9456 -1.8445
  725TIP3   OH223589   3.064   0.042  12.095  0.0848  0.3598 -0.1082
  725TIP3    H123590   3.076  -0.030  12.032  1.3331  0.1558  0.3536
  725TIP3    H223591   2.972   0.036  12.119 -0.1738 -0.1976 -1.1557
  726TIP3   OH223592   1.530   1.980  14.743 -0.3539 -0.2306 -0.1968
  726TIP3    H123593   1.554   1.889  14.727 -0.3724 -0.3054  0.1892
  726TIP3    H223594   1.435   1.983  14.730 -0.5535 -0.5656  1.1498
  727TIP3   OH223595   4.433   0.743   5.253 -0.5772 -0.5854  0.0260
  727TIP3    H123596   4.375   0.759   5.179 -0.5489 -2.9410 -0.5245
  727TIP3    H223597   4.422   0.650   5.273  0.7220 -0.3733  1.8737
  728TIP3   OH223598   1.426   5.610   0.654  0.2384  0.0292  0.0432
  728TIP3    H123599   1.459   5.681   0.599  0.6909 -0.6332 -0.5468
  728TIP3    H223600   1.342   5.586   0.616 -0.4890  1.0600  0.9686
  729TIP3   OH223601   3.351   2.531  16.529 -0.4695 -0.2877  0.2089
  729TIP3    H123602   3.389   2.466  16.588  1.0011  0.2097 -0.1671
  729TIP3    H223603   3.319   2.600  16.587 -1.3621 -0.9853  0.5654
  730TIP3   OH223604   1.588   2.058   4.468  0.0265  1.0817 -0.1694
  730TIP3    H123605   1.644   2.055   4.391  3.8567  0.2157  2.4936
  730TIP3    H223606   1.554   1.969   4.477  0.8442  0.7867  0.0192
  731TIP3   OH223607   2.120   5.279   0.554  0.2812 -0.5597  0.2165
  731TIP3    H123608   2.163   5.271   0.639  0.2882 -1.1917  0.1509
  731TIP3    H223609   2.065   5.357   0.563 -0.0546 -0.8791  0.9458
  732TIP3   OH223610   2.169   5.343  16.592 -0.2914  0.7987  0.1844
  732TIP3    H123611   2.100   5.384  16.540 -0.0775  1.0227  0.0755
  732TIP3    H223612   2.251   5.374  16.552 -0.1329  0.0427 -0.0765
  733TIP3   OH223613   0.578   2.268   5.788  0.3233  0.2174 -0.4710
  733TIP3    H123614   0.533   2.288   5.870  0.6118 -0.3009 -0.1760
  733TIP3    H223615   0.581   2.172   5.786  0.9427  0.2411 -0.7430
  734TIP3   OH223616   5.120   3.433  15.638 -0.3941  0.7253 -0.1419
  734TIP3    H123617   5.185   3.491  15.678 -1.6658  2.0649  0.0477
  734TIP3    H223618   5.153   3.418  15.550  0.0759  1.5294 -0.1100
  735TIP3   OH223619   4.746   1.641   3.948  0.5760 -0.5910 -0.5915
  735TIP3    H123620   4.661   1.686   3.949  0.7339 -0.2956  1.2886
  735TIP3    H223621   4.724   1.548   3.940 -0.0000 -0.6181  1.0872
  736TIP3   OH223622   5.952   1.588   2.896  0.3772 -0.1536  0.2992
  736TIP3    H123623   5.889   1.598   2.968  0.2705  0.1083  0.1695
  736TIP3    H223624   6.009   1.665   2.904  0.0615  0.1383 -0.1965
  737TIP3   OH223625   5.926   3.567   1.804 -0.0566  0.1234  0.2818
  737TIP3    H123626   5.998   3.619   1.767 -0.3491  0.5540  0.3198
  737TIP3    H223627   5.964   3.480   1.814  0.8953  0.6764  1.6161
  738TIP3   OH223628   4.720   3.139   1.548 -0.5707  0.0247  0.2701
  738TIP3    H123629   4.778   3.064   1.541 -0.0642  0.5060 -0.9609
  738TIP3    H223630   4.636   3.108   1.513 -1.1754 -0.7745  2.3784
  739TIP3   OH223631   5.270   5.212   3.059  0.2031 -0.4080  0.8446
  739TIP3    H123632   5.300   5.230   3.148 -0.8673 -2.7662  1.7336
  739TIP3    H223633   5.176   5.197   3.068 -0.3109  1.3885 -1.0313
  740TIP3   OH223634   1.309   3.639   1.702  0.1540  0.2221 -0.8406
  740TIP3    H123635   1.382   3.581   1.679 -2.2920 -3.2461 -0.2568
  740TIP3    H223636   1.296   3.624   1.796 -1.8840  0.0685 -1.1296
  741TIP3   OH223637   3.762   5.442  15.624  0.2358 -0.3439  0.1542
  741TIP3    H123638   3.701   5.503  15.582 -0.1950  0.7582  2.2991
  741TIP3    H223639   3.722   5.423  15.709  1.9776 -1.0626  0.8458
  742TIP3   OH223640   0.092   3.049  14.392 -0.0808  0.4149 -0.0177
  742TIP3    H123641   0.099   2.962  14.352 -1.6446  0.3201 -0.1312
  742TIP3    H223642   0.079   3.108  14.318  0.1658  0.6462  0.1240
  743TIP3   OH223643   1.073   1.435   2.292  0.1272 -0.2775  0.5743
  743TIP3    H123644   1.117   1.355   2.321  0.1080 -0.9074 -1.0591
  743TIP3    H223645   1.141   1.485   2.248 -0.3410 -0.4392 -0.3729
  744TIP3   OH223646   1.760   1.544  11.837 -0.8133  0.1585  0.1299
  744TIP3    H123647   1.750   1.457  11.876 -0.8807 -0.4717 -1.2745
  744TIP3    H223648   1.693   1.596  11.880  0.5724  0.0879  2.5180
  745TIP3   OH223649   2.148   5.970  11.243  0.0798 -0.0068  0.4010
  745TIP3    H123650   2.138   6.001  11.153  1.5574 -0.8117 -0.0518
  745TIP3    H223651   2.106   5.884  11.244  1.5523 -0.7464  0.0298
  746TIP3   OH223652   0.325   6.654  15.246  0.4616  0.5991 -0.4229
  746TIP3    H123653   0.407   6.694  15.276  0.7464 -0.6772  0.5170
  746TIP3    H223654   0.350   6.567  15.217 -0.4825  0.4070 -0.6594
  747TIP3   OH223655   2.457   2.118  15.353 -0.3486  0.2202  0.1412
  747TIP3    H123656   2.547   2.124  15.319 -0.3542  0.4506  0.1638
  747TIP3    H223657   2.467   2.122  15.448 -0.2811 -1.0975  0.2015
  748TIP3   OH223658   0.581   5.387  11.428 -0.3566  0.0729  0.3679
  748TIP3    H123659   0.577   5.316  11.363  2.1625  0.4749 -0.2668
  748TIP3    H223660   0.498   5.434  11.416 -2.9746 -3.8186  2.1183
  749TIP3   OH223661   5.506   1.650  15.253 -0.3308 -0.1044  0.2872
  749TIP3    H123662   5.418   1.660  15.217 -0.6262  0.6631  1.2230
  749TIP3    H223663   5.560   1.711  15.203 -0.1676 -1.0736 -0.7672
  750TIP3   OH223664   3.414   4.083  12.576  0.0921  0.1313  0.5655
  750TIP3    H123665   3.373   4.092  12.662  1.7772  1.3542  1.2503
  750TIP3    H223666   3.406   4.170  12.536 -0.0448 -0.2457 -0.2412
  751TIP3   OH223667   1.793   1.295  13.665 -0.4823 -0.5950 -0.7163
  751TIP3    H123668   1.812   1.377  13.710  0.4883 -0.3409 -1.5416
  751TIP3    H223669   1.713   1.312  13.615 -0.6810 -0.3776 -0.3187
  752TIP3   OH223670   3.746   0.884   1.223 -0.0079  0.1326  0.1631
  752TIP3    H123671   3.740   0.980   1.218  1.2361  0.1846 -0.7081
  752TIP3    H223672   3.656   0.854   1.228 -0.4348  1.3245 -0.2166
  753TIP3   OH223673   4.475   5.747  13.250 -0.3584  0.1798 -0.5037
  753TIP3    H123674   4.529   5.799  13.310  0.2613 -1.5190  0.4179
  753TIP3    H223675   4.394   5.732  13.298 -0.0355 -0.7983 -0.2609
  754TIP3   OH223676   6.611   2.838  13.516  0.3039  0.6526 -0.3726
  754TIP3    H123677   6.544   2.851  13.583  2.1009  0.6858  1.4829
  754TIP3    H223678   6.683   2.794  13.562  2.5779  2.8723 -1.6883
  755TIP3   OH223679   6.744   1.411   2.774 -0.3859  0.2445 -0.0066
  755TIP3    H123680   6.656   1.446   2.785  0.1626  1.1852  1.5141
  755TIP3    H223681   6.778   1.456   2.696 -1.7876 -1.2908 -1.5457
  756TIP3   OH223682   3.601   0.961  11.280 -0.6495  0.3849  0.3037
  756TIP3    H123683   3.591   1.052  11.251  0.1555  0.5564  0.5456
  756TIP3    H223684   3.569   0.962  11.371  0.6155  0.7190  0.7523
  757TIP3   OH223685   2.843   4.509  11.862 -0.0446  0.0441  0.5562
  757TIP3    H123686   2.754   4.477  11.877 -0.3436  0.7376  0.2976
  757TIP3    H223687   2.899   4.448  11.910 -0.4721 -1.7703 -1.2431
  758TIP3   OH223688   6.386   4.409   5.654 -0.5768 -0.2503 -0.0885
  758TIP3    H123689   6.434   4.363   5.722 -0.2622  0.0632 -0.0968
  758TIP3    H223690   6.453   4.457   5.605 -1.0141  1.0382  0.5604
  759TIP3   OH223691   0.860   0.279   5.276  0.6885  0.4955 -0.4355
  759TIP3    H123692   0.913   0.253   5.201  1.0676  0.1424 -0.0460
  759TIP3    H223693   0.898   0.361   5.305  1.0402  0.2272 -0.1376
  760TIP3   OH223694   5.937   5.260  14.450 -0.1726  0.7206  0.0495
  760TIP3    H123695   5.891   5.314  14.385  0.3059  0.9770 -0.0797
  760TIP3    H223696   6.019   5.307  14.466 -1.5374  2.1778  3.0050
  761TIP3   OH223697   3.493   4.981   3.375 -0.2616  0.6171 -0.9675
  761TIP3    H123698   3.464   4.982   3.284  1.4802 -0.1632 -1.5329
  761TIP3    H223699   3.581   5.018   3.373 -0.3378  0.9168  0.4603
  762TIP3   OH223700   5.237   2.017   3.430  0.0222 -0.4509 -0.1694
  762TIP3    H123701   5.146   2.046   3.431  0.1647 -0.0293  0.9592
  762TIP3    H223702   5.260   2.014   3.337 -0.7082  0.8123 -0.4081
  763TIP3   OH223703   0.434   4.902  15.854  0.1269 -0.5322 -0.3442
  763TIP3    H123704   0.422   4.822  15.803  0.8028 -1.5989  1.1281
  763TIP3    H223705   0.468   4.872  15.938  0.7895  1.3452  0.0853
  764TIP3   OH223706   1.113   5.371  16.672 -0.0445 -0.2392  0.0858
  764TIP3    H123707   1.088   5.425  16.747 -0.9477  2.1310 -1.8385
  764TIP3    H223708   1.208   5.383  16.664  0.0260 -0.3603  0.7426
  765TIP3   OH223709   1.153   2.556  14.868 -0.6156  0.1214 -0.0018
  765TIP3    H123710   1.223   2.498  14.838 -0.1393  0.2207  0.9025
  765TIP3    H223711   1.075   2.525  14.822 -0.2731 -0.9412  0.1150
  766TIP3   OH223712   6.572   2.262   5.209 -0.3365 -0.5568 -0.1303
  766TIP3    H123713   6.667   2.255   5.214 -0.2298  0.6678 -0.1049
  766TIP3    H223714   6.555   2.357   5.209 -1.4813 -0.7436 -1.3681
  767TIP3   OH223715   1.320   3.540  15.355  0.0817 -0.5855  0.1483
  767TIP3    H123716   1.326   3.444  15.359 -0.1201 -0.5606  1.2106
  767TIP3    H223717   1.263   3.563  15.428  1.1274  0.4358  0.6582
  768TIP3   OH223718   2.366   4.799   2.279  0.1966  0.2309 -0.0017
  768TIP3    H123719   2.366   4.761   2.191 -2.4151  0.4644 -0.1490
  768TIP3    H223720   2.277   4.784   2.311  0.7472  1.3003  2.1049
  769TIP3   OH223721   4.547   1.891  15.003 -0.1966  0.3860 -0.1984
  769TIP3    H123722   4.561   1.981  14.975 -0.1233  0.4696  0.1009
  769TIP3    H223723   4.459   1.869  14.974  0.0136  0.3500 -0.8110
  770TIP3   OH223724   2.590   6.183   4.059  0.3155 -0.0219 -0.5523
  770TIP3    H123725   2.507   6.146   4.030  0.5850 -1.0562 -0.0151
  770TIP3    H223726   2.639   6.199   3.978  0.4417 -1.4311 -0.7680
  771TIP3   OH223727   3.902   6.470   3.624  0.4229 -0.8508 -0.3438
  771TIP3    H123728   3.867   6.460   3.713  0.6493 -0.1595 -0.1728
  771TIP3    H223729   3.837   6.524   3.578  0.7085 -0.5052 -0.3489
  772TIP3   OH223730   3.106   3.822   0.565 -0.1244 -0.0470 -0.4723
  772TIP3    H123731   3.095   3.785   0.653  0.8823  1.0865  0.1479
  772TIP3    H223732   3.167   3.762   0.522 -0.6858 -0.6543 -0.4163
  773TIP3   OH223733   0.349   3.153   4.084  0.9357 -0.5710 -0.4857
  773TIP3    H123734   0.291   3.210   4.035  0.3037 -1.4095 -0.7289
  773TIP3    H223735   0.307   3.067   4.081  1.6186 -0.9450  0.2942
  774TIP3   OH223736   4.631   0.066  14.538 -0.3100  0.0779  0.2912
  774TIP3    H123737   4.725   0.054  14.530 -0.4250 -1.0995  0.6467
  774TIP3    H223738   4.599   0.067  14.447  0.2298  2.1753  0.0999
  775TIP3   OH223739   0.736   2.112  11.286  0.0937 -0.3308 -0.1947
  775TIP3    H123740   0.771   2.195  11.317 -0.5148 -0.2259  0.2128
  775TIP3    H223741   0.676   2.084  11.355  0.3390 -1.1350 -0.3057
  776TIP3   OH223742   4.699   6.663   0.346  0.1507 -0.3504  0.3808
  776TIP3    H123743   4.612   6.659   0.307  0.6059  0.1443 -0.7060
  776TIP3    H223744   4.689   6.621   0.432 -1.3132  0.3307  0.5577
  777TIP3   OH223745   6.030   0.734  14.959 -0.1571  0.2866 -0.4398
  777TIP3    H123746   5.954   0.681  14.984  0.2235  0.9254  2.1909
  777TIP3    H223747   6.104   0.673  14.964 -0.1434  0.2937 -0.5446
  778TIP3   OH223748   4.217   5.695  15.217 -0.2340  0.0517 -0.3937
  778TIP3    H123749   4.209   5.697  15.312  0.9446 -0.4173 -0.2842
  778TIP3    H223750   4.309   5.714  15.200 -0.6771  1.3163 -1.4935
  779TIP3   OH223751   2.904   4.628  11.587 -0.1035 -0.1060  0.1441
  779TIP3    H123752   2.862   4.607  11.670 -1.0732 -0.1286 -0.3384
  779TIP3    H223753   2.834   4.616  11.522  0.5755  0.1601 -0.6361
  780TIP3   OH223754   0.094   1.466  12.134  0.3193  0.0560  0.0388
  780TIP3    H123755   0.187   1.443  12.128  0.0144 -1.9224  2.1749
  780TIP3    H223756   0.085   1.504  12.221 -1.0062 -0.3655  0.0815
  781TIP3   OH223757   2.344   4.698  15.835  0.0534 -0.3420 -0.1771
  781TIP3    H123758   2.285   4.631  15.800 -1.2313  0.2978  0.7294
  781TIP3    H223759   2.336   4.772  15.775  0.6724 -0.6081 -0.5917
  782TIP3   OH223760   2.086   4.832   2.671 -0.1239  0.4930  0.1675
  782TIP3    H123761   2.111   4.852   2.761 -0.4795 -0.3650  0.4611
  782TIP3    H223762   2.010   4.774   2.680  1.0323 -1.1942 -0.6672
  783TIP3   OH223763   6.076   1.989  12.620  0.1408  0.0735  0.1772
  783TIP3    H123764   6.172   1.983  12.623 -0.0142 -2.9337  0.1435
  783TIP3    H223765   6.052   2.021  12.707  1.1482  0.4656  0.3202
  784TIP3   OH223766   2.395   1.825   4.867  0.6741  0.0232  0.1948
  784TIP3    H123767   2.435   1.784   4.790 -0.4720  2.1858 -1.6403
  784TIP3    H223768   2.339   1.757   4.904 -0.3272 -0.4705 -2.1147
  785TIP3   OH223769   5.745   5.824   2.128 -0.2367 -0.2179 -0.3992
  785TIP3    H123770   5.759   5.763   2.200  2.0204  0.2262 -0.4423
  785TIP3    H223771   5.660   5.798   2.091 -0.3746 -1.8488  1.0064
  786TIP3   OH223772   5.210   4.901  14.255  0.3984 -0.0981 -0.1631
  786TIP3    H123773   5.287   4.900  14.198  0.7767 -1.2152  0.3579
  786TIP3    H223774   5.164   4.819  14.235  1.3561 -1.2764  2.2238
  787TIP3   OH223775   3.798   5.492  10.091 -0.5605 -0.1689  0.2526
  787TIP3    H123776   3.870   5.440  10.127  0.5615  2.0960  1.3714
  787TIP3    H223777   3.724   5.431  10.089  1.0752 -2.2023  0.1833
  788TIP3   OH223778   4.772   4.972  14.149 -0.6016 -0.1681 -0.0350
  788TIP3    H123779   4.850   4.993  14.098 -0.3479 -2.3864 -0.6093
  788TIP3    H223780   4.708   5.039  14.124  0.9490  1.4105  0.1220
  789TIP3   OH223781   3.759   6.652   0.277  0.6366  0.1598  0.4233
  789TIP3    H123782   3.715   6.737   0.284 -0.5433 -0.5592  1.9181
  789TIP3    H223783   3.837   6.670   0.224 -1.6502  1.3742 -2.6673
  790TIP3   OH223784   0.787   2.184  16.270 -0.5114  0.1601 -0.0183
  790TIP3    H123785   0.757   2.254  16.213 -0.2195 -0.6675 -1.1909
  790TIP3    H223786   0.707   2.146  16.306 -0.6551  1.5161  1.1615
  791TIP3   OH223787   4.766   5.974  14.270  0.8008 -0.5076 -0.0534
  791TIP3    H123788   4.691   6.034  14.266  0.2099 -1.1701  1.0475
  791TIP3    H223789   4.771   5.936  14.182 -0.8409 -1.2911  0.1799
  792TIP3   OH223790   4.561   0.236  12.899 -0.3917  0.0592  0.1837
  792TIP3    H123791   4.543   0.201  12.987 -0.1731  0.5860  0.4367
  792TIP3    H223792   4.598   0.161  12.851  3.2690  0.7588  1.7222
  793TIP3   OH223793   1.349   4.570  15.522  0.1381  0.2277  0.4103
  793TIP3    H123794   1.359   4.665  15.530 -2.9113  0.3472  3.5586
  793TIP3    H223795   1.415   4.534  15.582  0.1981  0.3714  0.4315
  794TIP3   OH223796   5.489   2.823   1.109  0.4192  0.3213 -0.6013
  794TIP3    H123797   5.402   2.811   1.148  0.1778 -0.7097 -1.4473
  794TIP3    H223798   5.528   2.894   1.160 -0.0886 -0.6522  1.1925
  795TIP3   OH223799   5.115   5.460   4.556 -0.2546 -0.1065 -0.1418
  795TIP3    H123800   5.174   5.529   4.524  2.3659 -2.3979 -0.4130
  795TIP3    H223801   5.073   5.425   4.478  0.9965 -1.0941 -0.3850
  796TIP3   OH223802   3.535   2.989  13.497 -0.1841  0.8980  0.4400
  796TIP3    H123803   3.555   2.896  13.483 -1.2262  0.9689 -1.6305
  796TIP3    H223804   3.445   2.989  13.529 -0.2686  1.2185  0.1994
  797TIP3   OH223805   0.488   2.893   3.931 -0.3679  0.3392 -0.1396
  797TIP3    H123806   0.582   2.906   3.919 -0.0175  1.2436  3.2286
  797TIP3    H223807   0.477   2.882   4.025 -3.3776 -2.1557 -0.6910
  798TIP3   OH223808   5.982   4.777  12.364  0.0078 -0.5743  0.0439
  798TIP3    H123809   5.972   4.714  12.292 -1.0707  0.2951 -0.5898
  798TIP3    H223810   6.002   4.860  12.321  1.5392 -0.5019  0.8858
  799TIP3   OH223811   3.599   5.085   1.763  0.4268  0.3119  0.0054
  799TIP3    H123812   3.527   5.086   1.827  1.5891  0.5672  1.3222
  799TIP3    H223813   3.601   4.994   1.732 -1.4246  0.6471 -1.1536
  800TIP3   OH223814   3.532   2.287   4.686 -0.5974  0.9426 -0.1408
  800TIP3    H123815   3.612   2.262   4.733 -1.8070  0.3188  1.6023
  800TIP3    H223816   3.514   2.377   4.715  0.8242  2.0182 -2.4301
  801TIP3   OH223817   1.243   5.099  15.179  0.3638 -0.4173 -0.2010
  801TIP3    H123818   1.227   5.168  15.115  0.9176  1.0675  1.2288
  801TIP3    H223819   1.328   5.122  15.218 -0.9847 -0.0489  2.6100
  802TIP3   OH223820   4.110   0.192   0.192 -0.3401 -0.4540  0.2680
  802TIP3    H123821   4.122   0.098   0.178 -1.6814 -0.6311  0.2876
  802TIP3    H223822   4.095   0.201   0.286  2.8216  0.1270  0.7887
  803TIP3   OH223823   2.436   6.539  10.904  0.2425  0.2158  0.4628
  803TIP3    H123824   2.511   6.552  10.962  1.3512  1.0314 -1.1135
  803TIP3    H223825   2.475   6.505  10.823 -1.2947 -1.0365  0.2405
  804TIP3   OH223826   0.747   4.041  15.035  0.4258 -0.0111 -0.3101
  804TIP3    H123827   0.763   4.100  15.109  0.8135 -0.1863 -0.2558
  804TIP3    H223828   0.827   3.989  15.027 -0.4928 -1.6078  0.6235
  805TIP3   OH223829   1.187   6.407  12.019  0.4277  0.4517 -0.0771
  805TIP3    H123830   1.250   6.345  12.054 -1.2046  0.0214  2.2082
  805TIP3    H223831   1.167   6.375  11.931  1.5730 -0.7406  0.0926
  806TIP3   OH223832   2.324   0.063  16.611 -0.5580  0.5824  0.4398
  806TIP3    H123833   2.328   0.144  16.561 -2.2095  0.3522 -0.1024
  806TIP3    H223834   2.231   0.047  16.624 -0.4636 -2.7225 -1.9926
  807TIP3   OH223835   2.373   2.655   0.029 -0.5195  0.5078  0.0876
  807TIP3    H123836   2.285   2.626   0.055 -0.6168  0.2369 -0.5392
  807TIP3    H223837   2.418   2.574   0.004  0.2531  0.5134  1.4122
  808TIP3   OH223838   4.712   1.407   1.057  0.2914  0.4127  0.1284
  808TIP3    H123839   4.637   1.464   1.078 -0.1293 -0.1712  0.2202
  808TIP3    H223840   4.787   1.452   1.095  0.1282  1.4895 -0.7882
  809TIP3   OH223841   6.436   2.541  16.599  0.6498  0.1970  0.1344
  809TIP3    H123842   6.466   2.499  16.680 -1.0195 -0.9758  0.1667
  809TIP3    H223843   6.343   2.518  16.593  1.2354 -1.5506 -3.2654
  810TIP3   OH223844   4.997   2.532   4.831  0.7518 -0.2273 -0.1271
  810TIP3    H123845   5.028   2.519   4.741  2.1124 -1.9390  0.5576
  810TIP3    H223846   5.033   2.617   4.857 -0.1293  0.5352 -1.3943
  811TIP3   OH223847   4.628   4.396   3.360  0.1586  0.7566  0.0695
  811TIP3    H123848   4.533   4.400   3.350  0.1457 -1.4517 -1.1604
  811TIP3    H223849   4.646   4.444   3.440 -2.0443  0.9291  0.4932
  812TIP3   OH223850   3.853   3.327  13.567  0.0419  0.2200  0.0284
  812TIP3    H123851   3.772   3.366  13.601  0.3656  1.4833 -0.6407
  812TIP3    H223852   3.846   3.234  13.590 -2.6839 -0.1633 -2.0355
  813TIP3   OH223853   0.105   1.669  11.888  0.0976 -0.0838  0.1109
  813TIP3    H123854   0.120   1.603  11.820  1.1921 -0.9105  1.1342
  813TIP3    H223855   0.027   1.639  11.934  0.2582 -0.3587  0.2044
  814TIP3   OH223856   0.854   3.928  15.607 -0.1039 -0.1557 -0.2120
  814TIP3    H123857   0.909   3.877  15.667 -1.7673 -1.8663 -0.0849
  814TIP3    H223858   0.827   4.004  15.657  0.9074 -0.0733  0.2212
  815TIP3   OH223859   2.499   1.796   2.924 -0.2838 -0.0097 -0.6716
  815TIP3    H123860   2.564   1.779   2.857 -1.7312 -0.0544 -2.1001
  815TIP3    H223861   2.475   1.888   2.911 -1.0981 -0.2219 -0.7068
  816TIP3   OH223862   3.366   5.204  14.606 -0.0986  0.0859  0.4300
  816TIP3    H123863   3.274   5.184  14.621 -0.6001  2.0843  0.2159
  816TIP3    H223864   3.380   5.184  14.514 -0.5547  0.6238  0.2418
  817TIP3   OH223865   4.451   6.043  14.429  0.2914  1.0244 -0.0077
  817TIP3    H123866   4.516   6.095  14.381  0.3409  1.7544  0.8358
  817TIP3    H223867   4.496   6.017  14.510  0.9544 -2.0515 -1.2974
  818TIP3   OH223868   6.728   3.692   0.702  0.0482  0.2221  0.4461
  818TIP3    H123869   6.808   3.649   0.731  0.0139  1.5717  2.5788
  818TIP3    H223870   6.659   3.629   0.721  0.4528 -0.4430 -0.2610
  819TIP3   OH223871   3.624   4.161   3.179 -0.0521 -0.7245 -0.7089
  819TIP3    H123872   3.712   4.191   3.157 -0.7456  2.0716  0.0863
  819TIP3    H223873   3.625   4.152   3.275 -0.7717 -0.2369 -0.6524
  820TIP3   OH223874   4.014   5.808  13.111 -0.4548 -0.6983 -0.5557
  820TIP3    H123875   3.941   5.749  13.094 -1.1468 -0.0767  0.1849
  820TIP3    H223876   3.974   5.883  13.155  0.5515 -0.1064 -0.6371
  821TIP3   OH223877   5.535   0.342  11.782 -0.0184  0.1481  0.0418
  821TIP3    H123878   5.608   0.355  11.841  0.6495 -2.6378 -0.0889
  821TIP3    H223879   5.571   0.292  11.708 -1.8839 -0.7563 -0.3127
  822TIP3   OH223880   2.805   4.113   0.360 -0.7978 -1.1712 -0.3736
  822TIP3    H123881   2.871   4.061   0.404  1.3619  0.7127 -1.2602
  822TIP3    H223882   2.753   4.151   0.430  0.9676 -0.2834  0.4685
  823TIP3   OH223883   5.671   4.551  12.517 -0.3617  0.1712  0.3964
  823TIP3    H123884   5.680   4.552  12.422 -1.5707  0.0157  0.2727
  823TIP3    H223885   5.607   4.619  12.536 -0.5523 -0.1811  1.0502
  824TIP3   OH223886   1.688   5.137   0.161  0.5521  0.1735 -0.1311
  824TIP3    H123887   1.734   5.117   0.242  0.0502  0.9752  0.3641
  824TIP3    H223888   1.605   5.090   0.167  2.1468 -3.0911 -2.0087
  825TIP3   OH223889   4.559   1.808   4.797 -0.2134  0.4162  0.0559
  825TIP3    H123890   4.590   1.880   4.852 -0.3610  0.0263  0.6512
  825TIP3    H223891   4.553   1.846   4.709 -4.0625  2.2893  0.9855
  826TIP3   OH223892   0.710   5.487   3.963  0.2273 -0.4236  0.6643
  826TIP3    H123893   0.665   5.417   4.011  0.9870 -1.3099  0.1061
  826TIP3    H223894   0.736   5.446   3.881  2.7217 -0.1641  1.2930
  827TIP3   OH223895   3.135   6.646   1.306 -0.8171  0.9688  0.1151
  827TIP3    H123896   3.113   6.565   1.260 -0.4459  1.8756 -1.7005
  827TIP3    H223897   3.130   6.714   1.239 -0.8271  2.4161  1.5492
  828TIP3   OH223898   1.970   2.782  11.261 -0.4868  0.1594 -0.1758
  828TIP3    H123899   1.899   2.743  11.312 -1.8208  2.0653 -0.5432
  828TIP3    H223900   1.930   2.854  11.214  1.5891  0.9394 -0.8150
  829TIP3   OH223901   2.933   2.189  16.477 -0.7348 -0.4934  0.0220
  829TIP3    H123902   2.919   2.119  16.541 -2.2278 -2.0763 -1.9727
  829TIP3    H223903   3.028   2.195  16.468 -0.5266 -0.5357  2.0627
  830TIP3   OH223904   1.470   0.035   1.484  0.1227 -0.2634  0.1525
  830TIP3    H123905   1.493   0.118   1.443  0.7305 -2.2688 -3.7599
  830TIP3    H223906   1.552   0.003   1.521  0.1247  0.3039  0.6497
  831TIP3   OH223907   5.644   0.583  14.372 -0.1527  0.1863  0.2883
  831TIP3    H123908   5.554   0.559  14.350 -0.0456  0.0111  0.0287
  831TIP3    H223909   5.638   0.670  14.409 -0.2677  0.8228 -1.1743
  832TIP3   OH223910   1.586   1.728   3.288  0.1103 -0.4568 -0.1863
  832TIP3    H123911   1.618   1.644   3.255  0.1137 -0.3477 -0.4595
  832TIP3    H223912   1.517   1.705   3.349  0.3677 -0.6737  0.0212
  833TIP3   OH223913   6.605   2.999  12.638  0.2278 -0.7631 -0.2702
  833TIP3    H123914   6.658   3.049  12.576  0.0419 -0.5552 -0.2603
  833TIP3    H223915   6.516   3.032  12.627  0.2837 -0.3563  0.4863
  834TIP3   OH223916   2.700   4.566   5.990 -0.3157 -0.3954  0.7301
  834TIP3    H123917   2.649   4.605   6.062  0.1136  0.2204  0.7064
  834TIP3    H223918   2.791   4.578   6.017 -0.1560 -0.2225  0.1146
  835TIP3   OH223919   0.199   4.745   0.280 -0.3652 -0.0102 -0.3905
  835TIP3    H123920   0.211   4.753   0.186  1.5364  1.2100 -0.0722
  835TIP3    H223921   0.134   4.811   0.302  0.4099  0.8532 -0.6351
  836TIP3   OH223922   0.724   1.703   1.018 -0.7925  0.0153  0.0559
  836TIP3    H123923   0.749   1.728   0.929 -0.6536  0.7890  0.3138
  836TIP3    H223924   0.766   1.618   1.031 -0.5505  0.0476 -0.5041
  837TIP3   OH223925   3.785   1.914   6.054  0.0754  0.2162 -0.6608
  837TIP3    H123926   3.844   1.954   6.118  1.0080  1.2005 -2.1014
  837TIP3    H223927   3.815   1.824   6.047 -0.5129 -0.1144  0.8254
  838TIP3   OH223928   6.544   1.102  14.973  0.4022  0.2554 -0.0811
  838TIP3    H123929   6.566   1.087  15.065 -1.7918 -0.8700  0.2903
  838TIP3    H223930   6.579   1.189  14.954 -1.3640  1.6192  2.5869
  839TIP3   OH223931   3.305   4.895  12.758  0.2122  0.0415 -0.2262
  839TIP3    H123932   3.300   4.890  12.854 -0.2957  1.2355 -0.1863
  839TIP3    H223933   3.380   4.953  12.742 -0.1167  0.3783 -0.5408
  840TIP3   OH223934   5.111   0.409   0.767  0.0567 -0.5292 -0.3005
  840TIP3    H123935   5.133   0.317   0.781 -2.4520 -1.2208 -0.6444
  840TIP3    H223936   5.028   0.407   0.720 -0.6557  1.9144  0.7715
  841TIP3   OH223937   4.151   2.938   1.312 -0.7621  0.4020 -0.3836
  841TIP3    H123938   4.168   2.927   1.405 -2.0597 -1.0116 -0.3065
  841TIP3    H223939   4.184   3.026   1.292  1.1188  0.0455  1.0201
  842TIP3   OH223940   1.526   4.414   5.781 -0.2668  0.1977  0.1577
  842TIP3    H123941   1.613   4.449   5.759 -1.0696  1.8958 -0.4019
  842TIP3    H223942   1.545   4.335   5.832  1.6080 -0.0780 -0.8952
  843TIP3   OH223943   5.847   1.552  12.541  0.0375  0.1781  0.4590
  843TIP3    H123944   5.940   1.577  12.547  0.4209 -1.0232 -0.2181
  843TIP3    H223945   5.804   1.604  12.609  1.4094 -0.1834  1.6418
  844TIP3   OH223946   0.835   4.225   0.787  0.0831 -0.0485  0.2087
  844TIP3    H123947   0.903   4.276   0.832  2.1402 -1.4350 -1.2371
  844TIP3    H223948   0.850   4.241   0.694 -1.3479 -0.6730 -0.1452
  845TIP3   OH223949   1.054   5.387  13.284  0.7222 -0.1480 -0.1932
  845TIP3    H123950   1.115   5.338  13.228  0.8704 -1.0461  0.7457
  845TIP3    H223951   1.108   5.455  13.324  0.2621  1.6271 -2.4638
  846TIP3   OH223952   4.643   4.306   2.047 -0.2839 -0.0045 -0.0662
  846TIP3    H123953   4.565   4.252   2.064 -0.8463 -0.0182 -2.5085
  846TIP3    H223954   4.706   4.245   2.008  0.7048  0.1696  1.2449
  847TIP3   OH223955   4.428   6.255  16.858  0.1269 -0.3282  0.6317
  847TIP3    H123956   4.348   6.298  16.830  0.6862  0.5640  0.3711
  847TIP3    H223957   4.461   6.211  16.780  1.2422  1.4552  0.0802
  848TIP3   OH223958   4.052   2.495  12.629  0.0552 -0.5603  0.0426
  848TIP3    H123959   4.097   2.573  12.662  0.1734 -0.8426  0.5471
  848TIP3    H223960   3.961   2.523  12.619  0.3293 -0.0008 -0.9426
  849TIP3   OH223961   6.226   5.016   5.231  0.0188  0.4681 -0.3985
  849TIP3    H123962   6.189   4.927   5.226  0.2370  0.4085 -1.0132
  849TIP3    H223963   6.187   5.053   5.310 -0.7570  0.1285 -0.6063
  850TIP3   OH223964   5.802   0.231  14.694  0.4932  0.9811  0.2354
  850TIP3    H123965   5.811   0.160  14.631  0.1794  1.1171  0.0326
  850TIP3    H223966   5.891   0.258  14.713  0.5863  0.9833 -0.2019
  851TIP3   OH223967   1.181   0.758   2.631 -0.5600  0.2299  0.5609
  851TIP3    H123968   1.159   0.841   2.675 -3.2970  0.1948 -0.6803
  851TIP3    H223969   1.160   0.690   2.696  0.7984  0.4219  1.2324
  852TIP3   OH223970   5.081   4.449   3.412 -0.2220 -0.1023  0.0055
  852TIP3    H123971   5.056   4.408   3.330 -1.6602 -0.5183  0.6436
  852TIP3    H223972   5.093   4.376   3.473 -0.3410  0.2658  0.4776
  853TIP3   OH223973   2.612   5.957   5.643 -0.0480 -0.0937 -0.2257
  853TIP3    H123974   2.537   5.968   5.701 -0.4410 -0.8147 -0.5954
  853TIP3    H223975   2.653   5.875   5.672  0.5433  0.2442 -0.0865
  854TIP3   OH223976   0.251   3.900  12.500 -0.0156  0.3424  0.2481
  854TIP3    H123977   0.175   3.900  12.559  0.0617  0.3444  0.3470
  854TIP3    H223978   0.317   3.848  12.546 -0.1627 -0.1559 -0.0991
  855TIP3   OH223979   5.751   5.606   6.012  0.0398 -0.0132 -0.4550
  855TIP3    H123980   5.777   5.684   5.962 -0.2112  1.4897  1.6656
  855TIP3    H223981   5.772   5.533   5.955  0.9040  1.5784 -2.2523
  856TIP3   OH223982   3.801   1.152   2.114  0.5134 -0.5861  0.2537
  856TIP3    H123983   3.757   1.165   2.030  0.1394 -0.3545  0.4845
  856TIP3    H223984   3.775   1.227   2.167  0.8374 -0.6740  0.5405
  857TIP3   OH223985   0.330   2.044   5.183  0.7309 -0.1013 -0.3010
  857TIP3    H123986   0.260   2.038   5.248 -0.3693  0.6628 -1.3760
  857TIP3    H223987   0.318   1.965   5.129 -0.1627  0.7054 -1.3021
  858TIP3   OH223988   4.114   4.803  16.107  0.1215 -0.7746 -0.0099
  858TIP3    H123989   4.195   4.838  16.143 -0.1607 -0.7296  0.5752
  858TIP3    H223990   4.087   4.736  16.169  1.3873 -3.0298 -1.8073
  859TIP3   OH223991   6.786   3.713   2.005 -0.0190 -0.6767  0.1634
  859TIP3    H123992   6.853   3.781   2.013  0.5403 -1.1626 -0.3612
  859TIP3    H223993   6.830   3.633   2.035 -0.9573 -0.6385  1.6805
  860TIP3   OH223994   0.085   2.916   3.330 -0.0238  0.3350 -0.3038
  860TIP3    H123995   0.082   2.848   3.263  0.4800  0.1592 -0.1469
  860TIP3    H223996  -0.006   2.924   3.359  0.0241 -0.7917  0.1992
  861TIP3   OH223997   4.302   2.110  13.570 -0.2369  0.2815  0.3592
  861TIP3    H123998   4.232   2.079  13.512 -0.0713 -2.1645  1.3651
  861TIP3    H223999   4.375   2.129  13.512 -0.8488  0.1653 -0.4577
  862TIP3   OH224000   5.197   5.459   1.543  0.5177  0.0362  0.5199
  862TIP3    H124001   5.208   5.530   1.480  0.9103 -0.5898 -0.1215
  862TIP3    H224002   5.248   5.387   1.507  1.2968 -0.1156  1.8984
  863TIP3   OH224003   1.747   5.800  10.318 -0.6399 -0.1872 -0.0125
  863TIP3    H124004   1.815   5.736  10.340 -0.2418 -0.4328 -1.8646
  863TIP3    H224005   1.750   5.864  10.390 -1.0977 -2.2509  1.9003
  864TIP3   OH224006   0.549   0.581  10.966 -0.6876  0.1128 -0.1829
  864TIP3    H124007   0.594   0.525  10.903  0.5157 -1.1004  1.6870
  864TIP3    H224008   0.598   0.663  10.965 -0.6582  0.0911 -0.7833
  865TIP3   OH224009   5.053   2.843   5.741  0.1433  0.2930  0.1001
  865TIP3    H124010   5.148   2.854   5.739 -0.1068  2.7037  0.0825
  865TIP3    H224011   5.037   2.763   5.691  2.1910 -0.3864  0.4991
  866TIP3   OH224012   4.974   4.422  12.111 -0.5097 -0.1331 -0.3143
  866TIP3    H124013   4.882   4.424  12.086 -0.8457 -1.3804  0.7529
  866TIP3    H224014   4.974   4.437  12.205  0.2716 -1.3387 -0.1079
  867TIP3   OH224015   3.289   0.675  10.980 -0.1108  0.2974 -0.1145
  867TIP3    H124016   3.292   0.695  11.074 -2.2438 -0.5110  0.1613
  867TIP3    H224017   3.282   0.761  10.938  2.5650  0.7789  0.3354
  868TIP3   OH224018   4.963   5.791  13.578 -0.4122 -0.0449  0.1410
  868TIP3    H124019   4.875   5.830  13.576 -0.4675 -0.1566  0.4676
  868TIP3    H224020   5.021   5.864  13.599 -0.5226 -0.1521  0.8135
  869TIP3   OH224021   0.464   4.408   5.748  0.3244 -0.1371  0.3036
  869TIP3    H124022   0.426   4.322   5.768  0.2447  0.3310  2.2848
  869TIP3    H224023   0.421   4.468   5.810  0.8228  1.2264 -0.6544
  870TIP3   OH224024   1.713   5.974  14.271  0.4262  1.0219  0.8837
  870TIP3    H124025   1.660   5.916  14.217  1.9284 -0.7033  1.2303
  870TIP3    H224026   1.676   5.965  14.359 -0.3181  1.7869  0.6557
  871TIP3   OH224027   1.919   4.020   2.430 -0.0211  0.2172  0.4800
  871TIP3    H124028   1.852   3.951   2.426 -0.0347  0.2559 -0.1373
  871TIP3    H224029   1.886   4.083   2.493  0.8552 -1.2399  2.4314
  872TIP3   OH224030   5.447   3.671   0.355 -0.7787 -0.3089 -0.8794
  872TIP3    H124031   5.519   3.694   0.297 -0.4810  1.7708  0.2361
  872TIP3    H224032   5.483   3.682   0.443 -1.9087 -1.0959 -0.3021
  873TIP3   OH224033   2.967   2.040   0.123 -0.6759  0.3952 -0.9291
  873TIP3    H124034   2.980   2.030   0.029 -1.7888  0.4926 -1.0933
  873TIP3    H224035   3.054   2.064   0.156  0.2031 -1.6528 -1.6453
  874TIP3   OH224036   0.414   6.519  15.735 -0.2381 -0.6265 -0.3746
  874TIP3    H124037   0.461   6.537  15.654  1.9776 -1.6571  0.6418
  874TIP3    H224038   0.453   6.438  15.768 -0.8783 -0.0418  1.8887
  875TIP3   OH224039   2.507   3.031   2.556  0.1585 -0.1070 -0.4269
  875TIP3    H124040   2.422   3.073   2.542  0.4995  0.2831 -1.4003
  875TIP3    H224041   2.554   3.045   2.473  1.7396  1.0330  0.6419
  876TIP3   OH224042   2.371   0.928  14.190  0.1771 -0.4801  0.3033
  876TIP3    H124043   2.346   0.861  14.253 -1.3853 -0.6223 -0.4323
  876TIP3    H224044   2.291   0.945  14.141  1.2178  0.0712 -1.2313
  877TIP3   OH224045   4.917   3.617   2.445 -0.3125 -0.4523  0.6282
  877TIP3    H124046   4.958   3.637   2.529  0.7273 -1.1125  0.2892
  877TIP3    H224047   4.991   3.602   2.385 -1.0385  0.2966 -0.4738
  878TIP3   OH224048   3.026   2.478   6.511 -0.1928 -0.0284 -0.1891
  878TIP3    H124049   2.958   2.533   6.472 -1.0696  1.0493  2.7721
  878TIP3    H224050   2.982   2.396   6.532  0.0731 -0.2851 -0.6066
  879TIP3   OH224051   0.321   2.393  15.872  0.2495 -0.5548  0.0226
  879TIP3    H124052   0.257   2.465  15.870  0.2146 -0.6048 -0.6435
  879TIP3    H224053   0.331   2.367  15.780  0.0110 -1.6251  0.2948
  880TIP3   OH224054   0.541   5.286  14.007  0.0678  0.5918 -0.3881
  880TIP3    H124055   0.542   5.245  13.921  0.8997 -1.0280  0.3735
  880TIP3    H224056   0.468   5.348  14.003 -0.0302  0.3821 -2.1809
  881TIP3   OH224057   6.051   5.479   5.814  0.4097  0.5494 -0.7906
  881TIP3    H124058   6.071   5.487   5.721  0.7157 -1.5170 -0.9154
  881TIP3    H224059   5.957   5.459   5.816  0.3561  0.8114 -0.6357
  882TIP3   OH224060   4.105   6.039   0.321  0.0317 -0.2751 -0.1683
  882TIP3    H124061   4.171   6.008   0.259 -0.3386 -0.7784 -0.3208
  882TIP3    H224062   4.057   5.959   0.346  0.1788 -0.0703  0.7572
  883TIP3   OH224063   0.560   5.448  12.783 -0.5338 -0.3164  0.1085
  883TIP3    H124064   0.637   5.442  12.839  0.1447 -1.0193 -0.8849
  883TIP3    H224065   0.577   5.524  12.726  0.4578 -1.8122 -1.6302
  884TIP3   OH224066   4.873   6.124  13.642 -0.0926  0.0499 -0.4687
  884TIP3    H124067   4.779   6.128  13.626  0.0331 -0.2349 -1.3202
  884TIP3    H224068   4.910   6.183  13.576  0.2183  1.3054  0.8065
  885TIP3   OH224069   1.751   4.109   0.341 -0.2402  0.2323 -0.2426
  885TIP3    H124070   1.783   4.140   0.426 -0.7803 -1.4966  0.6225
  885TIP3    H224071   1.723   4.188   0.295  0.9601  1.2898  0.8006
  886TIP3   OH224072   4.994   2.732   0.657  0.2693  0.9692 -0.6267
  886TIP3    H124073   4.972   2.735   0.564 -0.3434  1.3920 -0.4686
  886TIP3    H224074   4.985   2.639   0.680  2.7810  0.4550 -1.5421
  887TIP3   OH224075   0.171   5.420   2.252 -0.7185 -0.3650  0.1857
  887TIP3    H124076   0.166   5.333   2.291 -3.6926 -0.8086 -1.0460
  887TIP3    H224077   0.114   5.474   2.307  0.2915  0.5670  0.3288
  888TIP3   OH224078   0.284   3.111   1.127 -0.2924 -0.1622 -0.4210
  888TIP3    H124079   0.359   3.135   1.074 -0.2761  1.9501  0.5208
  888TIP3    H224080   0.226   3.187   1.125 -2.0025 -1.4158 -0.4061
  889TIP3   OH224081   2.431   3.859  13.129 -0.0234  0.0027  0.2374
  889TIP3    H124082   2.441   3.850  13.223 -0.2657  1.7360  0.4483
  889TIP3    H224083   2.341   3.889  13.117  0.6572  1.8901 -0.3691
  890TIP3   OH224084   3.427   2.285  15.456  0.2598  0.5319  0.5876
  890TIP3    H124085   3.483   2.231  15.400 -1.6514 -0.5349 -0.3597
  890TIP3    H224086   3.415   2.232  15.535 -0.0984  0.3885  0.4373
  891TIP3   OH224087   3.827   6.533  13.894  0.2361  0.5310 -0.3630
  891TIP3    H124088   3.773   6.583  13.833  1.8222  0.9304 -1.4750
  891TIP3    H224089   3.794   6.556  13.981 -0.4872  1.7946 -0.9679
  892TIP3   OH224090   1.611   3.488  11.375 -0.5085  0.1981  0.0943
  892TIP3    H124091   1.574   3.417  11.323 -1.2336  1.2548 -0.8530
  892TIP3    H224092   1.627   3.558  11.312 -1.8695  1.6778  1.3720
  893TIP3   OH224093   1.065   1.802   1.315 -0.6791 -0.1639 -0.2271
  893TIP3    H124094   1.126   1.775   1.384 -1.1780  1.4268  0.8708
  893TIP3    H224095   0.990   1.744   1.325  0.9101 -2.6352 -2.0550
  894TIP3   OH224096   1.830   2.800  14.318 -0.3641  0.3564 -0.1060
  894TIP3    H124097   1.865   2.870  14.374 -2.6705  0.6131  1.0700
  894TIP3    H224098   1.870   2.720  14.353 -2.7211  0.3697  2.7590
  895TIP3   OH224099   0.498   2.823  12.188  0.2571  0.1585  0.3160
  895TIP3    H124100   0.452   2.905  12.172 -0.0255 -0.2907 -1.2536
  895TIP3    H224101   0.591   2.848  12.190  0.2377  0.3535 -1.2366
  896TIP3   OH224102   3.817   2.952  12.323 -0.4292 -0.1894  0.2976
  896TIP3    H124103   3.776   3.038  12.334  1.4230  0.5840  1.3331
  896TIP3    H224104   3.841   2.925  12.412  0.9175 -0.8093 -0.2433
  897TIP3   OH224105   5.152   0.284  11.614  0.0133  0.7403 -0.2393
  897TIP3    H124106   5.130   0.223  11.685  1.2082 -0.2978 -0.7580
  897TIP3    H224107   5.093   0.358  11.628  1.4389  1.3617  2.9255
  898TIP3   OH224108   0.497   3.547  14.600  0.2755 -0.8327 -1.0134
  898TIP3    H124109   0.431   3.497  14.647 -0.7139  0.7010 -0.7322
  898TIP3    H224110   0.477   3.533  14.507  1.0548 -2.3138 -0.9672
  899TIP3   OH224111   5.768   1.112   1.545 -0.5647 -0.0050 -0.5340
  899TIP3    H124112   5.697   1.114   1.609  0.6724  0.0683  0.8779
  899TIP3    H224113   5.846   1.090   1.596  1.4645  5.2231 -1.0089
  900TIP3   OH224114   5.571   0.646  11.448 -0.0757  0.7810 -0.0548
  900TIP3    H124115   5.613   0.580  11.393 -1.1046  0.4836 -0.4994
  900TIP3    H224116   5.555   0.719  11.388  0.4451  1.1681  0.2788
  901TIP3   OH224117   4.487   0.331  13.585 -0.1136  0.0726  0.3307
  901TIP3    H124118   4.468   0.425  13.583  0.8179  0.2496 -0.5772
  901TIP3    H224119   4.579   0.325  13.610  0.1486 -0.5349 -0.7214
  902TIP3   OH224120   0.347   1.275  12.596 -0.2381  0.0014  0.2192
  902TIP3    H124121   0.303   1.203  12.552 -1.1806 -0.3122  1.6219
  902TIP3    H224122   0.328   1.262  12.689  0.1929  1.6449  0.5651
  903TIP3   OH224123   3.555   2.139  15.825 -0.5443 -0.1765  0.1730
  903TIP3    H124124   3.467   2.134  15.788 -0.4239 -0.3301 -0.0917
  903TIP3    H224125   3.609   2.174  15.754  0.3686 -3.6427 -0.9429
  904TIP3   OH224126   4.442   5.458  13.361  0.1705 -0.3309  0.2126
  904TIP3    H124127   4.364   5.494  13.402  1.2875  0.3840  1.7574
  904TIP3    H224128   4.422   5.458  13.267 -2.2117 -1.5297  0.6911
  905TIP3   OH224129   4.116   1.081   1.530 -0.0452  0.3755 -0.6353
  905TIP3    H124130   4.103   1.034   1.612  0.8945  0.9391 -0.1637
  905TIP3    H224131   4.038   1.059   1.478  0.1040 -1.2413 -0.2053
  906TIP3   OH224132   4.426   0.887  16.100 -0.2476 -0.2608 -0.6874
  906TIP3    H124133   4.453   0.894  16.192 -0.5129  0.2343 -0.6440
  906TIP3    H224134   4.382   0.802  16.094 -2.0751  0.6038  0.1262
  907TIP3   OH224135   5.151   1.072  11.713  0.4599  0.6569 -0.0653
  907TIP3    H124136   5.138   1.113  11.627  1.1311  1.7732  0.3603
  907TIP3    H224137   5.151   1.145  11.775  1.8996  0.0612  0.6765
  908TIP3   OH224138   2.136   2.164  11.533  0.4961  0.0027 -0.4077
  908TIP3    H124139   2.188   2.221  11.477  0.2198 -0.1470 -0.8214
  908TIP3    H224140   2.166   2.076  11.512  1.8558  0.0612  1.1816
  909TIP3   OH224141   6.657   4.091   5.407  0.2302  0.0670 -0.2350
  909TIP3    H124142   6.628   4.027   5.342  0.2591 -0.4276  0.2305
  909TIP3    H224143   6.598   4.077   5.482 -0.8935  1.7683 -0.7639
  910TIP3   OH224144   1.766   0.001  14.098  0.4360  0.0283  0.2453
  910TIP3    H124145   1.853  -0.027  14.071  1.0334  1.6372  0.4852
  910TIP3    H224146   1.731   0.050  14.023 -0.0509 -0.1484  0.3520
  911TIP3   OH224147   6.571   2.541  13.698  0.2993 -0.4041  0.1427
  911TIP3    H124148   6.520   2.535  13.779 -0.1712 -0.6659 -0.1697
  911TIP3    H224149   6.513   2.505  13.631  0.3097  0.7005 -0.4788
  912TIP3   OH224150   6.130   6.744  12.139 -0.3246  0.3982  0.0217
  912TIP3    H124151   6.201   6.683  12.158 -0.0429  1.0515  1.0768
  912TIP3    H224152   6.103   6.777  12.224 -2.2144 -0.1823 -0.3179
  913TIP3   OH224153   5.895   1.696  15.364  0.1358 -0.0718  0.2646
  913TIP3    H124154   5.833   1.737  15.303 -0.4228 -0.6795  0.4168
  913TIP3    H224155   5.975   1.748  15.355  0.2711 -0.5207 -1.4389
  914TIP3   OH224156   4.248   5.661  12.984  0.0570  0.0997 -0.5218
  914TIP3    H124157   4.227   5.717  13.058 -0.0587 -0.6890  0.0464
  914TIP3    H224158   4.256   5.574  13.021  1.7541 -0.0352 -1.1422
  915TIP3   OH224159   5.962   0.706   1.790  0.2816  0.2053  1.3357
  915TIP3    H124160   5.868   0.726   1.784  0.3807  0.4109  0.4502
  915TIP3    H224161   5.966   0.611   1.795  0.1916 -0.0631 -2.3977
  916TIP3   OH224162   6.145   5.338   1.612  0.1385  0.8637 -0.0034
  916TIP3    H124163   6.136   5.258   1.664 -1.6835  0.7976 -0.4071
  916TIP3    H224164   6.208   5.315   1.544 -0.1847 -0.1540  0.0259
  917TIP3   OH224165   3.928   5.781  17.239  0.3305 -0.3148  0.1340
  917TIP3    H124166   3.911   5.875  17.242  1.8237 -0.0609  2.0630
  917TIP3    H224167   3.843   5.740  17.254 -0.2573  0.7414 -0.2637
  918TIP3   OH224168   2.812   2.608   1.637 -0.4879 -0.4314  0.0422
  918TIP3    H124169   2.893   2.640   1.597 -0.1075  1.7037  2.3816
  918TIP3    H224170   2.841   2.543   1.701 -0.6836 -0.3827  0.1804
  919TIP3   OH224171   5.758   4.513   2.660 -0.1692 -0.2838 -0.1948
  919TIP3    H124172   5.743   4.419   2.653 -2.0617  0.0078 -0.3528
  919TIP3    H224173   5.750   4.532   2.753  1.5879 -0.4681  0.0201
  920TIP3   OH224174   0.933   6.451  13.041  0.4678  0.4301  0.1053
  920TIP3    H124175   1.001   6.509  13.076 -1.8891  1.2928  3.5361
  920TIP3    H224176   0.864   6.511  13.011 -1.5990 -0.4594  2.8448
  921TIP3   OH224177   1.732   0.942  13.871 -0.8909 -0.5164  0.3454
  921TIP3    H124178   1.813   0.985  13.896 -0.2811 -0.2726 -1.9310
  921TIP3    H224179   1.663   0.995  13.910 -0.0888  1.5635 -1.0126
  922TIP3   OH224180   4.210   6.715  16.372 -0.2844 -0.6004 -0.0135
  922TIP3    H124181   4.119   6.744  16.377 -0.5072 -1.2156 -0.5053
  922TIP3    H224182   4.205   6.620  16.365  0.3707 -0.5934 -0.6469
  923TIP3   OH224183   4.038   5.853  16.260 -0.3208  0.0676  0.1998
  923TIP3    H124184   4.122   5.830  16.220  0.4400  1.6480  0.8500
  923TIP3    H224185   4.048   5.831  16.352 -0.6884  0.0741  0.2416
  924TIP3   OH224186   6.050   6.121   3.323  0.7940 -0.0708  0.0770
  924TIP3    H124187   6.119   6.178   3.358 -0.2544  1.5354 -0.4119
  924TIP3    H224188   5.973   6.141   3.376  0.4118 -1.0499 -0.0978
  925TIP3   OH224189   3.058   4.284  10.619  1.0646  0.5510 -0.5067
  925TIP3    H124190   3.072   4.214  10.683 -1.8722  0.0229 -0.3670
  925TIP3    H224191   3.025   4.357  10.671 -1.0513  0.2195 -1.3202
  926TIP3   OH224192   4.309   2.207   3.236 -0.0799 -0.5660  0.5058
  926TIP3    H124193   4.321   2.161   3.319 -0.5551 -0.2317  0.7635
  926TIP3    H224194   4.324   2.141   3.169  1.3139 -0.6106  0.8409
  927TIP3   OH224195   0.473   2.272   3.494 -0.0959  0.4010  0.0276
  927TIP3    H124196   0.504   2.181   3.494  1.3670  0.8727  0.1352
  927TIP3    H224197   0.494   2.304   3.407 -0.4333  0.6907  0.0543
  928TIP3   OH224198   1.862   4.524   5.139  0.7263  0.0795  0.0198
  928TIP3    H124199   1.844   4.618   5.140 -0.6256 -0.1600 -0.5090
  928TIP3    H224200   1.785   4.485   5.181  0.3838 -0.9323 -1.5258
  929TIP3   OH224201   0.779   3.806  17.125 -0.1259  0.4895  0.1487
  929TIP3    H124202   0.822   3.733  17.079 -0.0444  1.6163 -1.6212
  929TIP3    H224203   0.840   3.829  17.195  0.4872 -0.2611 -0.1343
  930TIP3   OH224204   4.174   1.521   1.410 -0.4661 -0.0520 -0.4632
  930TIP3    H124205   4.250   1.466   1.391 -0.8371 -1.1901  1.2872
  930TIP3    H224206   4.102   1.459   1.423 -1.2362  0.9196 -0.0307
  931TIP3   OH224207   1.893   3.862  15.968 -0.6629  0.5647  0.4119
  931TIP3    H124208   1.973   3.822  16.002 -1.3595 -0.7686  0.5162
  931TIP3    H224209   1.912   3.956  15.964  1.3307  0.1326 -0.6981
  932TIP3   OH224210   6.379   2.792   1.963  0.1606  0.1246  0.2714
  932TIP3    H124211   6.411   2.780   2.053  0.6264  0.9907  0.2295
  932TIP3    H224212   6.454   2.829   1.916 -0.5193  0.9748 -0.1416
  933TIP3   OH224213   4.287   4.204  14.470 -0.1154  0.0872  0.0965
  933TIP3    H124214   4.340   4.127  14.449  0.2776 -0.2411  2.1687
  933TIP3    H224215   4.309   4.224  14.561 -1.0280  2.0067 -0.0810
  934TIP3   OH224216   1.003   0.375   5.660 -0.0641 -0.4142 -0.0070
  934TIP3    H124217   1.044   0.335   5.736 -0.9483  1.3767  1.4634
  934TIP3    H224218   1.058   0.450   5.639  0.1849 -0.9090 -1.1556
  935TIP3   OH224219   5.277   1.457  12.993  0.1176  0.0453 -0.1998
  935TIP3    H124220   5.341   1.417  13.051  1.2610  0.9003 -0.8581
  935TIP3    H224221   5.246   1.534  13.041 -1.0058 -0.7893  0.4448
  936TIP3   OH224222   4.999   6.518  12.645 -0.8143  0.4324 -0.0347
  936TIP3    H124223   4.907   6.538  12.631 -0.9667 -1.7396 -2.4748
  936TIP3    H224224   5.045   6.570  12.579 -0.5675 -0.9296 -0.9474
  937TIP3   OH224225   2.460   6.265  12.485 -0.4645  0.0670  0.4228
  937TIP3    H124226   2.445   6.259  12.580 -2.0993 -0.5168  0.1465
  937TIP3    H224227   2.448   6.358  12.465  0.5153  0.3008  0.8718
  938TIP3   OH224228   5.572   6.571  12.618 -0.2472 -0.2663  0.2134
  938TIP3    H124229   5.626   6.631  12.670 -0.6285  0.9758 -0.7786
  938TIP3    H224230   5.530   6.514  12.682 -0.2134  0.8244  1.2274
  939TIP3   OH224231   5.972   5.856  11.534  0.2324 -0.0109 -0.4352
  939TIP3    H124232   5.885   5.870  11.571  1.1403  2.1485  0.9540
  939TIP3    H224233   5.960   5.783  11.472 -2.3839 -0.2283  0.2681
  940TIP3   OH224234   3.380   3.846  12.250 -0.0626 -0.4429  0.6434
  940TIP3    H124235   3.396   3.782  12.181 -0.7371  1.0475 -0.9479
  940TIP3    H224236   3.429   3.924  12.221  0.1958 -0.0169  2.1894
  941TIP3   OH224237   6.512   0.780  16.270  0.2027  0.2634  0.5180
  941TIP3    H124238   6.482   0.843  16.204 -1.2328 -0.5477  0.3719
  941TIP3    H224239   6.496   0.824  16.354  0.8017  0.7684  0.3759
  942TIP3   OH224240   2.245   2.646   6.172 -0.3828  0.4608  0.2460
  942TIP3    H124241   2.335   2.626   6.146 -0.8991  0.4603 -1.5724
  942TIP3    H224242   2.240   2.617   6.263  1.2160 -0.3052  0.1118
  943TIP3   OH224243   2.736   6.267   4.266  0.6311  0.4186  0.7787
  943TIP3    H124244   2.829   6.273   4.242  0.3151  2.6809  0.0068
  943TIP3    H224245   2.690   6.269   4.182 -0.2109  1.8400  1.2659
  944TIP3   OH224246   5.629   0.955   0.827  0.3043  0.1553  0.0264
  944TIP3    H124247   5.598   1.002   0.750  1.3058 -1.1918 -1.2336
  944TIP3    H224248   5.570   0.982   0.897 -1.5052  0.3139 -1.5292
  945TIP3   OH224249   5.112   6.224  11.677 -0.2413 -0.3759 -0.5696
  945TIP3    H124250   5.017   6.216  11.669 -0.3210  0.0216 -0.0454
  945TIP3    H224251   5.137   6.282  11.605 -0.5959  0.8143  0.2475
  946TIP3   OH224252   0.641   0.237   2.494  0.0496  0.0671 -0.0686
  946TIP3    H124253   0.614   0.274   2.577 -0.5918  0.2694 -0.3678
  946TIP3    H224254   0.737   0.234   2.499  0.1219  1.9115 -0.1144
  947TIP3   OH224255   5.036   6.750  13.442  0.0239 -0.2499  0.0790
  947TIP3    H124256   4.956   6.707  13.412 -0.9675  1.3589  0.3403
  947TIP3    H224257   5.007   6.837  13.470  1.8006  0.1933  0.5959
  948TIP3   OH224258   5.683   3.633  14.617  0.2024 -0.6364 -0.3234
  948TIP3    H124259   5.765   3.679  14.631 -0.3084  0.6650 -1.4241
  948TIP3    H224260   5.619   3.680  14.671 -0.4766  0.4790 -2.0298
  949TIP3   OH224261   4.303   4.442   4.073 -0.3935 -0.7562  0.3339
  949TIP3    H124262   4.326   4.376   4.138  0.6291 -0.8962 -0.1647
  949TIP3    H224263   4.260   4.511   4.124 -1.0620 -1.5974  0.9189
  950TIP3   OH224264   6.516   4.134   1.874 -0.6153 -0.4186 -0.2034
  950TIP3    H124265   6.556   4.218   1.852  0.9326 -1.2408 -0.6099
  950TIP3    H224266   6.477   4.104   1.792 -3.1079  0.8952  0.4425
  951TIP3   OH224267   5.033   5.887  15.689  0.0788 -0.3971  0.1327
  951TIP3    H124268   5.115   5.864  15.645  0.6275 -0.7575  1.3320
  951TIP3    H224269   5.060   5.929  15.770 -0.9295 -1.2560  0.9255
  952TIP3   OH224270   6.419   0.656   0.464  0.3038 -0.1797  0.1086
  952TIP3    H124271   6.458   0.593   0.525  2.6093  1.6101  0.5675
  952TIP3    H224272   6.494   0.706   0.431 -1.2626  0.9252 -1.8357
  953TIP3   OH224273   5.180   0.680   0.429  0.0007  0.6584 -0.6440
  953TIP3    H124274   5.221   0.683   0.516 -1.6049  0.3163  0.1398
  953TIP3    H224275   5.136   0.595   0.427  0.8305  0.2601 -2.1701
  954TIP3   OH224276   0.592   4.519  13.120  0.3003  0.5960 -0.4028
  954TIP3    H124277   0.572   4.498  13.029  0.5373 -0.8715 -0.1233
  954TIP3    H224278   0.506   4.527  13.162  0.2192 -0.9995 -0.2517
  955TIP3   OH224279   5.000   3.223   3.538 -0.5125 -0.0681 -0.2732
  955TIP3    H124280   4.987   3.277   3.460  0.0569  0.9438  0.3214
  955TIP3    H224281   5.034   3.140   3.504 -2.0018 -0.2966 -1.2496
  956TIP3   OH224282   4.555   1.041  15.887  0.2708 -0.7833 -0.0624
  956TIP3    H124283   4.500   1.051  15.965 -0.5807 -1.0325 -0.6219
  956TIP3    H224284   4.616   0.971  15.910  1.4852  0.6485  1.1814
  957TIP3   OH224285   5.241   1.685  13.143  0.4154 -0.1786 -0.2782
  957TIP3    H124286   5.266   1.771  13.108  0.6140  0.2174  0.8296
  957TIP3    H224287   5.322   1.648  13.175 -0.0176  0.1377  1.2205
  958TIP3   OH224288   6.427   5.937  14.142  0.4244  0.2687  0.1028
  958TIP3    H124289   6.395   5.957  14.230  1.4483  0.5248  0.4212
  958TIP3    H224290   6.482   5.859  14.154  0.4813  0.2451 -0.3298
  959TIP3   OH224291   6.596   6.447   2.732  0.8798 -0.4373  0.3644
  959TIP3    H124292   6.589   6.427   2.638  2.8180 -3.7064  0.8550
  959TIP3    H224293   6.684   6.484   2.742  0.9608 -0.7984  0.9930
  960TIP3   OH224294   5.366   4.087  17.079 -0.4272 -0.2518 -0.1467
  960TIP3    H124295   5.273   4.088  17.058 -0.4626 -1.4327 -0.0536
  960TIP3    H224296   5.369   4.082  17.175 -0.2665  0.6775 -0.0991
  961TIP3   OH224297   3.760   6.684   4.273  0.2074  0.2589 -0.1221
  961TIP3    H124298   3.799   6.756   4.223  1.7361 -1.0884 -0.9030
  961TIP3    H224299   3.755   6.611   4.211  0.3328 -0.8566  1.1628
  962TIP3   OH224300   1.324   4.730  11.689 -0.3755 -0.4131  0.0946
  962TIP3    H124301   1.404   4.700  11.646  0.4316  1.1163  0.5081
  962TIP3    H224302   1.332   4.825  11.692 -1.2312 -0.3704  2.0324
  963TIP3   OH224303   5.343   6.784   0.775 -0.3293  0.0462  0.0168
  963TIP3    H124304   5.421   6.836   0.795  1.1340 -2.0397 -0.1258
  963TIP3    H224305   5.347   6.768   0.681  0.6508 -2.4455  0.4249
  964TIP3   OH224306   3.585   4.405  14.026 -0.2604 -0.1775 -0.4125
  964TIP3    H124307   3.529   4.453  14.086  1.1281  1.7803 -0.6342
  964TIP3    H224308   3.664   4.384  14.076 -0.0896 -0.6268 -0.8534
  965TIP3   OH224309   4.584   1.752   4.314  0.3024  0.6634  0.0050
  965TIP3    H124310   4.553   1.686   4.252  1.7438 -0.6106  0.6253
  965TIP3    H224311   4.565   1.835   4.271  1.4557 -0.1994 -2.2549
  966TIP3   OH224312   0.996   4.570  16.999 -0.1377 -0.0304  0.1257
  966TIP3    H124313   0.965   4.610  17.080 -1.1986 -0.7131  0.0687
  966TIP3    H224314   0.982   4.636  16.932 -0.5561  0.0323  0.2733
  967TIP3   OH224315   0.008   4.052   1.978 -0.3252 -0.0219  0.2328
  967TIP3    H124316   0.014   4.014   1.890 -2.0592  0.3454 -0.0490
  967TIP3    H224317  -0.071   4.106   1.976 -0.5861 -0.3070  2.1295
  968TIP3   OH224318   6.161   5.521   2.626  0.4225  0.2041  0.4732
  968TIP3    H124319   6.216   5.460   2.577  0.3948 -0.8669  1.7307
  968TIP3    H224320   6.191   5.513   2.716 -1.1397  0.3104  1.0216
  969TIP3   OH224321   1.625   2.615  13.001 -0.0875 -0.4499  0.2435
  969TIP3    H124322   1.552   2.673  12.978  0.5031 -0.3161 -1.2807
  969TIP3    H224323   1.693   2.634  12.937  0.0986 -2.8687 -0.3030
  970TIP3   OH224324   5.233   6.593  11.639 -0.2560 -0.5865  0.2606
  970TIP3    H124325   5.227   6.678  11.682  1.9903 -0.2278 -0.0966
  970TIP3    H224326   5.262   6.533  11.708  1.8745 -0.3056 -0.3809
  971TIP3   OH224327   1.528   3.006  15.468  0.0581  0.1086  0.2882
  971TIP3    H124328   1.555   3.061  15.541  2.1111 -0.6404  0.1241
  971TIP3    H224329   1.510   3.067  15.396  0.8952  0.6529  0.5407
  972TIP3   OH224330   3.842   0.206  16.680 -0.0903  0.4142 -0.1464
  972TIP3    H124331   3.749   0.224  16.693 -0.0960  0.0168  0.3298
  972TIP3    H224332   3.845   0.140  16.610 -0.1993 -0.2087  0.4368
  973TIP3   OH224333   6.250   6.752  11.844  0.4630  0.6566  0.1644
  973TIP3    H124334   6.279   6.727  11.932  1.2481 -1.6302 -0.7111
  973TIP3    H224335   6.157   6.772  11.854  0.1314 -1.3121  1.1940
  974TIP3   OH224336   2.575   6.159  15.331 -0.2278 -0.0713  0.3843
  974TIP3    H124337   2.636   6.117  15.271 -0.1945  0.4847  0.0321
  974TIP3    H224338   2.612   6.246  15.347  0.6812 -0.8284  2.5659
  975TIP3   OH224339   4.713   3.975   2.506 -0.6222  0.2768 -1.0133
  975TIP3    H124340   4.639   4.035   2.501 -1.6433 -0.9680 -1.3621
  975TIP3    H224341   4.674   3.888   2.491  1.1170 -0.2654 -2.5373
  976TIP3   OH224342   3.115   2.370   4.995  0.1395 -0.1015  0.1546
  976TIP3    H124343   3.205   2.343   4.978  0.4132  0.7811  0.1522
  976TIP3    H224344   3.061   2.301   4.957  0.7523  1.1784 -3.1345
  977TIP3   OH224345   1.274   3.828  15.635  0.0298 -0.3741 -0.3396
  977TIP3    H124346   1.215   3.753  15.640  0.7814 -0.9548  0.1160
  977TIP3    H224347   1.357   3.790  15.605  0.6214  0.1551  0.6131
  978TIP3   OH224348   3.760   2.934  11.848 -0.2485  0.6835 -0.0568
  978TIP3    H124349   3.731   2.850  11.815 -0.2089 -0.0218  1.6643
  978TIP3    H224350   3.812   2.913  11.925  1.5493  2.1571 -0.8209
  979TIP3   OH224351   1.478   0.269  10.735 -0.3500  0.1164  0.3504
  979TIP3    H124352   1.563   0.312  10.727  0.2862 -1.4858 -2.0263
  979TIP3    H224353   1.482   0.223  10.819  0.1664  1.9925  1.3975
  980TIP3   OH224354   1.439   1.832   4.483 -0.5734  0.3134 -0.3135
  980TIP3    H124355   1.453   1.790   4.568  1.9810 -2.2832 -1.9323
  980TIP3    H224356   1.344   1.837   4.474 -0.8981 -1.8218  1.5173
  981TIP3   OH224357   4.720   4.339  12.043  0.5299  0.2521  0.6375
  981TIP3    H124358   4.641   4.339  12.097  0.4694  0.6985  0.5504
  981TIP3    H224359   4.762   4.255  12.062  0.6528  0.5311  1.5866
  982TIP3   OH224360   0.925   2.260   4.626  0.2986  0.3701 -0.2790
  982TIP3    H124361   0.849   2.294   4.673  1.6203 -1.5449  3.4877
  982TIP3    H224362   0.987   2.333   4.624  0.4119  0.3442  1.4691
  983TIP3   OH224363   3.558   4.665   1.261 -0.0646 -0.2437 -0.3198
  983TIP3    H124364   3.628   4.677   1.326 -0.8618  0.3210  0.4409
  983TIP3    H224365   3.532   4.754   1.237 -0.5559 -0.4582 -0.5779
  984TIP3   OH224366   2.567   2.810  15.340 -0.1291  0.3514  0.6892
  984TIP3    H124367   2.556   2.904  15.325 -0.2583  0.4831  1.5916
  984TIP3    H224368   2.657   2.792  15.313 -0.3764  0.5713 -0.2820
  985TIP3   OH224369   2.070   2.417  15.713  0.4469  0.4873 -0.6529
  985TIP3    H124370   2.102   2.498  15.751 -1.3061  1.7826 -1.8555
  985TIP3    H224371   2.139   2.390  15.653  0.9177  1.2603 -0.4632
  986TIP3   OH224372   4.771   5.490   1.600  0.4440  0.0700 -0.0820
  986TIP3    H124373   4.683   5.453   1.615  1.0118 -0.8866  0.9897
  986TIP3    H224374   4.830   5.424   1.637  1.6224  0.6105 -1.0151
  987TIP3   OH224375   1.404   2.322   4.681  0.0258  0.2971 -0.0069
  987TIP3    H124376   1.462   2.296   4.753  0.9489  0.0386 -0.8460
  987TIP3    H224377   1.427   2.413   4.663  0.9020 -0.1131 -1.0259
  988TIP3   OH224378   2.461   5.815  10.890 -0.7243  0.1272  0.5185
  988TIP3    H124379   2.505   5.825  10.806 -0.2119  0.5673  0.8341
  988TIP3    H224380   2.520   5.758  10.941 -1.0548 -0.1775  0.5637
  989TIP3   OH224381   0.278   4.475  16.626  0.3476  0.1062  0.6028
  989TIP3    H124382   0.244   4.386  16.613  1.3557  0.0181 -1.8247
  989TIP3    H224383   0.281   4.512  16.538 -0.0306  2.5495  1.5864
  990TIP3   OH224384   1.375   1.267  11.962  0.1946  0.3387  0.4839
  990TIP3    H124385   1.466   1.297  11.963  0.3211 -0.0123  2.0722
  990TIP3    H224386   1.381   1.174  11.943  0.1727  0.3213  0.5613
  991TIP3   OH224387   1.069   6.709   5.079  0.4474 -0.1653  0.0090
  991TIP3    H124388   1.075   6.773   5.009  1.4289 -0.1949  0.0577
  991TIP3    H224389   1.115   6.750   5.153 -0.3765 -0.2278  0.5568
  992TIP3   OH224390   0.481   2.379  13.660  0.1830  0.6518 -0.4678
  992TIP3    H124391   0.456   2.466  13.691  1.7749  0.4375  1.5432
  992TIP3    H224392   0.567   2.391  13.620  1.3131 -0.3069  1.6032
  993TIP3   OH224393   5.910   5.902   0.997 -0.1883  0.1328  0.6308
  993TIP3    H124394   5.958   5.859   1.068 -0.9520 -0.4378  0.8131
  993TIP3    H224395   5.941   5.857   0.917  1.3180  1.3709  0.5033
  994TIP3   OH224396   3.700   4.014  11.928  0.2969 -0.4502  0.2731
  994TIP3    H124397   3.774   4.051  11.880 -0.1596  0.4516  0.2508
  994TIP3    H224398   3.628   4.014  11.864 -0.0581 -0.1404  0.6720
  995TIP3   OH224399   1.584   2.867   0.167  0.2792 -0.5387  0.0579
  995TIP3    H124400   1.498   2.879   0.209  0.4621 -1.2854  0.6473
  995TIP3    H224401   1.600   2.773   0.171  0.1622 -0.6530 -1.9832
  996TIP3   OH224402   6.307   6.089  10.858 -0.9675  0.5128 -0.2794
  996TIP3    H124403   6.268   6.075  10.772  0.8296  0.5271 -1.1090
  996TIP3    H224404   6.343   6.178  10.855  0.3803 -0.0052 -0.0388
  997TIP3   OH224405   4.428   4.824   5.134  0.3405 -0.2159 -0.3505
  997TIP3    H124406   4.435   4.792   5.044 -0.6986  1.4040 -1.0299
  997TIP3    H224407   4.492   4.894   5.141 -1.9551  2.0245 -0.9304
  998TIP3   OH224408   4.481   3.907  16.374 -0.2248  0.4125  0.3646
  998TIP3    H124409   4.503   3.829  16.323 -1.3760  0.0119  0.4582
  998TIP3    H224410   4.530   3.978  16.332  1.3651 -0.4806  0.7052
  999TIP3   OH224411   1.924   4.762  10.982 -0.5462  0.5090 -0.0839
  999TIP3    H124412   1.950   4.740  10.893 -2.8775 -1.4925 -0.2942
  999TIP3    H224413   1.982   4.709  11.038 -0.9639 -0.3501 -0.4630
 1000TIP3   OH224414   6.749   2.049  11.151 -0.0032 -0.4310 -0.5863
 1000TIP3    H124415   6.677   2.004  11.107 -0.6149  0.4410 -0.4980
 1000TIP3    H224416   6.827   2.019  11.105 -0.3525 -1.9248 -0.2301
 1001TIP3   OH224417   1.062   1.651   2.860 -0.1514  0.1529  0.0998
 1001TIP3    H124418   1.115   1.672   2.783  0.9309  1.0780  1.0861
 1001TIP3    H224419   1.010   1.730   2.877  0.7566  0.5168  1.2404
 1002TIP3   OH224420   2.249   4.193  13.144 -0.1939 -0.5331  0.1888
 1002TIP3    H124421   2.197   4.117  13.171  0.9857 -1.1242  0.8222
 1002TIP3    H224422   2.223   4.262  13.206 -0.4667 -0.7310  0.2979
 1003TIP3   OH224423   0.969   2.785   5.833  0.1278  0.3098  0.0605
 1003TIP3    H124424   0.900   2.742   5.783  1.4228 -1.0419 -0.5663
 1003TIP3    H224425   1.049   2.769   5.784  0.9516  1.6299  0.9333
 1004TIP3   OH224426   1.839   2.133  13.958 -0.3325  0.1818 -0.1888
 1004TIP3    H124427   1.805   2.149  13.870  0.1577  1.0339 -0.2320
 1004TIP3    H224428   1.929   2.106  13.944 -0.2975  0.1804  0.0383
 1005TIP3   OH224429   2.577   0.421  15.887  0.4328 -0.0248 -0.5485
 1005TIP3    H124430   2.658   0.462  15.859  0.0637  0.1193 -1.4094
 1005TIP3    H224431   2.564   0.348  15.827  0.4512 -0.6695  0.2214
 1006TIP3   OH224432   1.952   1.946   3.453 -0.5129 -0.2509  0.7710
 1006TIP3    H124433   2.007   1.870   3.434 -0.1300  0.1780  0.1302
 1006TIP3    H224434   1.979   2.012   3.389 -0.9742  0.3613  1.1943
 1007TIP3   OH224435   4.120   2.567   1.325  0.5599  0.2706  0.0210
 1007TIP3    H124436   4.195   2.611   1.286 -1.4898  2.0164 -2.0724
 1007TIP3    H224437   4.084   2.513   1.254 -1.1407  0.7581  0.4933
 1008TIP3   OH224438   0.865   6.750  11.093  0.3600  0.4096 -0.3222
 1008TIP3    H124439   0.831   6.661  11.086  0.8932  0.2143 -0.4932
 1008TIP3    H224440   0.923   6.760  11.017 -0.3965  1.2168 -0.8080
 1009TIP3   OH224441   5.393   5.709  15.551 -0.0304 -0.5076  0.1830
 1009TIP3    H124442   5.360   5.679  15.636 -0.4536 -1.9961 -0.4909
 1009TIP3    H224443   5.371   5.802  15.549  1.0679 -0.1646  2.1976
 1010TIP3   OH224444   3.249   3.062   3.657 -0.1663  0.5905  0.4763
 1010TIP3    H124445   3.263   3.156   3.646  0.8925  0.3285 -0.4620
 1010TIP3    H224446   3.225   3.031   3.570  1.8293 -0.3968  0.2388
 1011TIP3   OH224447   4.416   4.862  14.590  0.9155 -1.1351  0.1714
 1011TIP3    H124448   4.383   4.903  14.670  2.3122  1.6675 -0.6341
 1011TIP3    H224449   4.505   4.835  14.613  0.3727 -2.8171  0.3663
 1012TIP3   OH224450   1.329   1.665   4.996 -0.4704 -0.3291 -0.0803
 1012TIP3    H124451   1.278   1.746   4.988 -0.1401  0.0645  1.7475
 1012TIP3    H224452   1.276   1.600   4.949 -1.4857  0.6032 -0.2605
 1013TIP3   OH224453   1.094   0.739  10.908 -0.6790 -0.5082 -0.2012
 1013TIP3    H124454   1.066   0.828  10.889  0.2944 -0.3049 -0.7274
 1013TIP3    H224455   1.147   0.714  10.832 -0.4600 -1.3196  0.2145
 1014TIP3   OH224456   0.666   2.912   1.813 -0.5485  0.5716  0.9214
 1014TIP3    H124457   0.651   2.832   1.763  1.5663 -0.1569  1.3832
 1014TIP3    H224458   0.584   2.960   1.807 -1.5963 -1.2777 -0.0127
 1015TIP3   OH224459   3.182   5.608  14.914  0.2891  0.6883  0.0500
 1015TIP3    H124460   3.227   5.650  14.840 -0.6457 -0.7999 -1.3743
 1015TIP3    H224461   3.251   5.596  14.980  1.5872  0.1363 -1.3855
 1016TIP3   OH224462   3.839   5.459  14.088 -0.1887  0.2764  0.4137
 1016TIP3    H124463   3.779   5.490  14.155 -0.1869 -0.0257  0.5577
 1016TIP3    H224464   3.912   5.421  14.138 -0.1418  0.1403  0.2399
 1017TIP3   OH224465   0.747   3.225  14.444  0.2191 -0.3111  0.1214
 1017TIP3    H124466   0.692   3.299  14.419 -2.5764 -2.0043  1.0333
 1017TIP3    H224467   0.791   3.198  14.363  0.3427  1.5665 -0.4416
 1018TIP3   OH224468   4.970   3.324   4.441 -0.1865 -0.3928  0.0780
 1018TIP3    H124469   5.001   3.261   4.506  0.1836  0.2532  0.5297
 1018TIP3    H224470   5.050   3.369   4.411 -0.5615  0.5766  0.5132
 1019TIP3   OH224471   5.835   0.504   5.197 -0.1993 -0.0874 -0.5357
 1019TIP3    H124472   5.749   0.540   5.178 -1.3592 -2.4616  0.0915
 1019TIP3    H224473   5.866   0.555   5.272 -1.5064  0.0940 -0.1055
 1020TIP3   OH224474   1.045   6.664  13.347 -0.3578  0.3805 -0.3766
 1020TIP3    H124475   1.032   6.571  13.364 -1.2538  0.3838 -0.9910
 1020TIP3    H224476   0.957   6.697  13.327  0.0380  1.2407 -0.7126
 1021TIP3   OH224477   2.828   3.883  11.318 -0.3378  0.2165  0.1671
 1021TIP3    H124478   2.900   3.851  11.265 -0.2740  0.4167  0.1300
 1021TIP3    H224479   2.801   3.808  11.371  0.6859  0.4647  1.0631
 1022TIP3   OH224480   2.851   0.637   5.573 -0.2276 -0.2669 -0.1066
 1022TIP3    H124481   2.889   0.678   5.651 -1.5324 -1.2459  1.0748
 1022TIP3    H224482   2.810   0.557   5.606 -1.1413 -0.4889 -1.7494
 1023TIP3   OH224483   1.350   5.462  12.764 -0.0104  0.5674  0.1767
 1023TIP3    H124484   1.318   5.433  12.678 -1.3192 -2.8830  1.6955
 1023TIP3    H224485   1.270   5.473  12.816  0.8215  1.4404  1.2741
 1024TIP3   OH224486   2.528   5.668  14.181 -0.6568  0.1448  0.4126
 1024TIP3    H124487   2.525   5.708  14.268 -0.6800  0.6086  0.2018
 1024TIP3    H224488   2.527   5.743  14.120 -0.4925 -0.1685  0.0187
 1025TIP3   OH224489   5.368   0.571  15.764 -0.3052 -0.0516 -0.8827
 1025TIP3    H124490   5.402   0.542  15.679 -1.5954  1.4497 -1.9405
 1025TIP3    H224491   5.343   0.490  15.809  2.6941 -1.0453 -0.8812
 1026TIP3   OH224492   4.070   2.785  12.603 -0.0150  0.2362 -0.3200
 1026TIP3    H124493   3.976   2.799  12.614  0.0682 -0.1737  1.1022
 1026TIP3    H224494   4.100   2.858  12.549 -1.5395 -0.9190 -2.7883
 1027TIP3   OH224495   0.372   1.790  10.916 -0.2828  0.0442 -0.0463
 1027TIP3    H124496   0.413   1.834  10.991  1.4430 -1.3926 -0.1187
 1027TIP3    H224497   0.430   1.810  10.843 -1.9867  1.4790 -1.0390
 1028TIP3   OH224498   3.165   0.401  11.363 -0.3127 -0.1602 -0.2702
 1028TIP3    H124499   3.158   0.465  11.434 -0.4755  0.4309 -0.8224
 1028TIP3    H224500   3.101   0.334  11.386 -1.7484  0.9812 -0.8375
 1029TIP3   OH224501   3.031   6.242  13.705 -0.7031  0.0644 -0.1988
 1029TIP3    H124502   3.109   6.232  13.760 -0.8975 -0.3973  0.0010
 1029TIP3    H224503   2.966   6.185  13.746 -1.6454  1.6686  0.5390
 1030TIP3   OH224504   4.467   2.506  15.017 -0.2043 -0.7550 -0.5876
 1030TIP3    H124505   4.392   2.525  15.073  0.5232  0.9003 -0.1456
 1030TIP3    H224506   4.525   2.453  15.071 -0.7384 -1.4714 -0.7078
 1031TIP3   OH224507   2.933   5.713   2.634  0.1197  0.1875 -0.0612
 1031TIP3    H124508   3.012   5.666   2.659 -0.2947 -0.6209 -0.2308
 1031TIP3    H224509   2.897   5.745   2.716 -1.1163 -2.2628  0.4076
 1032TIP3   OH224510   0.098   6.736  13.303  0.1381 -0.5831  0.2205
 1032TIP3    H124511   0.113   6.742  13.397 -0.3371 -0.3904  0.2867
 1032TIP3    H224512   0.167   6.790  13.264 -1.2469  1.5081  0.5899
 1033TIP3   OH224513   0.959   6.348   1.741 -0.0182 -0.0225 -0.4282
 1033TIP3    H124514   0.962   6.387   1.654  2.6483  0.6088 -0.1031
 1033TIP3    H224515   0.997   6.261   1.730  0.9427  0.3108  0.2257
 1034TIP3   OH224516   0.650   1.002   5.229 -0.3433 -0.4545 -0.0941
 1034TIP3    H124517   0.595   0.927   5.250 -1.5642  0.2261 -0.7990
 1034TIP3    H224518   0.687   1.030   5.312 -0.3816 -1.4494  0.2566
 1035TIP3   OH224519   3.884   2.138   2.920 -0.1459  0.0704  0.4652
 1035TIP3    H124520   3.804   2.141   2.868 -0.8130 -0.5200  1.4422
 1035TIP3    H224521   3.931   2.061   2.887  0.9733  1.5263 -1.4517
 1036TIP3   OH224522   6.432   5.600  14.420 -0.0490 -0.2142 -0.0203
 1036TIP3    H124523   6.377   5.602  14.342  0.1595 -0.1562 -0.1678
 1036TIP3    H224524   6.375   5.628  14.491  0.3567  1.9231 -0.5226
 1037TIP3   OH224525   2.597   0.258  13.065 -0.2861  0.1384 -0.2299
 1037TIP3    H124526   2.560   0.333  13.018  1.6099  0.8267 -0.6964
 1037TIP3    H224527   2.688   0.255  13.036 -0.3677 -2.4183 -0.2734
 1038TIP3   OH224528   5.311   2.149   2.752 -0.2733  0.0375 -0.0170
 1038TIP3    H124529   5.220   2.178   2.741 -0.0622  0.8465  0.3984
 1038TIP3    H224530   5.343   2.137   2.662 -1.3011 -1.8631 -0.1584
 1039TIP3   OH224531   6.590   4.272   5.185 -0.3276  0.2964 -0.5991
 1039TIP3    H124532   6.616   4.209   5.252  0.2332  1.0534 -0.0958
 1039TIP3    H224533   6.560   4.349   5.234  1.6737  1.4997 -1.1900
 1040TIP3   OH224534   2.171   4.311   1.721 -0.5532 -0.2849 -0.3497
 1040TIP3    H124535   2.255   4.354   1.705 -0.5509 -0.2116 -0.1446
 1040TIP3    H224536   2.133   4.300   1.633 -0.5955  0.2260 -0.3992
 1041TIP3   OH224537   6.530   5.270  11.850 -0.3305 -0.5967  0.2044
 1041TIP3    H124538   6.505   5.295  11.761  0.6013 -0.7855 -0.1173
 1041TIP3    H224539   6.572   5.348  11.886  2.0405 -1.4261 -0.5929
 1042TIP3   OH224540   0.816   3.378   1.283  0.2067 -0.2820 -0.7606
 1042TIP3    H124541   0.723   3.382   1.263  0.2824  0.3857 -0.9976
 1042TIP3    H224542   0.821   3.335   1.368 -0.3829  0.4934 -0.3284
 1043TIP3   OH224543   0.028   3.845  11.428  0.1745  0.2335 -0.1277
 1043TIP3    H124544  -0.067   3.858  11.432  0.4343  2.0630  0.4934
 1043TIP3    H224545   0.053   3.883  11.344  0.6189  1.6603  0.6330
 1044TIP3   OH224546   6.722   5.618   4.945  0.2140  0.2153 -0.1026
 1044TIP3    H124547   6.801   5.669   4.927 -1.5400  2.6910 -0.9832
 1044TIP3    H224548   6.655   5.683   4.963 -1.7075 -1.8476  0.3743
 1045TIP3   OH224549   6.078   3.964   2.211 -0.4737  0.4457 -0.0285
 1045TIP3    H124550   6.072   4.053   2.246 -1.8592 -0.4196  1.9863
 1045TIP3    H224551   6.152   3.968   2.151 -0.8996  3.1184 -0.4444
 1046TIP3   OH224552   0.891   6.639  17.022  0.1500 -0.3167 -0.4532
 1046TIP3    H124553   0.922   6.579  16.955  1.5204 -0.4951  0.3355
 1046TIP3    H224554   0.913   6.597  17.105  3.5452  2.4351  0.1496
 1047TIP3   OH224555   2.461   0.508  11.745 -0.0116 -0.7419  0.5435
 1047TIP3    H124556   2.461   0.423  11.701 -1.3166 -0.3248 -0.3159
 1047TIP3    H224557   2.378   0.548  11.718  0.0760  0.3413  1.8341
 1048TIP3   OH224558   3.893   5.887   2.098 -0.1370  0.6222  0.4197
 1048TIP3    H124559   3.846   5.964   2.065  0.6216  1.3477  0.9872
 1048TIP3    H224560   3.845   5.812   2.063 -1.2598  1.3546  0.3708
 1049TIP3   OH224561   0.504   5.514   2.047 -0.3015 -0.1507 -0.0964
 1049TIP3    H124562   0.488   5.573   2.121  1.4803 -1.0726  1.0602
 1049TIP3    H224563   0.593   5.481   2.061 -0.5797 -1.6803 -1.7208
 1050TIP3   OH224564   6.400   2.208  11.261  0.1696 -0.1857 -0.2631
 1050TIP3    H124565   6.323   2.160  11.291 -0.7567  1.8004  0.6056
 1050TIP3    H224566   6.446   2.232  11.342  1.2458 -0.5856 -0.7421
 1051TIP3   OH224567   1.225   2.365   6.010 -0.1530 -0.4997 -0.3857
 1051TIP3    H124568   1.173   2.353   6.089 -0.2860 -1.0321 -0.5543
 1051TIP3    H224569   1.312   2.332   6.033  0.4918  1.6526  0.3349
 1052TIP3   OH224570   0.297   3.822  16.243 -0.4123 -0.0049 -0.0098
 1052TIP3    H124571   0.274   3.760  16.312  0.2433 -0.2464 -0.0051
 1052TIP3    H224572   0.213   3.859  16.214 -0.7996 -0.8616  0.0141
 1053TIP3   OH224573   6.141   0.090   2.266 -0.1057 -0.0274  0.6343
 1053TIP3    H124574   6.143  -0.005   2.261 -2.6266 -0.0034 -1.7905
 1053TIP3    H224575   6.089   0.109   2.344  1.9455 -0.5751  2.1894
 1054TIP3   OH224576   0.279   6.316  12.121 -0.0394  0.1845  0.0851
 1054TIP3    H124577   0.310   6.384  12.061 -2.0435  0.3371 -0.8000
 1054TIP3    H224578   0.219   6.361  12.180  1.9403  0.0468  2.3098
 1055TIP3   OH224579   1.489   2.147  16.926  0.1870 -0.0188  0.6529
 1055TIP3    H124580   1.468   2.240  16.939  0.1369 -0.0470  0.7735
 1055TIP3    H224581   1.460   2.105  17.006  0.4138 -0.1070  0.6879
 1056TIP3   OH224582   4.123   5.045   1.630 -0.3974 -0.1389  0.3860
 1056TIP3    H124583   4.129   5.128   1.678  1.1103  0.7607 -1.3211
 1056TIP3    H224584   4.207   5.002   1.646 -0.7530 -0.8585  0.3619
 1057TIP3   OH224585   4.130   2.185   0.550  0.0658 -0.2408  0.0135
 1057TIP3    H124586   4.083   2.253   0.502 -0.7876 -1.1028 -0.3850
 1057TIP3    H224587   4.216   2.181   0.509  0.0684  0.5042 -0.0520
 1058TIP3   OH224588   3.929   3.777  13.815  0.5092 -0.3587  0.4438
 1058TIP3    H124589   3.919   3.871  13.832 -1.5854 -0.5296  0.2638
 1058TIP3    H224590   3.987   3.746  13.884  1.5956  1.1405  0.2432
 1059TIP3   OH224591   1.189   2.947   1.590 -0.5047 -0.4080  0.3442
 1059TIP3    H124592   1.241   2.868   1.580 -0.4295 -0.4182  0.8054
 1059TIP3    H224593   1.143   2.956   1.507 -2.0939 -2.0670  1.0065
 1060TIP3   OH224594   4.233   5.729   0.053  0.3881  0.1120 -0.4534
 1060TIP3    H124595   4.265   5.812   0.088  1.4901  0.2416 -1.7429
 1060TIP3    H224596   4.147   5.750   0.017  0.7959  0.7809 -1.0565
 1061TIP3   OH224597   6.750   3.944  10.819  0.6740 -0.0483  0.2254
 1061TIP3    H124598   6.790   4.010  10.762 -0.9623  0.1891 -0.6737
 1061TIP3    H224599   6.818   3.877  10.828  1.5065  0.6394 -0.7630
 1062TIP3   OH224600   6.086   0.661   5.196  0.2028  0.5734  0.9083
 1062TIP3    H124601   6.180   0.670   5.207  0.7962 -3.9259  0.2494
 1062TIP3    H224602   6.070   0.688   5.106  1.3107 -1.4123  0.0983
 1063TIP3   OH224603   3.567   1.994  13.118 -0.5031 -0.3044 -0.1879
 1063TIP3    H124604   3.558   1.965  13.027 -0.6654  0.6870 -0.5027
 1063TIP3    H224605   3.621   2.073  13.112 -0.9135  0.0344  0.5226
 1064TIP3   OH224606   3.464   1.972   1.247  0.8044  0.7010  0.1797
 1064TIP3    H124607   3.528   1.901   1.240  0.8841  0.7132  0.7533
 1064TIP3    H224608   3.380   1.928   1.257  0.8562  0.6839  0.5580
 1065TIP3   OH224609   1.992   6.723   2.886 -0.1871  0.0690  0.0224
 1065TIP3    H124610   1.944   6.652   2.843  0.5005 -0.6104  0.3648
 1065TIP3    H224611   2.000   6.695   2.977 -1.3995  1.3756  0.5616
 1066TIP3   OH224612   1.973   3.556   3.311  0.4119 -0.1493  0.0158
 1066TIP3    H124613   1.976   3.578   3.404  0.1255  1.1202 -0.2666
 1066TIP3    H224614   2.053   3.506   3.295  1.3227  1.1383  0.5594
 1067TIP3   OH224615   1.877   5.276   4.900  0.4435  0.6938  0.3870
 1067TIP3    H124616   1.785   5.272   4.924  0.0286 -1.9270 -1.4723
 1067TIP3    H224617   1.878   5.329   4.820  0.3955 -0.3058 -0.2771
 1068TIP3   OH224618   0.610   0.901  12.683 -0.4245  0.2424 -0.2318
 1068TIP3    H124619   0.535   0.957  12.698 -0.3164  0.2486  0.3135
 1068TIP3    H224620   0.636   0.871  12.770  1.6534  2.1263 -0.1428
 1069TIP3   OH224621   0.831   5.164  11.206 -0.1346 -0.4542  0.0302
 1069TIP3    H124622   0.737   5.151  11.191  0.0683 -1.5714 -0.3170
 1069TIP3    H224623   0.869   5.172  11.119  0.5021 -3.0111  0.0434
 1070TIP3   OH224624   0.204   3.762   0.600 -0.2663 -0.7493  0.1526
 1070TIP3    H124625   0.159   3.695   0.652  0.1301 -1.7923 -0.8411
 1070TIP3    H224626   0.218   3.834   0.662 -0.7486 -1.5455  1.2133
 1071TIP3   OH224627   1.564   3.181  14.347 -0.1196  0.3414  0.0730
 1071TIP3    H124628   1.655   3.157  14.332 -0.0333 -1.0503  2.5709
 1071TIP3    H224629   1.515   3.129  14.283  0.7119  0.0180 -0.3157
 1072TIP3   OH224630   2.815   3.680   3.328 -0.0677 -0.1843  0.1526
 1072TIP3    H124631   2.754   3.746   3.360 -0.6937 -0.8222  0.2963
 1072TIP3    H224632   2.759   3.609   3.296  0.5860 -1.5157  1.8565
 1073TIP3   OH224633   3.528   3.842  13.713 -0.1402 -0.2052  0.0763
 1073TIP3    H124634   3.532   3.937  13.720  0.1235 -0.2619  0.7611
 1073TIP3    H224635   3.445   3.819  13.755 -0.4934 -0.2277 -0.6356
 1074TIP3   OH224636   5.146   1.363   0.834  0.3475 -0.2648  0.2890
 1074TIP3    H124637   5.217   1.426   0.845  0.3944 -0.3062  0.2241
 1074TIP3    H224638   5.069   1.416   0.818  0.1262 -0.1701  1.6023
 1075TIP3   OH224639   0.069   2.266   3.927  0.0339 -0.0226  0.2686
 1075TIP3    H124640   0.059   2.229   3.839 -0.0621  0.7652 -0.0576
 1075TIP3    H224641   0.086   2.359   3.912  2.8692 -0.3878  0.9950
 1076TIP3   OH224642   3.226   0.797  11.214 -0.2434 -0.2929 -0.0239
 1076TIP3    H124643   3.138   0.782  11.248 -1.1035 -0.3760 -2.1637
 1076TIP3    H224644   3.241   0.891  11.225 -1.8379  0.2802 -2.3521
 1077TIP3   OH224645   1.073   6.495   4.355 -0.1283  0.1166 -0.4414
 1077TIP3    H124646   1.058   6.401   4.349  0.3828  0.0863 -1.3736
 1077TIP3    H224647   0.998   6.534   4.310 -0.7482  0.1894  0.6356
 1078TIP3   OH224648   1.574   3.400   5.888  0.2742 -0.1809 -0.1071
 1078TIP3    H124649   1.639   3.395   5.818 -0.7337 -0.6034 -1.0314
 1078TIP3    H224650   1.502   3.451   5.850  0.1326  0.4339  0.9651
 1079TIP3   OH224651   3.359   2.510  11.890  0.0094  0.1725  0.1692
 1079TIP3    H124652   3.320   2.553  11.813 -0.6462 -2.2230 -0.8706
 1079TIP3    H224653   3.453   2.506  11.870 -0.4372 -2.5518 -1.6186
 1080TIP3   OH224654   5.665   3.447   0.192  0.6883  0.1142  0.1738
 1080TIP3    H124655   5.611   3.401   0.257  1.4177 -1.3557 -0.2554
 1080TIP3    H224656   5.738   3.483   0.243  0.2436  0.6017  0.4716
 1081TIP3   OH224657   3.233   0.901  12.163  0.3741 -0.5844 -0.3791
 1081TIP3    H124658   3.214   0.908  12.257 -0.5308  0.1615 -0.6056
 1081TIP3    H224659   3.328   0.906  12.157  0.3963  0.0900  0.4472
 1082TIP3   OH224660   5.665   4.509  11.297  0.0096  0.0233 -0.0839
 1082TIP3    H124661   5.657   4.547  11.210 -0.3582  1.1544  0.4423
 1082TIP3    H224662   5.750   4.540  11.329  0.5494 -1.1062 -0.3685
 1083TIP3   OH224663   1.541   1.256  13.227 -0.0644 -0.2328  0.1415
 1083TIP3    H124664   1.546   1.345  13.259  1.0305 -0.6659  1.2033
 1083TIP3    H224665   1.566   1.202  13.302 -1.3546 -1.4650 -0.2926
 1084TIP3   OH224666   4.016   6.551  12.095  0.4827  1.0477 -0.2938
 1084TIP3    H124667   4.015   6.488  12.167 -1.9087 -0.7399 -1.8362
 1084TIP3    H224668   4.107   6.583  12.093  1.7801 -2.3880  0.4901
 1085TIP3   OH224669   6.167   1.040   2.400  0.0424 -0.3085  0.1176
 1085TIP3    H124670   6.205   1.117   2.358 -0.5621 -0.7694 -1.2873
 1085TIP3    H224671   6.203   1.041   2.489 -1.7642  2.9429  0.9084
 1086TIP3   OH224672   0.086   5.561   6.311 -0.2788 -0.3972 -0.4886
 1086TIP3    H124673   0.153   5.630   6.308 -0.1296 -0.5295 -0.2268
 1086TIP3    H224674   0.135   5.481   6.328 -0.3219 -0.7585 -2.0114
 1087TIP3   OH224675   1.657   4.397   0.893  0.7754 -0.3198 -0.5562
 1087TIP3    H124676   1.709   4.345   0.832  0.7172  0.0171 -0.8923
 1087TIP3    H224677   1.654   4.484   0.854  0.5923 -0.1487 -0.1595
 1088TIP3   OH224678   2.361   6.744   4.740  0.3962  0.5831  0.2142
 1088TIP3    H124679   2.399   6.661   4.711  1.3271  1.2841 -0.6126
 1088TIP3    H224680   2.397   6.809   4.680 -0.9748  1.4761  0.3202
 1089TIP3   OH224681   2.820   1.353  13.635 -0.1093 -0.3778  0.1667
 1089TIP3    H124682   2.731   1.366  13.667 -0.9160 -1.1577 -1.6902
 1089TIP3    H224683   2.818   1.267  13.593  1.2423  0.0546 -0.8285
 1090TIP3   OH224684   6.380   3.119  15.907 -0.0293  0.2699  0.6572
 1090TIP3    H124685   6.441   3.131  15.835  0.1420 -0.9881  0.5870
 1090TIP3    H224686   6.349   3.208  15.927  0.1656  0.6647 -0.7364
 1091TIP3   OH224687   1.287   6.188   4.478 -0.2769 -0.0419  0.5058
 1091TIP3    H124688   1.321   6.277   4.474  0.1805 -0.2004  0.7933
 1091TIP3    H224689   1.364   6.133   4.465 -0.6747 -0.3869 -0.4058
 1092TIP3   OH224690   3.643   1.765   1.735 -0.3873 -0.2096  0.5132
 1092TIP3    H124691   3.698   1.782   1.811 -0.2618  0.0862  0.3531
 1092TIP3    H224692   3.591   1.688   1.761  1.0660 -1.3458  0.1583
 1093TIP3   OH224693   3.238   2.629   2.192 -0.5466 -0.0688  0.2298
 1093TIP3    H124694   3.154   2.671   2.211 -0.1801  0.6729  0.2044
 1093TIP3    H224695   3.228   2.594   2.104 -1.7549 -2.2756  1.1983
 1094TIP3   OH224696   4.544   4.541  16.236 -0.2947 -0.3711 -0.3508
 1094TIP3    H124697   4.510   4.466  16.285 -1.2681 -0.5922 -1.3738
 1094TIP3    H224698   4.619   4.570  16.288 -0.5529 -1.3871  0.6170
 1095TIP3   OH224699   1.964   2.050  16.123 -0.3784  0.1742 -0.0637
 1095TIP3    H124700   1.929   2.136  16.147 -2.1836 -0.5625  0.0043
 1095TIP3    H224701   1.890   2.003  16.086  0.8458 -0.9958 -1.0779
 1096TIP3   OH224702   4.132   2.643   5.367 -0.2106  0.0917  0.2925
 1096TIP3    H124703   4.173   2.594   5.296 -2.8294 -0.7108 -0.6988
 1096TIP3    H224704   4.086   2.576   5.419 -1.4270  1.1490  0.5836
 1097TIP3   OH224705   4.627   2.817  13.224  0.3242  0.0440  0.3072
 1097TIP3    H124706   4.547   2.833  13.173  0.5073 -0.5031 -0.1561
 1097TIP3    H224707   4.667   2.740  13.183 -0.0188 -0.9851  1.8708
 1098TIP3   OH224708   1.220   0.836  15.437  0.2787 -0.2610  0.1532
 1098TIP3    H124709   1.240   0.789  15.518  1.3303  0.9541  0.6058
 1098TIP3    H224710   1.125   0.834  15.431 -0.0966  3.0083  3.4643
 1099TIP3   OH224711   2.563   5.046   0.313  0.0623 -0.3127 -0.2923
 1099TIP3    H124712   2.490   5.025   0.371  1.7421 -2.0904  1.2525
 1099TIP3    H224713   2.600   5.127   0.347 -2.4618  1.8378 -2.3974
 1100TIP3   OH224714   4.429   6.141  13.985  0.3217  0.6245  0.2777
 1100TIP3    H124715   4.407   6.064  14.037  0.9441 -0.7380 -1.4326
 1100TIP3    H224716   4.352   6.197  13.991  0.0488  0.0979  1.9222
 1101TIP3   OH224717   4.953   0.325   6.166 -0.4367 -0.7965 -0.6570
 1101TIP3    H124718   5.007   0.287   6.236  0.4265  0.6582 -0.5172
 1101TIP3    H224719   4.876   0.358   6.211  0.9996  1.8999 -0.0562
 1102TIP3   OH224720   6.082   3.648   2.750 -0.0977 -0.3729 -0.0557
 1102TIP3    H124721   6.053   3.639   2.841 -2.4425 -1.5239 -0.8590
 1102TIP3    H224722   6.015   3.703   2.709  0.5499 -0.4599 -1.2506
 1103TIP3   OH224723   6.741   3.030   4.632  0.3129 -0.5219 -0.9712
 1103TIP3    H124724   6.757   2.979   4.552 -2.6242 -0.3370 -1.7111
 1103TIP3    H224725   6.696   3.109   4.602  1.0603  0.5569  0.6622
 1104TIP3   OH224726   5.049   6.165  14.292  0.1807 -0.8674  0.0857
 1104TIP3    H124727   5.091   6.127  14.215  0.3136 -0.3060 -0.1218
 1104TIP3    H224728   5.084   6.115  14.366 -0.4311 -1.8220 -0.2704
 1105TIP3   OH224729   2.371   6.458  11.527  0.2462  0.1232  0.0112
 1105TIP3    H124730   2.461   6.440  11.555 -0.1499 -1.0491  0.5629
 1105TIP3    H224731   2.379   6.489  11.437  1.3622  1.7796  0.6578
 1106TIP3   OH224732   2.975   2.569  13.886  0.0597  0.9517 -0.2380
 1106TIP3    H124733   3.031   2.621  13.828  0.1539  2.0758  0.8387
 1106TIP3    H224734   2.923   2.634  13.933  0.6132  0.1111  1.5740
 1107TIP3   OH224735   4.485   6.363   1.336 -0.2880 -0.5296  0.0023
 1107TIP3    H124736   4.430   6.416   1.394  1.4798  0.6257  0.6741
 1107TIP3    H224737   4.452   6.274   1.346 -1.1727 -0.0666  1.3805
 1108TIP3   OH224738   3.839   0.166  15.962 -0.1146 -0.4592 -0.3428
 1108TIP3    H124739   3.805   0.179  15.873  2.5915  1.3226 -1.1515
 1108TIP3    H224740   3.852   0.254  15.996 -0.0088 -1.1343  1.4205
 1109TIP3   OH224741   3.743   0.684   0.225  0.3499 -0.4421 -0.6305
 1109TIP3    H124742   3.658   0.679   0.270  0.1447  0.7075 -0.8672
 1109TIP3    H224743   3.769   0.775   0.234  1.1544 -0.6021 -1.3085
 1110TIP3   OH224744   4.852   4.139  15.447 -0.4134  0.1174  0.1158
 1110TIP3    H124745   4.932   4.131  15.498  0.0812 -2.1351 -0.9513
 1110TIP3    H224746   4.782   4.137  15.512  0.3347  0.8402  0.9549
 1111TIP3   OH224747   0.791   0.973  14.498 -0.2683 -0.4711 -0.5254
 1111TIP3    H124748   0.726   1.002  14.562  0.8758  0.3543  0.2921
 1111TIP3    H224749   0.874   1.005  14.533  0.6018 -1.6848 -1.4541
 1112TIP3   OH224750   1.385   4.548   4.452 -0.2256 -0.1382  0.5476
 1112TIP3    H124751   1.437   4.468   4.452  0.8111  0.5365  0.4859
 1112TIP3    H224752   1.448   4.618   4.467 -0.9835  0.7664 -0.4495
 1113TIP3   OH224753   6.256   1.450  14.306  0.5134  0.0808 -0.9347
 1113TIP3    H124754   6.188   1.499  14.352 -0.1780 -0.5646 -1.2487
 1113TIP3    H224755   6.321   1.516  14.280  1.6432  0.2620  2.1936
 1114TIP3   OH224756   3.226   2.123   0.193 -0.4944  0.1245  0.7640
 1114TIP3    H124757   3.195   2.155   0.278 -1.8555  0.3080  0.2098
 1114TIP3    H224758   3.238   2.029   0.206 -1.7449 -0.0278  0.8618
 1115TIP3   OH224759   0.281   0.357  15.731 -0.3020 -0.3411  0.6816
 1115TIP3    H124760   0.272   0.445  15.767  0.9795  0.1351 -0.1589
 1115TIP3    H224761   0.191   0.331  15.709 -0.7172  0.6156  1.2436
 1116TIP3   OH224762   5.839   3.764   1.968  0.0576  0.1623 -0.1923
 1116TIP3    H124763   5.744   3.764   1.965  0.1037  0.0320 -2.8640
 1116TIP3    H224764   5.865   3.703   1.899  2.0776  0.2299  0.4746
 1117TIP3   OH224765   4.700   0.816   1.588 -0.6855 -1.1028  0.5651
 1117TIP3    H124766   4.723   0.824   1.681  1.3678  0.2892 -0.0392
 1117TIP3    H224767   4.720   0.902   1.551 -3.0562 -1.1266 -0.8693
 1118TIP3   OH224768   3.092   5.974  11.496 -1.1187  0.3918 -0.2293
 1118TIP3    H124769   3.138   6.005  11.418 -0.4067  0.6964  0.3133
 1118TIP3    H224770   3.032   5.906  11.463  1.4092 -1.7173 -0.6043
 1119TIP3   OH224771   4.606   2.576   4.427  0.8999 -0.4518 -0.3339
 1119TIP3    H124772   4.550   2.508   4.465  0.7413  0.4848  1.1581
 1119TIP3    H224773   4.624   2.545   4.339 -0.5590 -1.6170 -0.2543
 1120TIP3   OH224774   5.278   6.698   6.166 -0.3974  0.4246  0.1549
 1120TIP3    H124775   5.348   6.670   6.225 -0.6924 -1.1336 -0.2165
 1120TIP3    H224776   5.221   6.753   6.221 -0.9163 -1.3803  1.4629
 1121TIP3   OH224777   3.721   0.128   5.553  0.0182  0.0794  0.0527
 1121TIP3    H124778   3.663   0.181   5.500  0.5440  0.3849 -0.2254
 1121TIP3    H224779   3.666   0.056   5.585  0.1594 -1.2286 -2.5101
 1122TIP3   OH224780   2.560   4.242   2.247 -0.0336  0.0936  0.5415
 1122TIP3    H124781   2.495   4.218   2.181 -0.4770  1.7565  0.3621
 1122TIP3    H224782   2.556   4.170   2.310  1.2026 -2.1109 -1.7804
 1123TIP3   OH224783   1.024   3.338  12.114  0.1587 -0.1109  0.8435
 1123TIP3    H124784   1.041   3.394  12.190  0.5462  0.2803  0.4729
 1123TIP3    H224785   1.027   3.249  12.149  0.7882  0.0448  1.2078
 1124TIP3   OH224786   2.194   0.960   3.102  0.5187 -0.3746  0.1676
 1124TIP3    H124787   2.247   0.953   3.181  1.1957 -0.5101 -0.3011
 1124TIP3    H224788   2.166   0.870   3.084 -1.9904  0.0335  1.8657
 1125TIP3   OH224789   0.068   0.331   4.204  0.3890  0.1128 -0.6585
 1125TIP3    H124790  -0.004   0.382   4.240  1.4526  0.6854  0.7092
 1125TIP3    H224791   0.043   0.240   4.219  0.3449  0.3274  0.5988
 1126TIP3   OH224792   0.288   4.192  13.228 -0.2087 -0.1679  0.5021
 1126TIP3    H124793   0.273   4.112  13.278  0.3676  0.1965  1.2746
 1126TIP3    H224794   0.201   4.230  13.218 -0.1207  0.8027  3.0300
 1127TIP3   OH224795   5.946   2.727   3.509  0.3679  0.2704  0.2224
 1127TIP3    H124796   5.873   2.695   3.562  0.0105 -0.6795 -0.8045
 1127TIP3    H224797   5.972   2.809   3.550  0.3996 -0.6527  2.1357
 1128TIP3   OH224798   1.824   2.564   4.684 -0.3276 -0.0745 -0.4010
 1128TIP3    H124799   1.804   2.519   4.766  1.1491  0.4349  0.2703
 1128TIP3    H224800   1.823   2.657   4.708 -0.8943  0.1219 -1.1941
 1129TIP3   OH224801   1.957   4.069  10.377  0.7816 -0.4802  0.7208
 1129TIP3    H124802   1.921   4.123  10.447 -0.1791 -1.6715  1.1567
 1129TIP3    H224803   1.887   4.007  10.357  1.2062 -0.4320 -0.9942
 1130TIP3   OH224804   3.936   1.740  11.503  0.0518  0.7392 -0.1543
 1130TIP3    H124805   3.874   1.754  11.575  1.4002  1.4193  0.9092
 1130TIP3    H224806   3.922   1.649  11.477 -1.5655  0.9640 -0.1118
 1131TIP3   OH224807   2.495   3.059  10.345  0.2117 -0.6222 -0.0614
 1131TIP3    H124808   2.585   3.056  10.314  0.5774  2.7059  0.4835
 1131TIP3    H224809   2.502   3.045  10.440  0.1081 -0.8679 -0.0906
 1132TIP3   OH224810   3.482   5.902   2.937  0.3618  0.5868  0.3255
 1132TIP3    H124811   3.562   5.954   2.932  1.4636 -0.8725  2.2178
 1132TIP3    H224812   3.461   5.899   3.030 -1.0593 -0.3123 -0.0020
 1133TIP3   OH224813   5.761   6.246   0.409 -0.3040  0.5410  0.0125
 1133TIP3    H124814   5.819   6.319   0.390  0.2569  0.1845  0.3105
 1133TIP3    H224815   5.733   6.213   0.324  0.0250  0.6476 -0.1353
 1134TIP3   OH224816   6.506   0.846   3.938 -0.8534 -0.3181  0.6136
 1134TIP3    H124817   6.425   0.877   3.897 -0.7964  0.8824  1.4016
 1134TIP3    H224818   6.564   0.828   3.864 -1.1983  0.5880  0.1101
 1135TIP3   OH224819   3.607   6.480  16.335  0.6465 -0.3156  0.1956
 1135TIP3    H124820   3.678   6.475  16.400 -0.0883 -1.9346  0.8993
 1135TIP3    H224821   3.528   6.490  16.386  0.1392 -0.7766 -0.4852
 1136TIP3   OH224822   4.844   1.726   4.727  0.8131 -0.9358 -0.7843
 1136TIP3    H124823   4.930   1.684   4.734  1.7519  1.1756  1.0212
 1136TIP3    H224824   4.828   1.760   4.815 -1.7075 -0.9533 -1.2155
 1137TIP3   OH224825   0.475   4.423  14.647  0.3164  0.2787  0.2604
 1137TIP3    H124826   0.448   4.400  14.736 -0.5304 -0.3803 -0.1586
 1137TIP3    H224827   0.394   4.425  14.597  0.6419  2.0105 -0.2125
 1138TIP3   OH224828   3.642   2.755  13.413  0.1220  0.0669  0.4423
 1138TIP3    H124829   3.566   2.714  13.371 -0.3826  1.2898  0.1308
 1138TIP3    H224830   3.700   2.682  13.434 -1.0761 -0.8764  0.5659
 1139TIP3   OH224831   3.560   1.193   4.928 -0.1240  0.2003  0.2746
 1139TIP3    H124832   3.553   1.133   5.002 -0.8953  0.3804  0.3475
 1139TIP3    H224833   3.526   1.276   4.961  1.6268  0.8904  0.4007
 1140TIP3   OH224834   4.159   2.249  15.113  0.1284  0.4089 -0.4688
 1140TIP3    H124835   4.102   2.325  15.119 -0.1778 -0.0380  2.8814
 1140TIP3    H224836   4.227   2.264  15.178 -0.1522 -2.3103  0.5351
 1141TIP3   OH224837   1.292   5.661  17.069  0.0436 -0.7325 -0.1874
 1141TIP3    H124838   1.356   5.640  17.000  0.2887  0.3619 -0.3171
 1141TIP3    H224839   1.307   5.755  17.086 -1.7927 -0.3794 -0.4820
 1142TIP3   OH224840   3.660   6.062   0.896  0.5178 -0.4105 -0.0313
 1142TIP3    H124841   3.656   5.973   0.860  0.6177 -0.5036  0.1840
 1142TIP3    H224842   3.752   6.072   0.922  0.2945 -0.6032  0.8534
 1143TIP3   OH224843   0.569   6.357  11.316  0.8083  0.0576  0.1944
 1143TIP3    H124844   0.486   6.405  11.315  1.0781  0.5538  0.8968
 1143TIP3    H224845   0.592   6.347  11.224 -0.2079 -0.3964 -0.0236
 1144TIP3   OH224846   5.259   5.446  12.934 -0.2664 -0.1607  0.0035
 1144TIP3    H124847   5.309   5.523  12.908 -0.3852  1.0093  2.9623
 1144TIP3    H224848   5.208   5.422  12.857 -0.7365  3.1526 -0.7884
 1145TIP3   OH224849   5.233   3.265   1.873 -0.3363  0.8653  0.1545
 1145TIP3    H124850   5.324   3.245   1.851 -0.8604 -0.1372 -1.1673
 1145TIP3    H224851   5.233   3.358   1.893  1.0109  0.8343  0.3374
 1146TIP3   OH224852   2.675   2.353  15.966 -0.0604  0.7822  0.1045
 1146TIP3    H124853   2.701   2.404  15.890 -0.9492  2.5071  0.9370
 1146TIP3    H224854   2.723   2.391  16.039  0.4649 -0.5856  0.4802
 1147TIP3   OH224855   6.019   6.154   1.278  0.0004  0.0622  0.9894
 1147TIP3    H124856   6.035   6.233   1.330  0.9516 -0.4487  1.4829
 1147TIP3    H224857   6.038   6.181   1.188  0.5066  0.3500  1.1766
 1148TIP3   OH224858   3.420   3.961   3.936  0.0436  0.0283 -0.1408
 1148TIP3    H124859   3.338   3.911   3.940 -0.5820  1.0766  0.2382
 1148TIP3    H224860   3.393   4.052   3.945  1.3953  0.2883  1.3679
 1149TIP3   OH224861   2.091   1.838  16.796 -0.2979 -0.0427  0.3792
 1149TIP3    H124862   2.001   1.833  16.764  0.4360  0.2332 -1.7959
 1149TIP3    H224863   2.110   1.932  16.803  0.0609 -0.0942  0.1328
 1150TIP3   OH224864   2.676   1.017   0.319  0.0811 -0.2303  0.1597
 1150TIP3    H124865   2.603   1.051   0.371  0.5159 -0.3930  0.8921
 1150TIP3    H224866   2.694   1.086   0.255 -0.7144 -0.1932 -0.0303
 1151TIP3   OH224867   1.193   1.032  17.074  0.2687 -0.2000 -0.0095
 1151TIP3    H124868   1.253   1.065  17.008  0.1931  0.1216  0.0820
 1151TIP3    H224869   1.156   1.111  17.115  0.4039 -0.3948  0.4936
 1152TIP3   OH224870   3.405   0.005  16.331  0.7301  0.1311 -0.3871
 1152TIP3    H124871   3.382  -0.080  16.294  0.6718 -0.1773  0.3594
 1152TIP3    H224872   3.322   0.054  16.329  0.5973 -0.0838 -0.1227
 1153TIP3   OH224873   6.202   4.320  11.192  0.2566 -0.2284 -0.0272
 1153TIP3    H124874   6.122   4.356  11.229  0.8427  0.2980  0.7535
 1153TIP3    H224875   6.263   4.393  11.190  0.7141 -0.6118 -0.6609
 1154TIP3   OH224876   3.387   5.992   1.467 -0.0386  0.2714 -0.3150
 1154TIP3    H124877   3.406   5.941   1.546 -0.1256  0.7428  0.0147
 1154TIP3    H224878   3.330   6.063   1.498 -1.7818 -0.7234 -1.1524
 1155TIP3   OH224879   4.638   3.231   5.277  0.2964  0.3245  0.9100
 1155TIP3    H124880   4.660   3.161   5.216  0.9221 -0.4962  2.0529
 1155TIP3    H224881   4.547   3.254   5.256  0.5908  0.2380 -0.4884
 1156TIP3   OH224882   5.502   3.207   4.536  0.2259 -0.5027  0.3842
 1156TIP3    H124883   5.577   3.204   4.595  0.5270  0.1242  0.0270
 1156TIP3    H224884   5.535   3.179   4.451 -0.2094 -1.4002  0.5015
 1157TIP3   OH224885   5.800   3.182  13.661 -0.4411  0.9785 -0.3785
 1157TIP3    H124886   5.790   3.184  13.756 -2.5223 -0.5203 -0.5407
 1157TIP3    H224887   5.736   3.117  13.631  1.1753  0.3911 -2.6853
 1158TIP3   OH224888   0.687   0.055  17.004 -0.0592  0.1626 -0.0454
 1158TIP3    H124889   0.718   0.123  17.064 -0.3000  0.4811 -0.2828
 1158TIP3    H224890   0.763  -0.001  16.991  0.0528  0.2070  0.3971
 1159TIP3   OH224891   3.941   2.301   1.957  0.0442 -0.2401  0.1703
 1159TIP3    H124892   3.884   2.372   1.930  1.6756  1.1225  0.2284
 1159TIP3    H224893   3.988   2.276   1.877 -0.9792 -1.7049  0.0052
 1160TIP3   OH224894   4.022   4.330   3.379 -0.3851 -0.0276  0.4845
 1160TIP3    H124895   4.051   4.421   3.372  1.1711 -0.5604 -0.2772
 1160TIP3    H224896   4.061   4.298   3.460 -0.4777 -0.1691  0.4735
 1161TIP3   OH224897   0.647   5.419  15.363  0.0269  0.3541  0.1252
 1161TIP3    H124898   0.662   5.492  15.423 -0.2916 -0.1462  0.8245
 1161TIP3    H224899   0.719   5.358  15.381  1.2323  1.2213 -1.6135
 1162TIP3   OH224900   5.270   5.245   5.335 -0.0141  0.3596  0.1755
 1162TIP3    H124901   5.319   5.232   5.416 -0.9283  0.5138  0.7672
 1162TIP3    H224902   5.178   5.245   5.363 -0.4765 -1.9861 -1.1659
 1163TIP3   OH224903   3.023   0.080  16.626  0.3124 -0.1438  0.6111
 1163TIP3    H124904   2.936   0.049  16.652  1.1090 -1.6727  1.5719
 1163TIP3    H224905   3.009   0.171  16.600 -1.5106 -0.2522  1.1045
 1164TIP3   OH224906   4.444   2.022   5.573 -0.3860  0.2045 -0.2359
 1164TIP3    H124907   4.435   2.111   5.608  0.4022  0.2062 -0.0327
 1164TIP3    H224908   4.489   2.033   5.489 -2.8945  0.2706 -1.6369
 1165TIP3   OH224909   3.564   5.182  10.933  0.2160  0.5410  0.2357
 1165TIP3    H124910   3.529   5.271  10.933 -0.3938  0.3108  0.0167
 1165TIP3    H224911   3.529   5.143  11.014 -1.8935 -0.3858 -1.0826
 1166TIP3   OH224912   6.086   3.273   1.873  0.4439 -0.0824  0.3634
 1166TIP3    H124913   6.016   3.245   1.814  0.2050  1.1577  0.0449
 1166TIP3    H224914   6.066   3.232   1.957  0.1598 -0.9379 -0.1172
 1167TIP3   OH224915   5.663   1.855  14.244 -0.1768 -0.0156  0.4824
 1167TIP3    H124916   5.753   1.825  14.233 -0.2638 -0.4804  1.0207
 1167TIP3    H224917   5.609   1.782  14.215 -0.4000  1.6192 -3.4558
 1168TIP3   OH224918   6.155   6.448   3.510 -0.0432 -0.8973 -0.1607
 1168TIP3    H124919   6.169   6.354   3.502 -1.3293 -1.3732  2.5955
 1168TIP3    H224920   6.094   6.457   3.584 -0.9524  2.0132 -1.1874
 1169TIP3   OH224921   5.545   0.813  15.267  0.5025  0.6933 -0.3651
 1169TIP3    H124922   5.508   0.745  15.210  0.3243  0.6321 -0.1737
 1169TIP3    H224923   5.472   0.843  15.320  0.6475  0.8304 -0.2439
 1170TIP3   OH224924   4.615   5.655  11.230  0.6903 -0.6217  1.0117
 1170TIP3    H124925   4.582   5.711  11.161 -1.0340 -1.9607  0.7101
 1170TIP3    H224926   4.543   5.595  11.249  1.7601 -1.4153  2.7373
 1171TIP3   OH224927   1.490   0.077   5.835  0.3784  0.0062 -0.1718
 1171TIP3    H124928   1.454   0.100   5.920 -1.4065 -0.3825 -0.7968
 1171TIP3    H224929   1.585   0.069   5.850  0.1798  0.6893  1.5833
 1172TIP3   OH224930   2.346   1.492   5.636  0.0884 -0.2489 -0.1516
 1172TIP3    H124931   2.390   1.574   5.659 -0.4888  0.4686 -1.5862
 1172TIP3    H224932   2.271   1.488   5.696 -1.1231  1.3639 -1.5341
 1173TIP3   OH224933   0.846   2.229   3.034  0.4721  0.7827 -0.0156
 1173TIP3    H124934   0.793   2.204   3.111 -0.6725  1.8979 -0.4168
 1173TIP3    H224935   0.889   2.310   3.061  1.2343  0.3764 -0.0260
 1174TIP3   OH224936   5.794   6.370  13.976 -0.0006  0.2777  0.2765
 1174TIP3    H124937   5.793   6.314  13.898  0.3695  1.4106 -0.5664
 1174TIP3    H224938   5.880   6.414  13.973 -0.1961  0.7283  1.0309
 1175TIP3   OH224939   2.550   2.711  12.785 -0.2891  0.0671  0.5686
 1175TIP3    H124940   2.568   2.693  12.877 -0.6266 -0.2006  0.5848
 1175TIP3    H224941   2.484   2.646  12.760 -0.0858  0.0328  0.0946
 1176TIP3   OH224942   6.724   0.003  11.001  0.4187 -0.0008  0.3310
 1176TIP3    H124943   6.665   0.017  11.075 -0.4610  0.3561 -0.4207
 1176TIP3    H224944   6.683  -0.068  10.951  2.3437 -2.0411  1.5403
 1177TIP3   OH224945   4.861   5.158  15.728 -0.0912 -0.7663 -0.4875
 1177TIP3    H124946   4.801   5.231  15.746  1.2452  0.3961 -0.6989
 1177TIP3    H224947   4.827   5.119  15.648 -0.9583 -0.5339 -0.2424
 1178TIP3   OH224948   2.213   4.570   2.885 -0.4405  0.0542 -0.1458
 1178TIP3    H124949   2.259   4.499   2.842 -1.0834 -0.4688  0.0156
 1178TIP3    H224950   2.154   4.605   2.817 -0.3354  0.2441 -0.1404
 1179TIP3   OH224951   5.867   2.939  13.095 -0.2748  0.2847  0.2893
 1179TIP3    H124952   5.862   2.897  13.008 -0.5381 -0.8380  0.8363
 1179TIP3    H224953   5.904   3.025  13.077 -1.4231  0.5175 -1.0963
 1180TIP3   OH224954   5.578   2.272  16.803 -0.7079 -0.5437  0.1761
 1180TIP3    H124955   5.617   2.351  16.765 -1.6872 -0.1586 -0.0430
 1180TIP3    H224956   5.484   2.283  16.791 -0.9044 -1.3739  0.8777
 1181TIP3   OH224957   5.145   5.394  12.686 -0.4252 -0.2067  0.4647
 1181TIP3    H124958   5.162   5.461  12.620  2.6296  0.0758  1.4440
 1181TIP3    H224959   5.158   5.311  12.641  0.9832 -0.0249  0.5101
 1182TIP3   OH224960   5.585   4.791   2.602 -0.2434 -0.0049  0.1558
 1182TIP3    H124961   5.588   4.863   2.664 -1.2485 -0.6085  0.9306
 1182TIP3    H224962   5.600   4.713   2.655  1.2502 -0.3531 -0.7352
 1183TIP3   OH224963   3.706   1.533  13.211 -0.2633 -0.8240  0.2754
 1183TIP3    H124964   3.768   1.488  13.153 -2.0947  1.0227 -3.2409
 1183TIP3    H224965   3.620   1.499  13.186 -0.9429 -1.8723  3.7315
 1184TIP3   OH224966   2.641   0.976   2.383 -0.4669 -0.1011 -0.0398
 1184TIP3    H124967   2.563   1.021   2.350 -0.5901 -0.3472 -0.0813
 1184TIP3    H224968   2.640   0.890   2.341  0.0289  0.0308 -0.3287
 1185TIP3   OH224969   3.888   4.668  14.599  1.0973  0.0348 -0.5926
 1185TIP3    H124970   3.825   4.738  14.582 -0.4283 -1.1602  0.0500
 1185TIP3    H224971   3.885   4.656  14.694  1.3690 -0.8816 -0.6984
 1186TIP3   OH224972   5.517   2.147  14.035  0.0388 -0.7516 -0.2846
 1186TIP3    H124973   5.522   2.151  14.131  2.0353  1.2474 -0.4202
 1186TIP3    H224974   5.595   2.096  14.010  0.8052  0.6954 -0.9206
 1187TIP3   OH224975   5.033   6.623   5.498  0.0332 -0.6850 -0.1590
 1187TIP3    H124976   5.014   6.675   5.420 -0.8694 -3.2553 -1.6970
 1187TIP3    H224977   4.947   6.591   5.528  0.6633 -2.1646  0.1246
 1188TIP3   OH224978   4.905   1.775  13.558  0.1103  0.1309  0.1688
 1188TIP3    H124979   4.884   1.759  13.466  0.6864  2.5639 -0.4391
 1188TIP3    H224980   4.970   1.845  13.555 -0.9703  1.2875  2.4625
 1189TIP3   OH224981   2.788   5.758   2.869 -0.0199  0.2579 -0.1080
 1189TIP3    H124982   2.835   5.765   2.953 -0.4644  0.3657  0.1346
 1189TIP3    H224983   2.772   5.848   2.843 -2.2598  0.2350  1.0449
 1190TIP3   OH224984   2.950   1.849   1.231  0.3735 -0.1776  0.0845
 1190TIP3    H124985   2.929   1.882   1.318 -3.0859 -0.3881 -0.5945
 1190TIP3    H224986   2.945   1.927   1.175  0.2174 -0.4643 -0.2958
 1191TIP3   OH224987   2.915   3.460  16.010 -0.1985 -0.0602 -0.5190
 1191TIP3    H124988   2.977   3.526  16.041  0.0170 -0.0987 -0.8659
 1191TIP3    H224989   2.832   3.507  16.003  0.0082  0.2421 -1.0061
 1192TIP3   OH224990   2.018   4.131   5.511 -0.4442 -0.0148  0.2511
 1192TIP3    H124991   1.941   4.175   5.548 -0.3312 -0.5617  1.1675
 1192TIP3    H224992   2.040   4.182   5.433 -1.8299  0.0455 -0.1145
 1193TIP3   OH224993   4.491   6.690   1.394  0.1464 -0.1671 -0.2646
 1193TIP3    H124994   4.577   6.725   1.418  0.8700 -1.1588 -1.3523
 1193TIP3    H224995   4.450   6.762   1.346  0.4806  0.2132  0.0099
 1194TIP3   OH224996   4.228   2.752   3.101  0.1871 -0.1054 -0.8239
 1194TIP3    H124997   4.183   2.809   3.164 -0.8950 -0.2315 -1.4566
 1194TIP3    H224998   4.299   2.805   3.067  0.8207 -0.0474  0.5272
 1195TIP3   OH224999   0.593   1.269  12.956 -0.6507 -0.2666 -0.0075
 1195TIP3    H125000   0.609   1.350  13.006 -0.2984 -0.0446 -0.4759
 1195TIP3    H225001   0.585   1.201  13.023 -1.8877  0.3011  0.4451
 1196TIP3   OH225002   4.428   4.911  14.039 -0.4140  0.3719 -0.3667
 1196TIP3    H125003   4.376   4.847  14.087  0.5727 -0.8846 -0.9595
 1196TIP3    H225004   4.369   4.943  13.970 -0.6918 -0.3799 -0.4769
 1197TIP3   OH225005   0.782   0.028  12.839 -0.0064 -0.2728 -0.1114
 1197TIP3    H125006   0.861   0.055  12.886 -0.2786 -1.1359  0.8503
 1197TIP3    H225007   0.716   0.016  12.907 -0.7940 -0.1954 -0.8493
 1198TIP3   OH225008   3.873   4.453  10.650 -0.1268  0.2952  0.7733
 1198TIP3    H125009   3.828   4.384  10.699 -0.5913  0.7202  0.9538
 1198TIP3    H225010   3.878   4.420  10.560 -3.2846  1.3854  0.1174
 1199TIP3   OH225011   4.781   6.468   0.098  0.3448  0.4230 -0.2255
 1199TIP3    H125012   4.784   6.557   0.133  0.9901  0.2872  0.0714
 1199TIP3    H225013   4.694   6.435   0.124  1.3623 -0.2082  2.6338
 1200TIP3   OH225014   5.262   1.985  16.932  0.0090  0.2943 -0.1889
 1200TIP3    H125015   5.188   2.035  16.967 -0.4625 -0.3817 -0.2199
 1200TIP3    H225016   5.306   1.951  17.010 -0.7096 -0.7339 -0.2267
 1201TIP3   OH225017   1.877   0.716  16.746  0.7917 -0.1351  0.2841
 1201TIP3    H125018   1.874   0.681  16.835  0.7992  0.5739  0.5668
 1201TIP3    H225019   1.842   0.805  16.754 -1.4024 -0.8533 -0.8070
 1202TIP3   OH225020   2.615   1.765  12.553  0.3405  0.3604 -0.3735
 1202TIP3    H125021   2.553   1.741  12.621  4.0294 -0.2405  2.9720
 1202TIP3    H225022   2.641   1.682  12.513  2.4474  0.1019  1.4622
 1203TIP3   OH225023   4.471   5.648  10.761  0.0558 -0.3148 -0.5558
 1203TIP3    H125024   4.405   5.596  10.715  1.5923 -1.8039 -1.1591
 1203TIP3    H225025   4.517   5.695  10.691  0.4641 -0.2901 -0.2711
 1204TIP3   OH225026   6.125   5.457  14.575 -0.5297  0.8746  0.3811
 1204TIP3    H125027   6.151   5.505  14.653  1.6695  2.9185 -1.5277
 1204TIP3    H225028   6.071   5.518  14.525  0.8478  0.8079 -1.2441
 1205TIP3   OH225029   6.765   4.312  15.225  0.3050  0.1175  0.1458
 1205TIP3    H125030   6.712   4.311  15.304 -0.5605 -1.0606 -0.4252
 1205TIP3    H225031   6.855   4.312  15.257 -0.0345 -0.6261  1.1371
 1206TIP3   OH225032   3.300   1.394  16.184 -0.0097  0.0413  0.0793
 1206TIP3    H125033   3.287   1.420  16.093  1.8946  0.8816  0.0017
 1206TIP3    H225034   3.250   1.458  16.234  0.7755  0.9967 -0.3151
 1207TIP3   OH225035   0.813   6.554   3.619  0.2157 -0.0141 -0.0314
 1207TIP3    H125036   0.807   6.554   3.524 -1.5758  0.2494  0.0706
 1207TIP3    H225037   0.854   6.470   3.641  2.0021  0.5636 -1.0936
 1208TIP3   OH225038   3.605   4.425   3.016 -0.2915  0.4346 -0.8160
 1208TIP3    H125039   3.626   4.332   3.027  1.3726  0.9716  0.7318
 1208TIP3    H225040   3.536   4.441   3.080 -0.4793  0.3111 -0.9854
 1209TIP3   OH225041   2.110   6.647  13.528  0.2381  0.1328 -0.4693
 1209TIP3    H125042   2.050   6.685  13.593  1.3052 -0.0514  0.6404
 1209TIP3    H225043   2.053   6.601  13.467 -0.9301  1.7743 -0.6665
 1210TIP3   OH225044   3.694   4.782  17.124  0.0020  0.3034  0.2532
 1210TIP3    H125045   3.780   4.819  17.143 -0.4690  1.5380  0.0434
 1210TIP3    H225046   3.697   4.761  17.031  0.1525  0.1418  0.2957
 1211TIP3   OH225047   4.998   3.623  15.198 -0.4252  0.1705 -0.2363
 1211TIP3    H125048   4.915   3.666  15.217 -0.3117  0.3085 -0.0634
 1211TIP3    H225049   4.973   3.545  15.147 -0.6574  0.2227 -0.2020
 1212TIP3   OH225050   0.202   2.306   5.421  0.6670  0.3152 -0.3235
 1212TIP3    H125051   0.285   2.343   5.449  2.0560 -1.8726 -1.3814
 1212TIP3    H225052   0.210   2.212   5.442 -2.5289  0.4608  1.8781
 1213TIP3   OH225053   5.187   3.407   2.853  0.0778  0.0434  0.1039
 1213TIP3    H125054   5.136   3.364   2.921 -0.0877 -0.9583 -0.6508
 1213TIP3    H225055   5.227   3.482   2.897 -0.3981 -0.3331  1.1881
 1214TIP3   OH225056   5.977   4.369  11.333 -0.4159 -0.3675 -0.2028
 1214TIP3    H125057   6.016   4.391  11.418 -1.1135  0.7628 -0.1658
 1214TIP3    H225058   5.902   4.313  11.355  0.5500 -1.6911 -0.2082
 1215TIP3   OH225059   3.291   1.720  15.461  0.2338  0.6363 -0.7656
 1215TIP3    H125060   3.280   1.726  15.556 -0.7724  1.7310 -0.9257
 1215TIP3    H225061   3.325   1.632  15.446  1.4687  0.8380  0.6976
 1216TIP3   OH225062   0.268   0.227   2.609 -0.0759  0.0841  0.1120
 1216TIP3    H125063   0.318   0.201   2.532 -2.1862 -1.4960 -0.7927
 1216TIP3    H225064   0.202   0.288   2.575 -1.6898 -1.4349  0.4304
 1217TIP3   OH225065   4.127   1.970  11.749 -0.1871 -0.2719  0.2436
 1217TIP3    H125066   4.169   2.052  11.774 -2.0274  0.3555  1.4187
 1217TIP3    H225067   4.200   1.909  11.734  1.1381  0.5709  2.9187
 1218TIP3   OH225068   6.648   1.107   4.741  0.5426 -0.0157  0.1273
 1218TIP3    H125069   6.637   1.161   4.820 -0.5491  1.7383 -1.1787
 1218TIP3    H225070   6.604   1.025   4.762 -0.0089  0.5450  1.2438
 1219TIP3   OH225071   3.414   6.731   6.392 -0.3677  0.8946 -0.8206
 1219TIP3    H125072   3.341   6.692   6.345 -0.8450  1.0857 -0.2495
 1219TIP3    H225073   3.438   6.666   6.458  0.3714  0.5805 -1.3816
 1220TIP3   OH225074   3.927   4.537   5.636 -0.6364  0.1379 -0.3487
 1220TIP3    H125075   3.882   4.479   5.576 -1.0418  0.1698 -0.0769
 1220TIP3    H225076   3.874   4.536   5.716 -0.5465  0.7348 -0.2766
 1221TIP3   OH225077   0.989   0.882   0.965  0.7160 -0.0289 -0.2450
 1221TIP3    H125078   0.904   0.913   0.995  0.5379  0.1187 -0.9026
 1221TIP3    H225079   1.043   0.960   0.959  0.2022  0.1868 -2.1138
 1222TIP3   OH225080   2.706   2.997  15.060  0.2662 -0.4372 -0.1290
 1222TIP3    H125081   2.664   3.021  15.143 -0.1503 -0.6605 -0.2769
 1222TIP3    H225082   2.736   3.080  15.023  0.9536 -0.3930  0.5159
 1223TIP3   OH225083   6.707   2.748   0.323 -0.5640 -0.0760  0.2519
 1223TIP3    H125084   6.684   2.814   0.388  0.8020  0.6959 -0.0374
 1223TIP3    H225085   6.673   2.666   0.359 -2.2353  0.7663  0.6262
 1224TIP3   OH225086   3.235   5.501  16.640  0.2399 -0.1297  0.1450
 1224TIP3    H125087   3.302   5.569  16.652  0.9710 -0.4181 -2.1325
 1224TIP3    H225088   3.267   5.427  16.692 -0.7729  1.3620  2.9987
 1225TIP3   OH225089   4.779   5.338  11.216 -0.4999 -0.2873  0.6528
 1225TIP3    H125090   4.762   5.244  11.223 -2.3414  0.1433  2.1569
 1225TIP3    H225091   4.815   5.362  11.301  1.0585  0.1813 -0.1175
 1226TIP3   OH225092   6.591   3.272  15.769 -0.2261 -0.1600  0.3408
 1226TIP3    H125093   6.579   3.343  15.707  2.3030  0.2274  0.2440
 1226TIP3    H225094   6.647   3.209  15.724 -0.2426 -0.9526  1.3932
 1227TIP3   OH225095   5.448   4.780  12.053 -0.0470  0.3942  0.2535
 1227TIP3    H125096   5.412   4.714  12.112 -2.4437 -1.7685 -3.3924
 1227TIP3    H225097   5.501   4.729  11.991 -0.3729  2.1495 -1.4948
 1228TIP3   OH225098   0.474   4.873   5.151  0.3730 -0.2843  0.7045
 1228TIP3    H125099   0.469   4.802   5.215  1.6286  0.0977  1.2403
 1228TIP3    H225100   0.521   4.836   5.077  0.1207 -0.3122  0.5559
 1229TIP3   OH225101   0.316   4.588   5.934 -0.3240 -0.5277  0.6011
 1229TIP3    H125102   0.350   4.655   5.992 -1.6978  1.3140 -0.6787
 1229TIP3    H225103   0.250   4.632   5.880 -0.7260 -2.6991 -0.7979
 1230TIP3   OH225104   5.561   6.665   3.633  0.2165  0.5967  0.2748
 1230TIP3    H125105   5.632   6.671   3.569  0.9224  0.4794  1.0395
 1230TIP3    H225106   5.557   6.573   3.657 -0.6350  0.4930 -0.2555
 1231TIP3   OH225107   4.161   0.440   5.425 -0.1819  0.3161 -0.1515
 1231TIP3    H125108   4.071   0.446   5.457 -0.3601 -1.1787 -0.3386
 1231TIP3    H225109   4.212   0.494   5.487 -0.8963 -0.5067  1.1732
 1232TIP3   OH225110   4.688   4.527  10.842 -0.2949  0.1878  0.6531
 1232TIP3    H125111   4.723   4.473  10.913  0.9365  0.8024  0.5376
 1232TIP3    H225112   4.671   4.464  10.771 -0.3933 -0.2664  1.0798
 1233TIP3   OH225113   1.188   5.018   2.948  0.1366 -0.0095  0.0561
 1233TIP3    H125114   1.233   5.060   2.874  0.0252 -0.9021 -0.5284
 1233TIP3    H225115   1.154   4.936   2.912 -1.7567  0.5308  0.5556
 1234TIP3   OH225116   6.718   6.597   6.287 -0.1500  0.3743 -0.0987
 1234TIP3    H125117   6.678   6.510   6.288  0.3405  0.1218 -1.5164
 1234TIP3    H225118   6.798   6.587   6.340 -1.2042  0.5286  1.5682
 1235TIP3   OH225119   2.930   1.318   3.952  0.3046  0.4869  0.0357
 1235TIP3    H125120   2.871   1.337   3.879  0.3902  0.0754 -0.1400
 1235TIP3    H225121   2.900   1.234   3.986  2.2858 -0.9161 -1.5641
 1236TIP3   OH225122   5.821   2.057  14.015 -0.0971  0.0040  0.4861
 1236TIP3    H125123   5.840   2.013  14.098 -1.3724 -0.0692  0.7544
 1236TIP3    H225124   5.790   2.144  14.040 -0.0623  0.1359  0.0688
 1237TIP3   OH225125   2.940   5.616   0.238 -0.5816 -0.6276 -0.1820
 1237TIP3    H125126   3.018   5.560   0.232 -0.9160 -1.1374  0.1380
 1237TIP3    H225127   2.966   5.699   0.199 -0.0640 -1.0017 -0.6293
 1238TIP3   OH225128   1.141   4.425  12.413  0.0287  0.2921 -0.0160
 1238TIP3    H125129   1.101   4.349  12.455 -1.1932  1.0572  0.2453
 1238TIP3    H225130   1.233   4.401  12.400 -0.5981 -1.6845 -1.0312
 1239TIP3   OH225131   1.154   4.972  16.146 -0.6801  0.0500 -0.1603
 1239TIP3    H125132   1.179   4.880  16.143  2.0361  0.6229  2.2298
 1239TIP3    H225133   1.213   5.011  16.210 -2.7520  3.1746 -0.0074
 1240TIP3   OH225134   5.254   0.187  14.945  0.2341 -0.3608  0.3742
 1240TIP3    H125135   5.198   0.260  14.970  0.7612 -0.2680  1.3264
 1240TIP3    H225136   5.277   0.145  15.028  0.9809 -0.8344 -0.0596
 1241TIP3   OH225137   3.171   6.665  14.865 -0.3641 -0.0474  0.3591
 1241TIP3    H125138   3.123   6.592  14.905  0.9832 -0.5917  0.9917
 1241TIP3    H225139   3.263   6.643  14.877  0.0572  0.8304 -1.1613
 1242TIP3   OH225140   4.649   3.215   5.747  0.2563  0.0668 -0.2308
 1242TIP3    H125141   4.622   3.157   5.676 -0.1837 -1.7163  1.3479
 1242TIP3    H225142   4.696   3.158   5.808 -0.6415  1.2607  1.6123
 1243TIP3   OH225143   0.153   1.603   0.796 -0.4010  0.3838 -0.0988
 1243TIP3    H125144   0.114   1.583   0.711 -1.0145 -0.0357  0.2751
 1243TIP3    H225145   0.190   1.520   0.825 -2.4809 -0.1340  1.2131
 1244TIP3   OH225146   2.030   4.552  14.177 -0.0557 -0.3481  0.5566
 1244TIP3    H125147   2.026   4.612  14.102 -0.5856 -1.9209 -0.6872
 1244TIP3    H225148   1.940   4.550  14.210 -0.2712 -1.2702 -0.0652
 1245TIP3   OH225149   4.545   0.272  14.765  0.1323 -0.7112 -0.5351
 1245TIP3    H125150   4.461   0.236  14.792 -0.6967  0.2792 -1.7455
 1245TIP3    H225151   4.564   0.339  14.830 -0.4979 -0.2508 -0.8251
 1246TIP3   OH225152   0.455   6.307   1.174  0.2193  0.1778 -0.4042
 1246TIP3    H125153   0.545   6.297   1.205  0.4477  1.4275 -0.6441
 1246TIP3    H225154   0.464   6.342   1.086 -0.5047 -0.1014 -0.5928
 1247TIP3   OH225155   4.557   4.003  10.896  0.2223 -0.3443  0.8207
 1247TIP3    H125156   4.501   4.070  10.856 -0.0419  0.4659  2.4661
 1247TIP3    H225157   4.640   4.010  10.851 -0.9613 -1.5037 -1.6191
 1248TIP3   OH225158   4.372   3.271  11.474 -0.0761  0.3563  0.2484
 1248TIP3    H125159   4.397   3.180  11.487 -1.8120 -0.3371 -1.0321
 1248TIP3    H225160   4.418   3.297  11.394 -0.1873  0.3472  0.1802
 1249TIP3   OH225161   5.642   5.226   3.666  0.0245  0.1498  0.0358
 1249TIP3    H125162   5.585   5.301   3.651  1.6749  1.7650  1.6174
 1249TIP3    H225163   5.666   5.231   3.758  0.2805 -2.2437  0.1273
 1250TIP3   OH225164   1.151   5.161   0.947  0.2474  0.1280  0.0961
 1250TIP3    H125165   1.098   5.117   1.014  1.2685  0.5694  1.2187
 1250TIP3    H225166   1.091   5.173   0.873 -0.5330 -1.5451  0.4310
 1251TIP3   OH225167   4.349   6.365   1.939  0.3539  0.3408 -0.0282
 1251TIP3    H125168   4.441   6.378   1.915  0.5751  0.1777  0.7185
 1251TIP3    H225169   4.320   6.450   1.972  0.3590  0.2754  0.1448
 1252TIP3   OH225170   3.939   3.942   2.788  0.0891  0.2761 -0.3345
 1252TIP3    H125171   3.893   3.945   2.704 -1.4938 -1.8424  0.4142
 1252TIP3    H225172   3.872   3.964   2.853  1.1747  1.3823  0.4300
 1253TIP3   OH225173   0.499   0.607   0.214  0.2372  0.0932 -0.2448
 1253TIP3    H125174   0.577   0.551   0.214 -0.9635 -1.6235  0.7117
 1253TIP3    H225175   0.457   0.589   0.129 -1.2576 -2.1053  0.9087
 1254TIP3   OH225176   3.076   3.828   2.836  0.0136 -0.3663  0.5224
 1254TIP3    H125177   3.005   3.821   2.772  0.0915 -2.0633  0.6028
 1254TIP3    H225178   3.032   3.823   2.921  0.1509 -0.4710  0.5854
 1255TIP3   OH225179   3.349   2.538  16.209  0.1225 -0.0967  0.2723
 1255TIP3    H125180   3.373   2.509  16.297 -1.6707 -0.8447  0.5369
 1255TIP3    H225181   3.322   2.629  16.221  2.0670  0.5378  0.0851
 1256TIP3   OH225182   2.434   1.719   2.009 -0.2300  0.1604  0.3479
 1256TIP3    H125183   2.350   1.679   1.982  0.0485  0.4870 -1.0407
 1256TIP3    H225184   2.411   1.808   2.036  0.0159  1.1493 -2.5732
 1257TIP3   OH225185   5.071   1.944  16.078 -0.0063  0.1566  0.0257
 1257TIP3    H125186   5.046   2.037  16.073 -1.1581 -0.1499 -0.1444
 1257TIP3    H225187   5.157   1.945  16.119  1.5788  1.5286 -3.1727
 1258TIP3   OH225188   6.319   5.756   0.128 -0.6533 -0.0156  0.1063
 1258TIP3    H125189   6.289   5.805   0.204 -1.1995  1.9932 -1.3652
 1258TIP3    H225190   6.260   5.782   0.057  0.7679 -0.6648 -1.3687
 1259TIP3   OH225191   1.877   5.036  13.249 -0.2731 -0.3381  0.7264
 1259TIP3    H125192   1.832   4.958  13.282  1.1843 -1.9569 -0.9724
 1259TIP3    H225193   1.811   5.082  13.197 -0.0235 -2.6810 -1.7343
 1260TIP3   OH225194   4.830   4.250   5.061 -0.2460 -0.6703  0.3742
 1260TIP3    H125195   4.790   4.198   4.990 -0.6663 -0.0539  0.1572
 1260TIP3    H225196   4.806   4.340   5.041  0.9609 -0.3340  0.4501
 1261TIP3   OH225197   6.330   3.102  13.639  0.7280 -0.0049  0.1215
 1261TIP3    H125198   6.330   3.195  13.616 -0.7064 -0.4200 -1.6136
 1261TIP3    H225199   6.244   3.070  13.612  1.6677 -2.1264 -0.4775
 1262TIP3   OH225200   1.712   1.264  15.299 -0.4716 -0.5076  0.5563
 1262TIP3    H125201   1.801   1.233  15.285  0.1508  0.2856  2.6337
 1262TIP3    H225202   1.714   1.356  15.272 -0.9634 -0.7732 -0.4356
 1263TIP3   OH225203   4.860   0.455   5.879 -0.0788  0.0502 -0.1258
 1263TIP3    H125204   4.838   0.503   5.958  0.4762 -0.8109  0.5634
 1263TIP3    H225205   4.874   0.522   5.812 -2.6599  0.7031 -0.0508
 1264TIP3   OH225206   3.814   2.054   1.848 -0.0754 -0.3226  0.8960
 1264TIP3    H125207   3.801   1.960   1.842  1.4953 -0.4734 -0.4690
 1264TIP3    H225208   3.852   2.068   1.935  2.7241 -1.3430 -0.1204
 1265TIP3   OH225209   1.434   5.088   5.090  0.0948  0.2684  0.2286
 1265TIP3    H125210   1.438   5.051   5.002 -0.3585 -1.4494  0.9214
 1265TIP3    H225211   1.341   5.099   5.107  0.1914  0.8540  0.4041
 1266TIP3   OH225212   5.132   0.005   1.750  0.1452 -0.6081 -0.3350
 1266TIP3    H125213   5.208   0.060   1.732 -1.6102  0.8257 -3.9279
 1266TIP3    H225214   5.081   0.055   1.814  1.9990 -1.4264  1.8387
 1267TIP3   OH225215   5.558   3.993  13.890  0.0161 -0.1281 -0.6764
 1267TIP3    H125216   5.485   4.038  13.846  0.0315  1.0047  0.4174
 1267TIP3    H225217   5.526   3.978  13.979  0.6460 -0.7788 -0.5618
 1268TIP3   OH225218   6.420   5.609   1.884  0.0501  0.1941  0.2742
 1268TIP3    H125219   6.512   5.631   1.870 -0.2189  1.3851  0.3875
 1268TIP3    H225220   6.414   5.589   1.978  0.0803  0.6630  0.3763
 1269TIP3   OH225221   5.011   2.891  11.379 -0.0657 -0.0708 -0.5677
 1269TIP3    H125222   5.062   2.950  11.435  0.3277 -2.2503  1.4445
 1269TIP3    H225223   4.929   2.937  11.364  0.1364  0.8825  1.1902
 1270TIP3   OH225224   2.298   5.508   5.296 -0.4339  0.2032  0.3941
 1270TIP3    H125225   2.254   5.568   5.237 -0.8264  1.8772  2.3064
 1270TIP3    H225226   2.355   5.565   5.350  0.5414 -1.3486  1.0437
 1271TIP3   OH225227   1.761   6.174   2.733  0.0063 -0.3347  0.2815
 1271TIP3    H125228   1.740   6.092   2.776 -0.1088 -0.2394  0.4077
 1271TIP3    H225229   1.716   6.241   2.785 -1.2995 -0.3514 -0.8189
 1272TIP3   OH225230   1.298   4.894   0.418  0.5304 -0.1371 -0.1197
 1272TIP3    H125231   1.267   4.859   0.502  1.4252  1.4115  0.8790
 1272TIP3    H225232   1.349   4.822   0.380  0.9221 -0.5256  1.1174
 1273TIP3   OH225233   5.716   3.936  11.715 -0.1155 -0.1701 -0.0625
 1273TIP3    H125234   5.728   3.857  11.663 -0.6271 -0.0689 -0.3323
 1273TIP3    H225235   5.793   3.990  11.696 -0.5029  0.0436 -1.0121
 1274TIP3   OH225236   2.793   1.296   3.655  0.3910 -0.3006 -0.1742
 1274TIP3    H125237   2.789   1.392   3.657  2.2363 -0.1818 -0.6504
 1274TIP3    H225238   2.723   1.270   3.596 -1.0247  0.6738  1.0534
 1275TIP3   OH225239   0.509   3.645  16.945  0.3933  0.0518  0.6472
 1275TIP3    H125240   0.427   3.691  16.965  0.2414 -0.8671  2.2037
 1275TIP3    H225241   0.575   3.687  17.001  0.7428 -0.0083  0.2818
 1276TIP3   OH225242   6.739   6.110   2.070 -0.4163  0.0293 -0.0807
 1276TIP3    H125243   6.755   6.140   2.160 -0.6232 -0.2883  0.0679
 1276TIP3    H225244   6.657   6.059   2.077  0.5854 -1.6253 -0.0738
 1277TIP3   OH225245   2.248   6.246   0.966  0.1519  0.0813 -0.0720
 1277TIP3    H125246   2.159   6.279   0.956 -0.7224 -1.6714  1.5977
 1277TIP3    H225247   2.243   6.154   0.941  1.7164  0.2171 -0.9449
 1278TIP3   OH225248   1.428   3.473   0.547  0.3921  0.2248 -0.1471
 1278TIP3    H125249   1.487   3.548   0.561 -0.5214  1.2658 -1.7176
 1278TIP3    H225250   1.347   3.512   0.516  0.3711 -1.5194 -2.3752
 1279TIP3   OH225251   4.483   1.393   4.456 -0.2794  0.6629  0.1599
 1279TIP3    H125252   4.410   1.385   4.394 -1.0212  3.1786  0.6708
 1279TIP3    H225253   4.441   1.389   4.542  0.3321  0.8795  0.4679
 1280TIP3   OH225254   3.606   5.898  11.696  0.4762 -0.1163 -0.0302
 1280TIP3    H125255   3.597   5.933  11.785 -0.5589  0.2633 -0.2760
 1280TIP3    H225256   3.592   5.974  11.640 -3.0961 -1.1033 -0.6081
 1281TIP3   OH225257   1.833   4.502   3.818  0.2640  0.0685 -0.1781
 1281TIP3    H125258   1.863   4.440   3.751  1.4238  0.5124 -0.0883
 1281TIP3    H225259   1.771   4.452   3.871  0.3744 -0.6953 -0.7552
 1282TIP3   OH225260   3.220   0.677   4.862 -0.4896  0.3023 -0.4365
 1282TIP3    H125261   3.165   0.736   4.810  0.4124  1.3419 -0.2226
 1282TIP3    H225262   3.299   0.665   4.810 -1.0400 -1.4549 -0.8903
 1283TIP3   OH225263   0.485   5.480  16.056  0.0262  0.1256 -0.1725
 1283TIP3    H125264   0.559   5.532  16.025 -0.1230  0.1512 -0.4833
 1283TIP3    H225265   0.441   5.536  16.120 -0.6544  0.7243 -1.1624
 1284TIP3   OH225266   4.542   2.276   3.545 -0.5283 -0.2344  0.4446
 1284TIP3    H125267   4.456   2.294   3.583 -0.7317  0.9011 -0.5272
 1284TIP3    H225268   4.525   2.270   3.451 -0.0791 -3.2310  0.4959
 1285TIP3   OH225269   3.957   1.362   1.402 -0.3995  0.5074  0.1482
 1285TIP3    H125270   3.870   1.402   1.408  0.2274  1.5643  2.7925
 1285TIP3    H225271   3.944   1.272   1.434 -0.7825  0.2003 -0.8458
 1286TIP3   OH225272   0.900   6.247   6.134  0.2670 -0.1948  0.5167
 1286TIP3    H125273   0.957   6.302   6.187  1.0547  1.4581 -1.9795
 1286TIP3    H225274   0.814   6.288   6.142 -0.1922 -1.4528  2.5396
 1287TIP3   OH225275   1.246   5.497  14.214  0.4563  0.1464  0.6511
 1287TIP3    H125276   1.309   5.426  14.202  0.9189  0.4998  0.9646
 1287TIP3    H225277   1.192   5.495  14.135  0.7993 -0.2213  0.4225
 1288TIP3   OH225278   5.795   1.913  17.181 -0.4929 -0.1265 -0.3549
 1288TIP3    H125279   5.709   1.873  17.199 -0.3390 -0.3842 -0.1950
 1288TIP3    H225280   5.798   1.989  17.238 -0.3086 -0.5336  0.1782
 1289TIP3   OH225281   4.624   6.120   1.558 -0.1937 -0.0363 -0.6713
 1289TIP3    H125282   4.543   6.115   1.507  0.6722 -0.0404 -2.0515
 1289TIP3    H225283   4.688   6.070   1.508  0.3522 -1.0933  1.0561
 1290TIP3   OH225284   6.465   3.087  13.882 -0.1151  0.2732  0.5415
 1290TIP3    H125285   6.544   3.064  13.833 -0.5384 -0.4243  0.1634
 1290TIP3    H225286   6.396   3.087  13.816 -0.5784 -0.0239  1.0232
 1291TIP3   OH225287   4.410   0.861  13.825 -0.1892 -0.1235 -0.0269
 1291TIP3    H125288   4.405   0.956  13.829  1.2494 -0.0184 -0.5324
 1291TIP3    H225289   4.477   0.837  13.889  1.3847 -0.5758 -1.7952
 1292TIP3   OH225290   5.262   2.363   1.691 -0.1041 -0.6241 -0.2959
 1292TIP3    H125291   5.185   2.317   1.657 -0.3544 -0.9662  0.6949
 1292TIP3    H225292   5.289   2.421   1.620 -0.9854 -0.8584 -0.8354
 1293TIP3   OH225293   1.653   3.951  13.758  0.4437  0.0082  0.5903
 1293TIP3    H125294   1.616   4.035  13.787  0.2324  0.1637 -0.1019
 1293TIP3    H225295   1.605   3.885  13.807 -1.7970  0.1390 -1.3319
 1294TIP3   OH225296   1.078   6.038  13.081  0.0923 -0.4458 -0.3976
 1294TIP3    H125297   1.026   6.080  13.013 -0.4675  0.0418  0.3162
 1294TIP3    H225298   1.129   6.109  13.119  0.8645 -0.8239 -0.7199
 1295TIP3   OH225299   0.592   6.120   1.482  0.4208  0.0981 -0.1520
 1295TIP3    H125300   0.616   6.088   1.569  1.8030  0.7306 -0.2828
 1295TIP3    H225301   0.606   6.214   1.486 -0.3337  0.2474 -0.8088
 1296TIP3   OH225302   1.188   2.687  13.637  0.3194 -0.0411 -0.1836
 1296TIP3    H125303   1.172   2.751  13.567  0.3608 -0.1416 -0.2848
 1296TIP3    H225304   1.155   2.729  13.716  2.4353  1.0632  0.1385
 1297TIP3   OH225305   6.693   4.923  12.678  0.2593  0.2289  0.7326
 1297TIP3    H125306   6.742   4.999  12.708 -0.8325  0.1749  2.7380
 1297TIP3    H225307   6.643   4.955  12.603  1.5186  0.8868  0.1552
 1298TIP3   OH225308   5.175   2.581   2.193  0.1285  0.3421 -0.5123
 1298TIP3    H125309   5.244   2.515   2.182 -1.1706 -1.0834 -0.2035
 1298TIP3    H225310   5.167   2.622   2.106  0.8726  0.0303 -0.7305
 1299TIP3   OH225311   1.025   1.313  14.039 -0.0242  0.0723  0.2625
 1299TIP3    H125312   0.957   1.331  13.974  1.7440 -3.0897 -2.6081
 1299TIP3    H225313   0.980   1.265  14.108 -1.0645 -0.4368 -0.7542
 1300TIP3   OH225314   2.515   2.244  16.598  0.4614 -0.6148  0.0567
 1300TIP3    H125315   2.419   2.239  16.590  0.4731  0.0970 -0.5763
 1300TIP3    H225316   2.548   2.206  16.516  0.6784  1.0870 -0.6684
 1301TIP3   OH225317   3.837   5.179  16.641 -0.5028 -0.0325  0.4024
 1301TIP3    H125318   3.758   5.127  16.624  0.1145 -1.4664  1.7906
 1301TIP3    H225319   3.908   5.115  16.644  0.3810  0.9715  1.3811
 1302TIP3   OH225320   1.872   4.133  12.953  0.1028 -0.2544  0.3435
 1302TIP3    H125321   1.906   4.113  13.040  0.0774  1.9569  0.9044
 1302TIP3    H225322   1.780   4.156  12.968  0.4725  1.5761 -0.0298
 1303TIP3   OH225323   1.844   4.443  13.327  0.1944 -0.1438  0.2367
 1303TIP3    H125324   1.883   4.528  13.307 -0.3705 -0.1768 -1.0442
 1303TIP3    H225325   1.918   4.388  13.353  1.0247 -0.2110 -2.1708
 1304TIP3   OH225326   5.872   0.194  11.276 -0.3707 -0.4922 -0.0607
 1304TIP3    H125327   5.844   0.139  11.203  2.9036 -2.2307 -0.1128
 1304TIP3    H225328   5.909   0.272  11.235  1.2311 -1.3526 -0.2750
 1305TIP3   OH225329   6.470   6.725  12.100 -0.0472  0.5558 -0.4575
 1305TIP3    H125330   6.542   6.705  12.040  0.7263 -0.2880  0.7296
 1305TIP3    H225331   6.487   6.814  12.129  0.9546  0.1009  0.3915
 1306TIP3   OH225332   1.491   3.071   1.175 -0.2271 -0.2918 -0.4570
 1306TIP3    H125333   1.555   3.110   1.234 -0.1807 -0.2879 -0.5101
 1306TIP3    H225334   1.524   2.983   1.158  0.9270  0.4760 -2.2586
 1307TIP3   OH225335   3.721   3.394   2.560  0.1003 -0.0066  0.4472
 1307TIP3    H125336   3.654   3.407   2.493 -3.0947  1.8713  3.8007
 1307TIP3    H225337   3.791   3.455   2.536 -1.2110  0.9819 -0.9510
 1308TIP3   OH225338   2.555   1.253  14.287 -0.0719  0.1949  0.3575
 1308TIP3    H125339   2.487   1.206  14.335  1.0922 -0.2693  1.5863
 1308TIP3    H225340   2.537   1.234  14.195 -2.3454  1.1264  0.5832
 1309TIP3   OH225341   5.718   1.910   6.560 -0.1202  0.4785  0.1300
 1309TIP3    H125342   5.770   1.890   6.637 -0.1380  0.7148  0.2020
 1309TIP3    H225343   5.680   1.996   6.577 -1.1572 -0.0235  0.4160
 1310TIP3   OH225344   3.308   2.385  13.152 -0.2868  0.1790 -0.3308
 1310TIP3    H125345   3.363   2.460  13.127 -0.0192  0.4981  1.1575
 1310TIP3    H225346   3.236   2.423  13.201 -1.0431 -0.3957 -0.9780
 1311TIP3   OH225347   3.333   0.389   6.334 -0.2626 -0.1626  0.2338
 1311TIP3    H125348   3.398   0.322   6.355 -0.1754 -0.4806 -1.0254
 1311TIP3    H225349   3.328   0.442   6.413  2.9869  1.0632 -0.2968
 1312TIP3   OH225350   2.331   3.799   4.270  0.0696 -0.2642 -0.3590
 1312TIP3    H125351   2.413   3.833   4.236 -0.9088  1.8350 -0.6495
 1312TIP3    H225352   2.333   3.819   4.364 -0.5023  0.5977 -0.5277
 1313TIP3   OH225353   5.699   3.198  11.348 -0.2440  0.0179 -0.0953
 1313TIP3    H125354   5.645   3.270  11.315  0.2669 -0.2149 -1.5021
 1313TIP3    H225355   5.765   3.184  11.279  1.3416  0.0116  1.3725
 1314TIP3   OH225356   4.259   3.776   4.126  0.5456 -0.0989  0.2711
 1314TIP3    H125357   4.164   3.773   4.123  0.4318  1.8602  0.9359
 1314TIP3    H225358   4.283   3.837   4.057  1.1352  1.5077  1.8557
 1315TIP3   OH225359   5.692   6.557  14.950  0.1779 -0.0511 -0.4240
 1315TIP3    H125360   5.685   6.617  15.024  1.2920 -2.2607  1.5508
 1315TIP3    H225361   5.743   6.605  14.885 -0.0526  1.5950  0.5870
 1316TIP3   OH225362   6.184   0.331  15.777 -0.2496 -0.5113 -0.4640
 1316TIP3    H125363   6.193   0.274  15.701 -0.3341 -3.0837  1.3874
 1316TIP3    H225364   6.101   0.305  15.818 -1.0240  1.9575 -0.3578
 1317TIP3   OH225365   5.619   0.058  17.072  0.1380 -0.2972 -0.2017
 1317TIP3    H125366   5.712   0.049  17.050  0.3093 -0.1577  0.4794
 1317TIP3    H225367   5.580   0.097  16.994  0.5318 -0.9596 -0.7416
 1318TIP3   OH225368   1.123   2.247  16.768 -0.0338  0.3076 -0.0815
 1318TIP3    H125369   1.073   2.165  16.771 -3.1155  2.0966 -0.2696
 1318TIP3    H225370   1.167   2.245  16.684  0.1664 -1.2805  0.0328
 1319TIP3   OH225371   0.362   2.750  15.828  0.2253 -0.5834 -0.2111
 1319TIP3    H125372   0.415   2.730  15.751 -1.2240 -0.0501 -1.3584
 1319TIP3    H225373   0.308   2.824  15.802  0.0649 -0.0794  1.4898
 1320TIP3   OH225374   3.457   5.641   1.480 -0.1677 -0.3520 -0.5125
 1320TIP3    H125375   3.441   5.696   1.556  0.3941 -2.6903  1.3637
 1320TIP3    H225376   3.538   5.675   1.442  0.0340  0.2765  0.4624
 1321TIP3   OH225377   5.952   5.537   1.346  0.0212 -0.4474 -0.1109
 1321TIP3    H125378   5.966   5.451   1.306  0.3519 -0.3706 -0.1606
 1321TIP3    H225379   6.016   5.541   1.417  0.4093 -0.0034 -0.4838
 1322TIP3   OH225380   0.074   0.774  15.726 -0.4495 -0.4207 -0.6236
 1322TIP3    H125381   0.046   0.810  15.810  1.6148  0.3301 -0.2511
 1322TIP3    H225382   0.063   0.679  15.737 -1.7478 -0.2299 -0.1003
 1323TIP3   OH225383   3.803   0.537   1.806 -0.2185  0.0176  0.7840
 1323TIP3    H125384   3.708   0.547   1.811 -0.3162 -0.5230  0.0147
 1323TIP3    H225385   3.818   0.485   1.727  0.6444 -0.8592  1.5111
 1324TIP3   OH225386   6.464   3.658   3.635 -0.3763 -0.6979  0.1400
 1324TIP3    H125387   6.547   3.668   3.587  0.0105 -1.6187  0.5912
 1324TIP3    H225388   6.398   3.652   3.566 -0.0590 -0.0477 -0.2278
 1325TIP3   OH225389   5.095   2.126   6.377 -0.8434 -0.7094 -0.4363
 1325TIP3    H125390   5.013   2.080   6.360 -0.2616 -1.7431 -0.4709
 1325TIP3    H225391   5.128   2.087   6.458  0.3342 -1.3085 -1.1896
 1326TIP3   OH225392   5.818   6.090  11.690  0.2248  0.3364  0.5081
 1326TIP3    H125393   5.766   6.155  11.738 -1.1140 -0.6814  0.4657
 1326TIP3    H225394   5.907   6.101  11.724 -0.2345  1.3240  1.4257
 1327TIP3   OH225395   6.000   1.343   1.338  0.0031 -0.5311  0.1080
 1327TIP3    H125396   5.928   1.324   1.278 -0.4599  1.3159  0.0348
 1327TIP3    H225397   6.051   1.262   1.342 -0.4912 -0.9707 -2.0483
 1328TIP3   OH225398   1.077   0.943  15.973 -0.8138  0.1192  0.3272
 1328TIP3    H125399   1.021   0.953  16.050 -2.9862 -3.3101 -0.6651
 1328TIP3    H225400   1.016   0.947  15.898  0.7234 -0.2435 -0.9683
 1329TIP3   OH225401   3.001   4.376   0.418  0.1982  0.2993  0.1348
 1329TIP3    H125402   2.984   4.351   0.508  0.0532  2.2143  0.6501
 1329TIP3    H225403   3.037   4.296   0.377  0.5217 -0.4874  1.9327
 1330TIP3   OH225404   2.669   2.825   6.080  0.0567  0.3338 -0.2179
 1330TIP3    H125405   2.634   2.909   6.048  0.5377  0.8567  0.6148
 1330TIP3    H225406   2.705   2.845   6.166  3.5333  0.0883 -1.5536
 1331TIP3   OH225407   2.786   3.603   0.883  0.1787 -0.3504  0.0270
 1331TIP3    H125408   2.839   3.661   0.830 -0.7564  0.2866 -0.2093
 1331TIP3    H225409   2.777   3.648   0.967 -0.0308 -0.4254  0.0470
 1332TIP3   OH225410   1.478   4.187  17.220  0.1114  0.8734  0.0931
 1332TIP3    H125411   1.426   4.211  17.297  0.7610  1.3700  0.3965
 1332TIP3    H225412   1.452   4.098  17.199  0.9512  0.2060  1.7759
 1333TIP3   OH225413   1.763   3.108   2.055 -0.2014 -0.0538 -0.7166
 1333TIP3    H125414   1.712   3.183   2.083  1.6433  0.8470  0.3281
 1333TIP3    H225415   1.707   3.063   1.991 -0.8630  2.8530 -2.2634
 1334TIP3   OH225416   1.664   3.309   1.021 -0.9581  0.1655 -0.6141
 1334TIP3    H125417   1.596   3.352   0.970 -1.1036  0.3032 -0.3099
 1334TIP3    H225418   1.688   3.232   0.970 -2.7068 -0.9565  0.1675
 1335TIP3   OH225419   2.420   0.342   2.190 -0.0130 -0.5816  0.1965
 1335TIP3    H125420   2.338   0.363   2.144  1.1723  0.1679 -1.6202
 1335TIP3    H225421   2.484   0.403   2.155  1.2135 -0.7621  2.0445
 1336TIP3   OH225422   2.274   6.578   4.376 -0.1476 -0.3567  0.0277
 1336TIP3    H125423   2.360   6.566   4.417 -0.3306  0.7526  0.7641
 1336TIP3    H225424   2.255   6.494   4.335  1.9665 -0.1459 -1.4437
 1337TIP3   OH225425   5.950   0.174  13.731 -0.9519  0.5128 -0.4279
 1337TIP3    H125426   5.882   0.218  13.679  0.2199 -0.0858 -2.5436
 1337TIP3    H225427   5.972   0.236  13.800 -2.8027  1.1969 -0.4184
 1338TIP3   OH225428   5.032   0.891   1.678 -0.3951  0.4686 -0.0872
 1338TIP3    H125429   4.990   0.974   1.701 -2.8029 -0.4372 -1.0151
 1338TIP3    H225430   4.980   0.824   1.723  0.2602 -0.6767 -0.9881
 1339TIP3   OH225431   2.908   4.835  14.809  0.0622 -0.3201  0.1374
 1339TIP3    H125432   2.991   4.830  14.762 -0.1939 -1.1374 -0.2539
 1339TIP3    H225433   2.861   4.756  14.782 -1.8530  1.3270 -1.5406
 1340TIP3   OH225434   3.063   1.756   4.582  0.4718 -0.3007 -0.4433
 1340TIP3    H125435   3.132   1.755   4.649  1.2392  1.9034 -1.1688
 1340TIP3    H225436   3.019   1.840   4.594  0.0372 -0.2759 -2.1420
 1341TIP3   OH225437   4.400   4.411  13.925 -0.0412 -0.2469  0.7174
 1341TIP3    H125438   4.348   4.358  13.865  0.3968 -0.4649  0.5245
 1341TIP3    H225439   4.483   4.364  13.933  0.6623  0.8187 -0.1053
 1342TIP3   OH225440   5.387   4.644  12.579  0.2947 -0.0611  0.4333
 1342TIP3    H125441   5.379   4.699  12.657  1.0315  0.8440 -0.1209
 1342TIP3    H225442   5.315   4.672  12.523 -1.2353 -1.8458  1.4543
 1343TIP3   OH225443   4.250   5.723   6.553 -0.1745 -0.0979  0.1469
 1343TIP3    H125444   4.283   5.806   6.586  0.2124 -0.6323  1.1105
 1343TIP3    H225445   4.155   5.730   6.565 -0.1447  0.2018  0.2333
 1344TIP3   OH225446   2.758   6.674   2.918  0.0192 -0.3966  0.1835
 1344TIP3    H125447   2.765   6.604   2.854  2.2263  3.4210 -4.0340
 1344TIP3    H225448   2.833   6.660   2.977  0.4380 -1.5419 -0.6176
 1345TIP3   OH225449   4.871   1.803   2.017 -0.3478 -0.6672  0.1709
 1345TIP3    H125450   4.883   1.853   1.936 -0.9606  1.5355  1.4178
 1345TIP3    H225451   4.792   1.752   2.001  1.0046 -2.2866 -1.6049
 1346TIP3   OH225452   3.608   1.759  14.596 -0.7051 -0.6324  0.4183
 1346TIP3    H125453   3.514   1.774  14.595 -0.4219  1.3058  1.0147
 1346TIP3    H225454   3.633   1.755  14.504 -1.4513 -1.7509  0.2558
 1347TIP3   OH225455   5.930   0.617  12.076 -0.1617 -0.4491 -0.5665
 1347TIP3    H125456   5.925   0.704  12.115  0.2806 -1.3822  1.6664
 1347TIP3    H225457   5.978   0.631  11.994 -0.9738  1.5406 -0.7464
 1348TIP3   OH225458   4.123   4.772  11.040 -0.2560  0.2894  0.1295
 1348TIP3    H125459   4.030   4.796  11.042 -0.0487  1.2321 -0.7063
 1348TIP3    H225460   4.168   4.854  11.059  0.3842 -0.3729  1.4584
 1349TIP3   OH225461   0.874   1.294  14.291 -0.3800 -0.2728 -0.0706
 1349TIP3    H125462   0.800   1.299  14.351 -0.2301  2.4056 -0.0749
 1349TIP3    H225463   0.949   1.274  14.347 -0.7876 -1.1223  0.1779
 1350TIP3   OH225464   5.991   3.696  16.107 -0.1064 -0.1399 -0.1808
 1350TIP3    H125465   5.941   3.620  16.137  0.1433 -0.1013  0.3385
 1350TIP3    H225466   5.983   3.760  16.179  2.7744 -1.0738  1.0502
 1351TIP3   OH225467   0.880   2.914  17.103 -0.3414 -0.1557 -0.0649
 1351TIP3    H125468   0.935   2.940  17.029  1.6218 -0.8990  1.0941
 1351TIP3    H225469   0.852   2.997  17.142  2.0019  0.2608  0.8013
 1352TIP3   OH225470   4.617   5.957  14.635 -0.3427 -0.5093 -0.0289
 1352TIP3    H125471   4.691   5.907  14.602  0.5846  0.6387  0.2554
 1352TIP3    H225472   4.598   5.918  14.721 -0.8509 -1.5839 -0.6289
 1353TIP3   OH225473   3.906   6.175  12.671  0.0174  0.3706  0.5435
 1353TIP3    H125474   3.880   6.208  12.585  1.3860 -0.4063 -0.1851
 1353TIP3    H225475   3.998   6.203  12.680  0.2512 -0.6040  1.2229
 1354TIP3   OH225476   6.712   5.020  13.059  0.0221 -0.4077  0.5110
 1354TIP3    H125477   6.648   4.953  13.080  0.0207 -0.4779  0.2807
 1354TIP3    H225478   6.660   5.093  13.025  0.1948 -1.0613 -1.1934
 1355TIP3   OH225479   3.733   3.868  11.088 -0.4733  0.1238 -0.0227
 1355TIP3    H125480   3.756   3.795  11.030 -1.8820  1.4120 -2.2501
 1355TIP3    H225481   3.676   3.924  11.036 -0.3618  2.2500  2.0380
 1356TIP3   OH225482   2.519   4.253   3.089 -0.3353  0.2223  0.0346
 1356TIP3    H125483   2.512   4.277   3.181 -2.2492 -1.0418  0.2541
 1356TIP3    H225484   2.512   4.336   3.042 -2.6989  0.5858  0.9395
 1357TIP3   OH225485   4.631   4.575  14.402  0.9218  0.1362  0.4132
 1357TIP3    H125486   4.621   4.484  14.431  1.1521 -0.1188 -0.2929
 1357TIP3    H225487   4.565   4.586  14.334  1.5665  0.1867 -0.2128
 1358TIP3   OH225488   1.657   2.821   1.460  0.3604 -0.1214  0.5448
 1358TIP3    H125489   1.663   2.871   1.379 -0.7109  0.3556  0.7478
 1358TIP3    H225490   1.734   2.847   1.510  0.5114  0.3069  0.0911
 1359TIP3   OH225491   1.376   6.244  15.590  0.2453  0.0832  0.3236
 1359TIP3    H125492   1.378   6.337  15.611 -0.3534  0.3176 -0.6195
 1359TIP3    H225493   1.299   6.234  15.534 -0.0153 -1.0769  0.8844
 1360TIP3   OH225494   3.800   3.562   4.772  0.2303 -0.1786 -0.1581
 1360TIP3    H125495   3.739   3.582   4.702 -0.2308 -2.6576 -0.5097
 1360TIP3    H225496   3.765   3.483   4.813  2.0424 -0.4161  0.9966
 1361TIP3   OH225497   3.246   1.773  13.058 -1.0250  0.1615  0.2810
 1361TIP3    H125498   3.159   1.767  13.097 -0.2550  2.0351  2.4338
 1361TIP3    H225499   3.295   1.829  13.119  1.0274  0.9955 -2.0716
 1362TIP3   OH225500   0.956   6.264  11.249  0.1298 -0.1416  0.5781
 1362TIP3    H125501   0.924   6.236  11.334 -0.7352 -1.8776 -0.2770
 1362TIP3    H225502   0.949   6.185  11.194  1.4019  0.7360 -0.8797
 1363TIP3   OH225503   3.686   5.888   1.819  0.4276  0.0119  0.5268
 1363TIP3    H125504   3.705   5.910   1.728  2.8378  1.1326  1.2501
 1363TIP3    H225505   3.629   5.959   1.850  1.3892  0.8161  0.4852
 1364TIP3   OH225506   4.146   4.504  11.692  0.4565 -0.3961 -0.1860
 1364TIP3    H125507   4.150   4.597  11.713 -0.1750 -0.3569 -0.2132
 1364TIP3    H225508   4.101   4.501  11.607 -0.8891 -0.8070  0.5177
 1365TIP3   OH225509   2.954   4.044   6.710  0.7423 -0.5139  0.3090
 1365TIP3    H125510   2.950   3.973   6.646  0.4130 -0.6819  0.5145
 1365TIP3    H225511   2.892   4.018   6.779  0.2076  0.2407  0.1157
 1366TIP3   OH225512   6.352   5.118   0.053 -0.3931 -0.6611  0.0595
 1366TIP3    H125513   6.340   5.032   0.012 -1.3534 -0.0670 -0.9326
 1366TIP3    H225514   6.264   5.154   0.057  0.2794  1.2299 -1.6129
 1367TIP3   OH225515   2.945   5.884   5.296  0.6088 -0.0395  0.1432
 1367TIP3    H125516   2.851   5.893   5.315 -0.0279  0.2415 -2.7602
 1367TIP3    H225517   2.963   5.791   5.309 -0.9433 -0.7891 -2.5032
 1368TIP3   OH225518   1.812   4.556  11.287 -0.2546 -0.1331  0.0730
 1368TIP3    H125519   1.891   4.538  11.236 -0.6281  0.5239 -0.7479
 1368TIP3    H225520   1.786   4.644  11.260 -1.3865 -0.4342  0.1887
 1369TIP3   OH225521   4.347   4.826   4.617  0.2972 -0.2829  0.3149
 1369TIP3    H125522   4.289   4.750   4.616  3.0130 -2.4500  0.0340
 1369TIP3    H225523   4.339   4.864   4.529 -0.2350 -0.9379  0.0798
 1370TIP3   OH225524   0.689   3.512  13.446 -0.5232 -0.0275 -0.1666
 1370TIP3    H125525   0.767   3.566  13.456 -1.5356  1.7515 -1.4098
 1370TIP3    H225526   0.699   3.471  13.360 -0.4689 -0.6542  0.1322
 1371TIP3   OH225527   0.318   2.359  13.047 -0.4061  0.1924  0.1010
 1371TIP3    H125528   0.252   2.334  12.983  0.1171 -2.3138  0.5007
 1371TIP3    H225529   0.273   2.354  13.131  0.1324 -1.0242  0.3268
 1372TIP3   OH225530   0.278   5.541  13.709  0.1477 -0.4955 -0.0052
 1372TIP3    H125531   0.255   5.631  13.732 -0.2037 -0.6376  0.2028
 1372TIP3    H225532   0.347   5.550  13.643 -2.1967 -0.0204 -2.4741
 1373TIP3   OH225533   2.914   1.870   3.057 -0.6946  0.1695  0.2608
 1373TIP3    H125534   2.866   1.790   3.077 -0.6565 -0.0814 -0.6437
 1373TIP3    H225535   2.847   1.938   3.051 -0.8188  0.0305  0.0889
 1374TIP3   OH225536   4.299   5.549  13.616  0.3467  0.3610 -0.4365
 1374TIP3    H125537   4.313   5.455  13.627  1.0663  0.5108 -0.0151
 1374TIP3    H225538   4.247   5.575  13.692  0.4339  0.3648 -0.3773
 1375TIP3   OH225539   0.689   6.298  13.312 -0.3835  0.1313  0.6505
 1375TIP3    H125540   0.713   6.385  13.344 -0.1171  0.6332 -0.8530
 1375TIP3    H225541   0.677   6.310  13.217 -2.8208 -0.9117  0.7701
 1376TIP3   OH225542   4.358   3.484   3.169  0.0452 -0.1862  0.1794
 1376TIP3    H125543   4.406   3.457   3.247  1.4554  0.0813 -0.5760
 1376TIP3    H225544   4.274   3.515   3.202  1.1355  1.1944  1.7355
 1377TIP3   OH225545   6.653   6.719  14.291 -0.0731 -0.3464  0.2429
 1377TIP3    H125546   6.640   6.634  14.333  2.8917 -0.0669  1.8886
 1377TIP3    H225547   6.680   6.699  14.201  2.6298 -1.2770  1.2056
 1378TIP3   OH225548   5.365   5.442   5.632  0.0885 -0.6734 -0.1592
 1378TIP3    H125549   5.377   5.358   5.588  2.1579 -0.5068  0.0462
 1378TIP3    H225550   5.454   5.477   5.642 -0.7503  1.6687 -0.5052
 1379TIP3   OH225551   6.344   2.913  12.877 -0.1904 -0.5032  0.0466
 1379TIP3    H125552   6.359   2.828  12.917 -0.6278 -0.3328  0.5786
 1379TIP3    H225553   6.288   2.894  12.802 -0.8952 -0.5996  0.5903
 1380TIP3   OH225554   6.685   5.722   1.673  0.8222 -0.1948 -0.3913
 1380TIP3    H125555   6.753   5.788   1.657  2.4347 -1.9116 -0.8419
 1380TIP3    H225556   6.713   5.679   1.754 -1.1443  0.7839  0.8472
 1381TIP3   OH225557   6.041   2.507   2.273 -0.3437 -0.2197  0.7289
 1381TIP3    H125558   6.057   2.425   2.226 -1.0927  0.4034 -0.6623
 1381TIP3    H225559   6.127   2.532   2.308  0.1645 -0.8792 -0.0336
 1382TIP3   OH225560   4.225   1.554  13.672  0.4536  0.7130  0.1130
 1382TIP3    H125561   4.211   1.568  13.765  0.4541 -0.8422  0.3578
 1382TIP3    H225562   4.216   1.641  13.633  1.4830  1.5507  1.6785
 1383TIP3   OH225563   0.332   2.805   2.141 -0.8053  0.2620 -0.1361
 1383TIP3    H125564   0.347   2.710   2.141  1.1752  0.5271  2.0977
 1383TIP3    H225565   0.244   2.815   2.176 -1.8025 -0.8157 -2.2328
 1384TIP3   OH225566   3.958   6.200  16.053 -1.0734 -0.0009 -0.6140
 1384TIP3    H125567   4.030   6.263  16.053 -0.4670 -0.6954  0.0647
 1384TIP3    H225568   3.942   6.182  15.960 -0.1808 -0.0712 -0.7600
 1385TIP3   OH225569   3.730   3.930   2.948  0.1574  0.2259  0.6781
 1385TIP3    H125570   3.781   3.876   3.008  0.0244  0.4080  0.9581
 1385TIP3    H225571   3.722   4.015   2.993 -2.3249 -0.4856  1.6859
 1386TIP3   OH225572   4.747   0.308   3.204 -0.5294 -0.0850  0.0054
 1386TIP3    H125573   4.676   0.347   3.153  0.1924 -0.5496 -1.3468
 1386TIP3    H225574   4.707   0.293   3.291 -1.9910 -0.0297 -0.6344
 1387TIP3   OH225575   2.441   4.986   5.298 -0.1207 -1.0174 -0.2309
 1387TIP3    H125576   2.401   5.072   5.288  0.2052 -0.8186  0.1414
 1387TIP3    H225577   2.408   4.935   5.225 -0.5935 -0.6810 -0.2523
 1388TIP3   OH225578   3.428   6.553  16.544  0.1433  0.2470  0.2601
 1388TIP3    H125579   3.411   6.553  16.638  1.3433  1.8910  0.5031
 1388TIP3    H225580   3.396   6.638  16.514  1.0293  0.2963 -0.5604
 1389TIP3   OH225581   1.930   3.909   0.376 -0.5058 -0.3576 -0.4132
 1389TIP3    H125582   1.855   3.952   0.335 -0.2175  0.0014 -0.5653
 1389TIP3    H225583   1.989   3.981   0.398  0.2193 -0.7246 -1.1504
 1390TIP3   OH225584   4.400   1.745   3.496  0.3896 -0.0930  0.0597
 1390TIP3    H125585   4.481   1.784   3.528  0.8041 -1.2942  0.4968
 1390TIP3    H225586   4.422   1.712   3.409 -0.6727  2.9555 -1.4227
 1391TIP3   OH225587   3.954   5.722   3.488 -0.4691  0.2155 -0.1889
 1391TIP3    H125588   4.005   5.684   3.417 -1.3506 -1.3075 -0.0393
 1391TIP3    H225589   3.865   5.692   3.473 -0.2727 -2.2411  2.8791
 1392TIP3   OH225590   3.696   6.441   1.797  0.1265 -0.0080  0.3026
 1392TIP3    H125591   3.659   6.399   1.874 -1.4423 -0.4011 -0.6382
 1392TIP3    H225592   3.769   6.384   1.772  1.2090  0.6034  1.9896
 1393TIP3   OH225593   3.664   3.720   1.803  0.0799  0.1848  0.3026
 1393TIP3    H125594   3.758   3.740   1.802 -0.0890  1.1122  1.9373
 1393TIP3    H225595   3.657   3.635   1.759  1.5988  0.4742 -0.5131
 1394TIP3   OH225596   3.257   1.007   4.966  0.0948 -0.0587 -0.3000
 1394TIP3    H125597   3.210   1.083   4.999  0.2113  1.0723 -2.6511
 1394TIP3    H225598   3.190   0.955   4.920 -0.2654 -2.0947  2.3867
 1395TIP3   OH225599   2.580   2.651   0.223  0.2432 -0.3096  0.0102
 1395TIP3    H125600   2.569   2.715   0.294 -0.6564 -1.6870  1.1559
 1395TIP3    H225601   2.497   2.654   0.175  0.4245 -0.1874 -0.2934
 1396TIP3   OH225602   5.864   6.287   3.452 -0.1921  0.1677 -0.0134
 1396TIP3    H125603   5.772   6.308   3.438 -0.3510 -0.5942 -0.1027
 1396TIP3    H225604   5.883   6.321   3.539 -0.4192  0.7768 -0.1960
 1397TIP3   OH225605   6.606   2.541   4.078 -0.3754 -0.1177 -0.4634
 1397TIP3    H125606   6.567   2.593   4.148  0.9909  1.8399 -1.1257
 1397TIP3    H225607   6.556   2.564   4.000  1.3240  1.5247 -1.0888
 1398TIP3   OH225608   6.293   1.853   1.049 -0.1081  0.5312 -0.0672
 1398TIP3    H125609   6.210   1.806   1.039  0.0352  0.5691 -1.5753
 1398TIP3    H225610   6.268   1.945   1.044 -0.1911  0.5945  1.3152
 1399TIP3   OH225611   5.491   1.089  15.208 -0.6909  0.3065  0.0663
 1399TIP3    H125612   5.419   1.087  15.145  0.2183  0.2475 -0.9989
 1399TIP3    H225613   5.518   0.997  15.217  0.6237  0.5463 -1.1821
 1400TIP3   OH225614   5.356   2.483   1.474  0.0267  0.5248 -0.0457
 1400TIP3    H125615   5.425   2.419   1.454 -0.7382  0.0599 -1.2334
 1400TIP3    H225616   5.388   2.565   1.437 -0.8149 -0.0638 -2.2095
 1401TIP3   OH225617   4.177   1.410  15.568 -0.0466  0.4207  0.7425
 1401TIP3    H125618   4.209   1.470  15.635 -0.1316  0.5209  0.6944
 1401TIP3    H225619   4.183   1.460  15.487  0.6060  0.0992  0.5913
 1402TIP3   OH225620   4.082   3.602  12.438  0.3344  0.5861  0.1133
 1402TIP3    H125621   4.169   3.622  12.403  1.0554  1.1363  2.1840
 1402TIP3    H225622   4.050   3.684  12.473 -0.9183  0.3115 -0.3483
 1403TIP3   OH225623   1.828   6.703  10.969  0.3428 -0.6962 -0.2536
 1403TIP3    H125624   1.824   6.721  11.063  1.4845 -1.5843 -0.0193
 1403TIP3    H225625   1.737   6.692  10.943 -0.1283  1.4976  0.3485
 1404TIP3   OH225626   6.013   2.986   3.569  0.0941  0.7736 -0.5123
 1404TIP3    H125627   6.072   3.061   3.574 -0.7601  1.4457 -0.3755
 1404TIP3    H225628   5.945   3.005   3.634  1.2267 -1.3102  1.3479
 1405TIP3   OH225629   0.633   0.505  12.728 -0.1635 -0.2516 -0.2216
 1405TIP3    H125630   0.680   0.423  12.712 -1.5218 -1.2357  0.6635
 1405TIP3    H225631   0.668   0.536  12.812  0.9362  0.5185 -0.9522
 1406TIP3   OH225632   2.848   5.725   1.743 -0.2040  0.0738 -0.8428
 1406TIP3    H125633   2.832   5.632   1.725 -0.5605 -0.0406  0.0490
 1406TIP3    H225634   2.761   5.761   1.758  0.0820  0.1997  0.4858
 1407TIP3   OH225635   2.766   5.146   4.320  0.1641 -0.1955  0.2266
 1407TIP3    H125636   2.859   5.149   4.298  0.6166  0.1816  2.1194
 1407TIP3    H225637   2.734   5.234   4.300 -0.2507 -0.8908 -2.3042
 1408TIP3   OH225638   2.537   0.834   3.326 -0.1304  0.0724 -0.5984
 1408TIP3    H125639   2.470   0.900   3.308 -0.7275 -0.9591 -2.3009
 1408TIP3    H225640   2.565   0.804   3.239  1.2670 -0.7850  0.1254
 1409TIP3   OH225641   0.043   4.771  16.687  0.3946 -0.5360  0.5353
 1409TIP3    H125642  -0.016   4.750  16.760 -0.2799  0.2498  0.2220
 1409TIP3    H225643   0.003   4.728  16.611 -0.1800  0.6265  0.1794
 1410TIP3   OH225644   0.265   4.205   0.651 -0.0218  0.0776 -0.4432
 1410TIP3    H125645   0.248   4.119   0.689  0.4154  0.2008  0.0429
 1410TIP3    H225646   0.187   4.225   0.600 -0.7924  0.0741  0.7193
 1411TIP3   OH225647   0.414   3.048   5.194  0.3734 -0.0149 -0.0445
 1411TIP3    H125648   0.475   2.976   5.211  0.7103  0.6338  1.5725
 1411TIP3    H225649   0.471   3.120   5.165  0.2193  0.1458  0.0552
 1412TIP3   OH225650   2.393   3.980  13.881 -0.8914  0.2437  0.5269
 1412TIP3    H125651   2.481   3.947  13.900 -1.1422 -0.8421 -0.2089
 1412TIP3    H225652   2.386   4.059  13.935  0.6717  0.5454  0.3095
 1413TIP3   OH225653   2.709   2.268   3.618  0.0307  0.4359  0.1864
 1413TIP3    H125654   2.735   2.279   3.526 -1.1585  0.3121 -0.1642
 1413TIP3    H225655   2.694   2.357   3.649 -2.9203  0.2850 -0.7208
 1414TIP3   OH225656   3.052   5.896   2.471  0.3902 -0.4094  0.2131
 1414TIP3    H125657   3.013   5.809   2.475 -1.2119  0.1870 -1.7441
 1414TIP3    H225658   3.031   5.936   2.555 -3.5959  0.0046 -0.8944
 1415TIP3   OH225659   3.808   0.947   4.327  0.0752  0.1987 -0.3590
 1415TIP3    H125660   3.860   0.890   4.271 -0.9045 -1.0677 -0.0194
 1415TIP3    H225661   3.771   1.011   4.267  1.4629  0.6959 -0.6996
 1416TIP3   OH225662   5.713   2.595   5.323 -0.4585 -0.1555 -0.2496
 1416TIP3    H125663   5.668   2.527   5.273 -2.6463  0.4038  0.9023
 1416TIP3    H225664   5.749   2.654   5.257 -1.0691 -0.8432 -1.2043
 1417TIP3   OH225665   5.822   1.457  15.840  0.5185 -0.1770  0.2148
 1417TIP3    H125666   5.866   1.512  15.775  2.1215 -1.0721  0.5201
 1417TIP3    H225667   5.742   1.506  15.861  0.0032  0.1858 -2.3283
 1418TIP3   OH225668   1.585   1.539  13.569 -0.0565 -0.2491  0.1464
 1418TIP3    H125669   1.548   1.498  13.647  0.3526 -1.2202 -0.1662
 1418TIP3    H225670   1.572   1.633  13.583 -0.8008 -0.4689  0.9628
 1419TIP3   OH225671   6.220   3.946   3.167  0.5297 -0.4606 -0.1926
 1419TIP3    H125672   6.223   3.854   3.139  1.5135 -0.7003  0.6611
 1419TIP3    H225673   6.296   3.956   3.225 -0.2904  0.5571  0.7307
 1420TIP3   OH225674   1.188   0.154  11.060 -0.2649  0.4091 -0.5493
 1420TIP3    H125675   1.164   0.243  11.035 -0.2395  0.8604  0.9667
 1420TIP3    H225676   1.179   0.103  10.979 -1.8053  1.4671 -1.0775
 1421TIP3   OH225677   3.750   4.576  11.994 -0.2178  0.7539  0.3701
 1421TIP3    H125678   3.796   4.552  11.913 -1.7354 -1.3017  0.0593
 1421TIP3    H225679   3.809   4.548  12.064 -1.2791 -2.7019 -0.0127
 1422TIP3   OH225680   3.826   4.028  15.027 -0.4513 -0.4217 -0.6968
 1422TIP3    H125681   3.889   4.030  14.955 -0.1664 -0.5096 -0.4511
 1422TIP3    H225682   3.832   4.114  15.068 -1.2258 -0.0760 -1.2987
 1423TIP3   OH225683   3.578   4.587   0.525  0.1836 -0.4226 -0.0403
 1423TIP3    H125684   3.541   4.638   0.453  1.8005  1.5720  0.4992
 1423TIP3    H225685   3.513   4.593   0.594 -0.3796 -0.4942 -0.5564
 1424TIP3   OH225686   5.824   1.406  16.115 -0.5898 -0.7632 -0.8390
 1424TIP3    H125687   5.735   1.371  16.115 -0.2629 -1.6355  0.5131
 1424TIP3    H225688   5.838   1.438  16.026 -2.3905 -0.2676 -0.9563
 1425TIP3   OH225689   0.830   2.842   2.037 -0.4796  0.3413 -0.1769
 1425TIP3    H125690   0.790   2.756   2.032  1.6477 -0.6345 -0.8851
 1425TIP3    H225691   0.774   2.898   1.983 -3.2554 -0.0029  2.2133
 1426TIP3   OH225692   1.104   3.272   1.504  0.2640 -0.5549 -0.3275
 1426TIP3    H125693   1.019   3.231   1.517  0.9661 -1.6670  0.8613
 1426TIP3    H225694   1.154   3.248   1.582  0.8523  2.1854  0.1882
 1427TIP3   OH225695   5.108   2.360   1.354 -0.3519  0.2464  0.6609
 1427TIP3    H125696   5.043   2.338   1.421  1.0364 -2.6151  1.1173
 1427TIP3    H225697   5.165   2.424   1.396 -0.5575 -0.1717  1.5915
 1428TIP3   OH225698   1.306   2.964   0.313 -0.0676  0.0528 -0.4104
 1428TIP3    H125699   1.231   2.905   0.318  0.4222 -0.5207  0.2853
 1428TIP3    H225700   1.319   2.993   0.404  1.7754 -1.3940 -0.1746
 1429TIP3   OH225701   0.766   6.147  13.776 -0.4097 -0.2870  0.9686
 1429TIP3    H125702   0.820   6.203  13.832 -0.8301 -0.9952  2.0995
 1429TIP3    H225703   0.822   6.127  13.701  0.6556 -0.4480  1.7962
 1430TIP3   OH225704   4.196   2.343   6.994 -0.1409 -0.2530  0.0926
 1430TIP3    H125705   4.154   2.399   6.929  0.3060 -0.0383 -0.0111
 1430TIP3    H225706   4.279   2.317   6.954  1.0905  1.5527  1.4113
 1431TIP3   OH225707   0.284   1.458   3.676  0.3216  0.0468 -0.2096
 1431TIP3    H125708   0.350   1.526   3.691  2.3027 -1.0412 -3.3979
 1431TIP3    H225709   0.335   1.382   3.647 -2.0813 -1.9474  0.6528
 1432TIP3   OH225710   2.246   3.934  13.367  0.6920  0.0090  0.0983
 1432TIP3    H125711   2.291   3.880  13.431  1.0858  0.6009  0.3209
 1432TIP3    H225712   2.262   4.024  13.395 -0.5158  0.2294  0.1057
 1433TIP3   OH225713   2.430   2.092  11.539  0.7283  0.1831  0.0354
 1433TIP3    H125714   2.444   2.009  11.494  2.3402 -0.0474  0.9330
 1433TIP3    H225715   2.447   2.073  11.631 -0.8876  1.0511  0.5469
 1434TIP3   OH225716   0.003   0.600  14.549 -0.3342  0.9181  0.0491
 1434TIP3    H125717  -0.081   0.558  14.567 -0.4168  1.4791  1.0592
 1434TIP3    H225718   0.034   0.560  14.468 -1.2217  0.1689  0.0748
 1435TIP3   OH225719   1.603   3.731   0.559  0.3841  0.0837  1.1253
 1435TIP3    H125720   1.665   3.795   0.596  1.7408  1.1310 -2.7528
 1435TIP3    H225721   1.563   3.777   0.485 -2.1229 -1.9998  1.1258
 1436TIP3   OH225722   0.625   5.722  10.625  0.1039 -0.2467  0.3516
 1436TIP3    H125723   0.552   5.754  10.572  0.8176  1.8314  0.5521
 1436TIP3    H225724   0.698   5.778  10.600  1.2744 -1.3809  1.1833
 1437TIP3   OH225725   5.407   4.521  15.012  0.2650  0.1312 -0.2040
 1437TIP3    H125726   5.382   4.556  14.927  0.7551  1.7502  0.3091
 1437TIP3    H225727   5.428   4.598  15.065 -0.9977 -0.7936  1.6877
 1438TIP3   OH225728   5.197   1.797  14.356 -0.3419  0.0462  0.1212
 1438TIP3    H125729   5.216   1.781  14.264  2.4925  0.1950  0.6285
 1438TIP3    H225730   5.221   1.888  14.370  3.8188 -1.2167  2.0110
 1439TIP3   OH225731   2.327   6.156  16.900 -0.0590  0.3567  0.2680
 1439TIP3    H125732   2.420   6.138  16.915  0.8631  2.3817 -2.5958
 1439TIP3    H225733   2.282   6.110  16.971  3.0964 -0.8554  1.5800
 1440TIP3   OH225734   2.305   2.835  12.060  0.5538 -0.6579 -0.2030
 1440TIP3    H125735   2.262   2.749  12.057 -0.0731 -0.4952  2.4924
 1440TIP3    H225736   2.236   2.897  12.036  0.2716 -0.7002  0.4891
 1441TIP3   OH225737   1.801   0.528  10.840  0.4886 -0.1350 -0.5678
 1441TIP3    H125738   1.791   0.622  10.848  1.8127  0.1101 -1.5887
 1441TIP3    H225739   1.795   0.495  10.930 -1.2465  0.7623 -0.3236
 1442TIP3   OH225740   1.062   4.346  14.964  0.1026 -0.3735  0.1244
 1442TIP3    H125741   1.014   4.309  15.038  2.3223 -0.7073  1.4320
 1442TIP3    H225742   1.088   4.270  14.912 -0.4857 -0.2139 -0.4121
 1443TIP3   OH225743   6.266   0.597  15.271  0.7113 -0.6355  0.8148
 1443TIP3    H125744   6.290   0.690  15.276 -1.0367 -0.2425  2.3155
 1443TIP3    H225745   6.313   0.556  15.343  0.0904 -0.5790  1.2610
 1444TIP3   OH225746   3.995   0.062   5.331  0.4312  0.3165 -0.0163
 1444TIP3    H125747   4.054   0.054   5.406 -0.0156 -1.0475  0.1994
 1444TIP3    H225748   3.912   0.091   5.369 -0.3811 -2.3308  0.2998
 1445TIP3   OH225749   0.208   1.839  14.417 -0.2004 -0.2022  0.2671
 1445TIP3    H125750   0.249   1.761  14.455 -0.5238 -0.1239  0.7857
 1445TIP3    H225751   0.272   1.871  14.353  0.5947 -0.0214  1.1375
 1446TIP3   OH225752   6.319   6.485   2.853  0.1384  0.2328  1.3942
 1446TIP3    H125753   6.294   6.395   2.829 -1.6806  1.1186 -0.2332
 1446TIP3    H225754   6.343   6.525   2.769 -2.2782  2.2000  1.5973
 1447TIP3   OH225755   0.434   3.929  14.497 -0.1161  0.0210  0.0392
 1447TIP3    H125756   0.527   3.917  14.520 -1.2723 -1.2040  4.5314
 1447TIP3    H225757   0.430   4.017  14.460  3.0101 -0.4207 -1.5816
 1448TIP3   OH225758   1.720   6.203  15.782 -0.5881 -0.2260 -0.5270
 1448TIP3    H125759   1.765   6.136  15.732 -1.7583 -1.4216 -0.0177
 1448TIP3    H225760   1.724   6.281  15.727  0.1163 -0.9174 -1.4669
 1449TIP3   OH225761   1.373   5.081   5.918  0.0827 -0.1055  0.4045
 1449TIP3    H125762   1.398   4.998   5.958  0.3589 -0.5518 -0.6768
 1449TIP3    H225763   1.455   5.120   5.890 -0.1546 -0.0378 -0.1970
 1450TIP3   OH225764   2.259   6.667  15.737  0.7171  0.4084 -0.0745
 1450TIP3    H125765   2.198   6.699  15.671 -0.3256 -1.2732  0.0427
 1450TIP3    H225766   2.341   6.714  15.719 -0.7808  3.2134  0.2222
 1451TIP3   OH225767   5.339   0.011   5.144  0.2002  0.4517  0.3065
 1451TIP3    H125768   5.318   0.102   5.124  1.8233  0.9368  0.7407
 1451TIP3    H225769   5.356  -0.029   5.059 -3.0326 -0.1260 -0.1201
 1452TIP3   OH225770   3.832   3.536  16.214 -0.2422 -0.5592 -0.6377
 1452TIP3    H125771   3.751   3.531  16.164 -0.8559  0.7723  0.1681
 1452TIP3    H225772   3.891   3.474  16.173 -0.8444  0.2746 -2.8038
 1453TIP3   OH225773   2.362   4.557   2.128  0.5934 -0.2718 -0.6641
 1453TIP3    H125774   2.393   4.545   2.218 -1.3978  0.5056  0.1502
 1453TIP3    H225775   2.284   4.503   2.123  0.8829 -0.5762 -2.0537
 1454TIP3   OH225776   1.975   5.255   0.021  0.2250  0.4427  0.0547
 1454TIP3    H125777   1.941   5.286   0.105  1.8405 -1.6343  1.5287
 1454TIP3    H225778   2.005   5.166   0.038  0.5814 -0.0399 -2.7455
 1455TIP3   OH225779   1.275   3.899   2.285 -0.0031 -0.2374  0.2307
 1455TIP3    H125780   1.234   3.884   2.200 -0.2051  0.5499  0.1858
 1455TIP3    H225781   1.212   3.866   2.349 -0.2106 -0.0707  0.1108
 1456TIP3   OH225782   2.816   5.016   4.874  0.7695  0.2176  0.0529
 1456TIP3    H125783   2.837   5.026   4.782 -1.8499  0.5093 -0.5307
 1456TIP3    H225784   2.901   5.025   4.919  2.0243  0.2717 -2.2741
 1457TIP3   OH225785   5.259   5.916   0.344  0.7233  0.2554  0.1596
 1457TIP3    H125786   5.306   5.967   0.410 -0.0043  0.0256  0.8671
 1457TIP3    H225787   5.192   5.869   0.394  0.2369 -0.0047 -0.7341
 1458TIP3   OH225788   2.082   5.793   2.640  0.3830 -0.8114  0.3726
 1458TIP3    H125789   2.137   5.865   2.608 -1.1977 -0.0984 -0.8415
 1458TIP3    H225790   2.071   5.811   2.733  1.3271 -0.3739  0.4002
 1459TIP3   OH225791   5.432   2.363  14.909 -0.0879 -0.3819  0.7429
 1459TIP3    H125792   5.423   2.382  15.003 -0.4735  0.0179  0.6270
 1459TIP3    H225793   5.387   2.435  14.866  0.8408 -0.0991  0.2245
 1460TIP3   OH225794   4.268   6.165  16.320 -0.2489 -0.4021 -0.4000
 1460TIP3    H125795   4.351   6.212  16.331 -0.2544 -0.1307 -1.4655
 1460TIP3    H225796   4.292   6.088  16.268 -0.6778 -0.2701 -0.7965
 1461TIP3   OH225797   6.617   6.437   0.123  0.4060  0.1341  0.1455
 1461TIP3    H125798   6.593   6.384   0.046  0.2979  1.2324 -0.5833
 1461TIP3    H225799   6.678   6.381   0.172  0.0918 -0.7733 -0.4736
 1462TIP3   OH225800   3.072   5.408  14.157 -0.4873 -0.2067 -0.2389
 1462TIP3    H125801   3.081   5.490  14.108 -2.3205  0.0715 -0.1568
 1462TIP3    H225802   3.050   5.343  14.090  1.6662 -0.7944 -0.4024
 1463TIP3   OH225803   0.144   2.210  16.034  0.1732 -0.3743 -1.1173
 1463TIP3    H125804   0.168   2.248  16.118 -1.7731 -2.6498  0.5181
 1463TIP3    H225805   0.204   2.250  15.971  1.9392  1.0161  1.4011
 1464TIP3   OH225806   4.294   0.205   5.302 -0.1011  0.0743 -0.6811
 1464TIP3    H125807   4.281   0.284   5.356  0.9003 -0.9003  1.0382
 1464TIP3    H225808   4.316   0.137   5.365  0.1523 -1.3382 -2.2691
 1465TIP3   OH225809   2.947   0.171  15.121 -0.1945 -0.1832  1.0007
 1465TIP3    H125810   2.951   0.236  15.191 -0.5292  1.5288 -0.5129
 1465TIP3    H225811   3.036   0.164  15.089 -0.5584  1.3790 -0.4333
 1466TIP3   OH225812   5.709   0.100  15.097 -0.3897 -0.1482 -0.0739
 1466TIP3    H125813   5.779   0.161  15.122 -0.3311 -0.2264 -0.0440
 1466TIP3    H225814   5.687   0.055  15.179 -1.1292  0.5374  0.1111
 1467TIP3   OH225815   4.543   1.708  12.633  0.0700  1.3305  0.1913
 1467TIP3    H125816   4.545   1.677  12.543 -0.9191 -0.5386  0.7943
 1467TIP3    H225817   4.635   1.718  12.657  0.4199 -1.2292  0.0045
 1468TIP3   OH225818   0.932   0.165  10.389  0.8733 -0.6538 -0.2036
 1468TIP3    H125819   0.911   0.078  10.356  0.0898 -0.9927  1.1268
 1468TIP3    H225820   0.849   0.213  10.384  1.3491  0.0852 -1.1320
 1469TIP3   OH225821   1.188   2.677  16.824  0.4964  1.0654 -0.2680
 1469TIP3    H125822   1.269   2.680  16.875  0.8365  0.8476 -0.7857
 1469TIP3    H225823   1.137   2.607  16.864  0.2876  1.6450  0.4753
 1470TIP3   OH225824   2.544   6.304   1.326  0.2225  0.1334 -0.7301
 1470TIP3    H125825   2.495   6.230   1.290  0.3959 -0.5537  0.4111
 1470TIP3    H225826   2.585   6.345   1.250  0.1231 -0.9319 -1.3741
 1471TIP3   OH225827   5.203   1.180  13.163  0.1762 -0.2926  0.0484
 1471TIP3    H125828   5.292   1.155  13.137  0.3165 -1.5308  1.6521
 1471TIP3    H225829   5.215   1.243  13.233 -0.2121  1.4214 -1.4001
 1472TIP3   OH225830   6.490   1.107   1.893  0.4600 -0.5581 -0.1825
 1472TIP3    H125831   6.412   1.092   1.948  2.1842  1.1406  2.8814
 1472TIP3    H225832   6.500   1.026   1.844 -1.4978 -1.9833  1.6460
 1473TIP3   OH225833   4.650   5.543  12.235  0.2080 -0.3933 -0.0251
 1473TIP3    H125834   4.740   5.516  12.253  0.2226  0.3561  1.0572
 1473TIP3    H225835   4.653   5.639  12.236 -0.1644 -0.3233 -2.2239
 1474TIP3   OH225836   2.788   0.144   5.826  0.1767 -0.3268  1.1002
 1474TIP3    H125837   2.701   0.123   5.860 -0.4067 -1.0868 -0.8065
 1474TIP3    H225838   2.834   0.060   5.827  0.3556 -0.2337  0.5728
 1475TIP3   OH225839   1.144   0.218   5.853 -0.3045  0.8066 -0.0230
 1475TIP3    H125840   1.183   0.249   5.935 -0.0862 -0.6953  0.4726
 1475TIP3    H225841   1.162   0.124   5.853  0.7342  0.9757 -2.3722
 1476TIP3   OH225842   1.580   6.097   3.438 -0.0965  0.1086 -0.3877
 1476TIP3    H125843   1.528   6.052   3.505 -0.1647  0.2313 -0.3591
 1476TIP3    H225844   1.662   6.048   3.435  0.9674  1.6771  1.6889
 1477TIP3   OH225845   4.003   3.096  15.598 -0.1204  0.1922 -0.2303
 1477TIP3    H125846   4.057   3.055  15.666 -1.7424 -1.0144  0.3830
 1477TIP3    H225847   4.046   3.179  15.579  1.9101 -0.7202  0.2575
 1478TIP3   OH225848   1.182   2.649  10.923  0.5574  0.2332  0.3357
 1478TIP3    H125849   1.110   2.660  10.860  0.8206  1.2345  0.2009
 1478TIP3    H225850   1.194   2.554  10.929 -0.3349  0.0817 -0.1439
 1479TIP3   OH225851   4.913   1.776  15.957  0.2712  0.3166 -0.0892
 1479TIP3    H125852   4.969   1.836  16.007 -0.9033  0.2897  1.2888
 1479TIP3    H225853   4.939   1.689  15.987 -1.1258  0.3408  1.2448
 1480TIP3   OH225854   2.110   0.053  10.419  0.0556 -0.2010  0.2097
 1480TIP3    H125855   2.153   0.073  10.336  1.6054 -1.5432  0.6602
 1480TIP3    H225856   2.143   0.119  10.480 -0.8411  0.5926 -0.1588
 1481TIP3   OH225857   3.490   4.830  16.515  0.1068 -0.1593  0.8785
 1481TIP3    H125858   3.558   4.763  16.518 -0.4760 -0.9457 -1.7776
 1481TIP3    H225859   3.408   4.781  16.504 -0.2030  0.9649 -2.4621
 1482TIP3   OH225860   1.255   0.207  13.165 -0.5565 -0.4064 -0.6286
 1482TIP3    H125861   1.219   0.147  13.230 -1.1730  0.5764 -0.0493
 1482TIP3    H225862   1.319   0.155  13.116 -0.5439 -1.3215  0.3591
 1483TIP3   OH225863   5.780   1.137   5.781  0.5705 -0.1958 -0.2088
 1483TIP3    H125864   5.767   1.120   5.875  0.2455  0.5018 -0.1282
 1483TIP3    H225865   5.794   1.231   5.776 -0.5743 -0.0678 -0.9984
 1484TIP3   OH225866   5.721   0.582   0.563  0.4635  0.2578 -0.1236
 1484TIP3    H125867   5.767   0.608   0.643  0.0039  1.5239 -0.2561
 1484TIP3    H225868   5.666   0.509   0.590  2.0515 -0.8455  0.1867
 1485TIP3   OH225869   5.523   0.873   2.285  0.6039 -0.2051 -0.8624
 1485TIP3    H125870   5.487   0.923   2.358  2.2321 -0.7404  0.3581
 1485TIP3    H225871   5.546   0.938   2.219  1.4461  0.5528  0.1556
 1486TIP3   OH225872   1.919   6.199  14.580  0.4025 -0.4877  0.1801
 1486TIP3    H125873   1.846   6.245  14.621  2.2025  1.3506  1.4290
 1486TIP3    H225874   1.913   6.110  14.614 -1.6632 -0.5650 -0.3133
 1487TIP3   OH225875   0.629   0.791   4.350  0.9734 -1.0735 -0.2337
 1487TIP3    H125876   0.570   0.836   4.410 -0.5298 -1.1680 -1.6088
 1487TIP3    H225877   0.686   0.860   4.316 -0.0668 -0.5101 -0.8650
 1488TIP3   OH225878   4.129   0.478   0.296 -0.4366 -0.2253  0.7401
 1488TIP3    H125879   4.098   0.395   0.331  0.0329 -0.8502 -0.2902
 1488TIP3    H225880   4.216   0.458   0.261 -0.9382  0.3281 -0.8689
 1489TIP3   OH225881   3.039   2.795   3.831  0.0728  0.6416 -0.0041
 1489TIP3    H125882   3.007   2.735   3.899 -0.0904 -0.5799 -1.1248
 1489TIP3    H225883   2.994   2.766   3.752  2.6839 -0.0361 -1.2825
 1490TIP3   OH225884   0.550   1.898   5.275 -0.2896 -0.3428 -0.0217
 1490TIP3    H125885   0.560   1.940   5.360 -0.3725 -1.5848  0.6081
 1490TIP3    H225886   0.487   1.953   5.228 -0.6962  0.0147  0.9387
 1491TIP3   OH225887   4.746   2.173  16.884 -0.5559  0.4328 -0.2605
 1491TIP3    H125888   4.751   2.267  16.898 -0.5680  0.7267 -2.1178
 1491TIP3    H225889   4.655   2.150  16.901 -0.2020  0.4790  1.7587
 1492TIP3   OH225890   4.565   3.142  15.040 -0.2996  0.2400 -0.6189
 1492TIP3    H125891   4.494   3.089  15.004 -0.7517  0.3882  0.0487
 1492TIP3    H225892   4.565   3.222  14.987 -1.8312  1.0315  0.5490
 1493TIP3   OH225893   4.979   4.682   2.653 -0.2793 -0.3434  0.0800
 1493TIP3    H125894   4.914   4.714   2.716 -0.5501  0.8569 -0.7786
 1493TIP3    H225895   5.045   4.638   2.706 -0.4124  0.7997  1.2246
 1494TIP3   OH225896   5.046   1.772  14.955  0.1189  0.2645 -0.4307
 1494TIP3    H125897   5.046   1.726  15.039 -2.0108 -1.3438 -1.2513
 1494TIP3    H225898   5.069   1.862  14.976  0.2258 -0.2620  1.7868
 1495TIP3   OH225899   6.263   5.274  12.660 -0.0744  0.7279  0.3361
 1495TIP3    H125900   6.256   5.196  12.715 -2.2973  0.3533 -0.4370
 1495TIP3    H225901   6.335   5.324  12.698 -0.3400 -0.4454  2.4242
 1496TIP3   OH225902   6.126   4.551  13.589 -0.1738 -0.2813  0.0488
 1496TIP3    H125903   6.114   4.631  13.640  0.7442  0.8697 -1.4801
 1496TIP3    H225904   6.193   4.502  13.637 -0.3555  0.1198  0.7219
 1497TIP3   OH225905   2.065   6.668  10.817 -0.0098  0.3223  0.2979
 1497TIP3    H125906   1.979   6.672  10.858 -1.1672  2.3789 -2.1542
 1497TIP3    H225907   2.048   6.640  10.727  1.9943 -0.1879  0.0452
 1498TIP3   OH225908   5.455   1.809   6.674  0.3077 -0.3097  0.4278
 1498TIP3    H125909   5.521   1.848   6.731  1.0868  0.0331 -0.6890
 1498TIP3    H225910   5.453   1.867   6.598  1.1996 -2.2218 -1.0957
 1499TIP3   OH225911   2.754   0.030  16.685 -0.0833 -0.3269  0.0447
 1499TIP3    H125912   2.702  -0.037  16.639  1.3445 -1.9249  0.6806
 1499TIP3    H225913   2.747   0.006  16.777  0.1216  0.6387  0.3104
 1500TIP3   OH225914   0.223   3.601  12.304 -0.1272 -0.4550 -0.0455
 1500TIP3    H125915   0.184   3.518  12.275 -1.8457  0.0507  0.8022
 1500TIP3    H225916   0.169   3.669  12.264  1.0872  0.2888 -0.4774
 1501TIP3   OH225917   3.813   5.240  14.553  0.1727 -0.3280  0.3155
 1501TIP3    H125918   3.762   5.266  14.477  0.9078 -2.0164 -0.7825
 1501TIP3    H225919   3.750   5.198  14.611 -0.2033  0.0966  0.2183
 1502TIP3   OH225920   6.212   1.625   3.890  0.3927  0.3492 -0.3393
 1502TIP3    H125921   6.190   1.548   3.837  0.4892 -0.5354  0.8865
 1502TIP3    H225922   6.256   1.589   3.967  0.0717  1.6050  0.4399
 1503TIP3   OH225923   1.622   1.272   0.618  0.0632 -0.2227 -0.5016
 1503TIP3    H125924   1.619   1.334   0.545  0.7948 -0.5550 -0.8205
 1503TIP3    H225925   1.555   1.303   0.678  1.1963  1.5411 -0.1105
 1504TIP3   OH225926   6.203   1.258  11.540  0.5642  0.0667  0.4499
 1504TIP3    H125927   6.201   1.323  11.470 -0.1461 -0.3063  0.1118
 1504TIP3    H225928   6.114   1.259  11.576  0.0442 -1.9055 -0.6832
 1505TIP3   OH225929   0.129   2.189   2.039 -0.0819  0.6350  0.1770
 1505TIP3    H125930   0.037   2.172   2.016  0.2682 -1.0422 -0.0031
 1505TIP3    H225931   0.169   2.218   1.957 -0.3721  1.1118  0.1973
 1506TIP3   OH225932   6.774   2.582   2.427  0.5419  1.0847  0.1412
 1506TIP3    H125933   6.841   2.558   2.490  2.1416  0.1514 -1.8689
 1506TIP3    H225934   6.725   2.501   2.411  2.5673  0.3329 -2.6302
 1507TIP3   OH225935   1.515   1.795  16.290 -0.4803  0.3779  0.6126
 1507TIP3    H125936   1.453   1.781  16.361 -0.7881  1.4576  0.5662
 1507TIP3    H225937   1.477   1.747  16.216 -0.0800 -0.8699  1.2033
 1508TIP3   OH225938   1.664   3.241   0.379  0.1016  0.3118 -0.3533
 1508TIP3    H125939   1.647   3.240   0.473 -0.5658  0.7458 -0.4668
 1508TIP3    H225940   1.586   3.281   0.341  0.1116 -0.4165 -1.1490
 1509TIP3   OH225941   2.797   6.117  12.715 -0.1130 -0.1089 -0.7466
 1509TIP3    H125942   2.876   6.069  12.738 -1.3234 -3.0734 -2.5185
 1509TIP3    H225943   2.727   6.077  12.767 -0.7247  1.5058 -0.2815
 1510TIP3   OH225944   0.776   4.061   1.024 -0.0620  0.3135 -0.4357
 1510TIP3    H125945   0.869   4.046   1.042  0.2363  0.7786 -1.6089
 1510TIP3    H225946   0.774   4.103   0.938 -1.3262  0.7741 -0.1906
 1511TIP3   OH225947   5.387   0.091  15.923  0.2441  0.2182  0.2515
 1511TIP3    H125948   5.430   0.049  15.997  0.3902  0.3976  0.2671
 1511TIP3    H225949   5.383   0.023  15.855  0.3918  0.1508  0.3105
 1512TIP3   OH225950   2.528   4.821   1.702 -0.2555 -0.1049  0.6558
 1512TIP3    H125951   2.508   4.914   1.690 -0.6436 -0.5473 -2.5186
 1512TIP3    H225952   2.607   4.820   1.756  0.1131  2.0885  0.1953
 1513TIP3   OH225953   6.093   3.688   4.940  0.3333 -0.2982 -0.5116
 1513TIP3    H125954   6.055   3.760   4.891  0.1340 -0.1234 -0.0989
 1513TIP3    H225955   6.020   3.629   4.958  0.4083 -0.3709 -0.4388
 1514TIP3   OH225956   5.263   6.602   5.893  0.0448  0.5714 -0.2513
 1514TIP3    H125957   5.260   6.626   5.986 -0.2309 -2.3439  0.5481
 1514TIP3    H225958   5.357   6.592   5.874  0.0612  0.2480 -0.0125
 1515TIP3   OH225959   3.566   5.346  13.903  0.3706 -0.7049  0.1317
 1515TIP3    H125960   3.543   5.355  13.810 -2.5952 -0.4955  0.8484
 1515TIP3    H225961   3.559   5.435  13.938  0.7897 -0.9019  0.7221
 1516TIP3   OH225962   3.278   5.987  12.483 -0.4023  0.0185 -0.0246
 1516TIP3    H125963   3.193   6.031  12.479 -0.8788 -1.0011 -1.4501
 1516TIP3    H225964   3.274   5.920  12.415  1.6212  0.0818 -0.2345
 1517TIP3   OH225965   4.413   3.589   5.239 -0.3400 -0.4560  0.0093
 1517TIP3    H125966   4.379   3.568   5.326 -1.8640  0.0376 -0.4346
 1517TIP3    H225967   4.419   3.504   5.195  1.3774 -0.8122  0.9079
 1518TIP3   OH225968   0.508   5.923   2.228  0.2910 -0.3043  0.0176
 1518TIP3    H125969   0.439   5.858   2.213  1.4592 -1.8376  1.1966
 1518TIP3    H225970   0.500   5.945   2.321  0.5921  0.4515 -0.1329
 1519TIP3   OH225971   3.884   4.860  13.073 -0.6610  0.2272 -0.8307
 1519TIP3    H125972   3.910   4.891  12.987 -0.2977  0.5197 -0.6131
 1519TIP3    H225973   3.959   4.878  13.130 -0.7728 -0.2626 -0.5232
 1520TIP3   OH225974   3.354   3.016   2.674  0.6068  0.2131  0.5591
 1520TIP3    H125975   3.333   3.009   2.581  0.6049 -0.6491  0.6202
 1520TIP3    H225976   3.410   2.941   2.692 -0.3311 -0.2742  1.5155
 1521TIP3   OH225977   0.544   3.215   5.480  0.3679 -0.0527 -0.1733
 1521TIP3    H125978   0.497   3.132   5.469 -0.5131  0.3859  0.2541
 1521TIP3    H225979   0.636   3.190   5.478  0.1498 -1.5447  3.4310
 1522TIP3   OH225980   6.666   4.436   0.213  0.4727 -0.5427 -0.2703
 1522TIP3    H125981   6.655   4.350   0.172  3.6580 -0.7898 -0.7149
 1522TIP3    H225982   6.690   4.494   0.141  2.7226 -0.2581  0.6715
 1523TIP3   OH225983   2.164   2.774  14.323 -0.0635  0.3170 -0.0915
 1523TIP3    H125984   2.131   2.796  14.411  0.3985  0.5688  0.0218
 1523TIP3    H225985   2.186   2.681  14.328 -1.2994  0.0058 -0.3388
 1524TIP3   OH225986   0.367   5.758   3.163 -0.5387  0.2933  0.0024
 1524TIP3    H125987   0.441   5.708   3.197 -0.6623 -0.2666 -0.5423
 1524TIP3    H225988   0.407   5.839   3.130 -0.1274 -0.1024 -0.4962
 1525TIP3   OH225989   1.779   1.128   2.347 -0.2046  0.1113  0.5551
 1525TIP3    H125990   1.778   1.185   2.424 -0.8502  2.5182 -1.2136
 1525TIP3    H225991   1.687   1.104   2.334 -0.3303  1.2144 -0.5765
 1526TIP3   OH225992   5.213   2.922  13.884 -0.5275  0.1755 -0.5817
 1526TIP3    H125993   5.295   2.927  13.934 -1.0508  0.6601  0.2416
 1526TIP3    H225994   5.241   2.922  13.793  0.4210 -0.1732 -0.2977
 1527TIP3   OH225995   0.848   3.130   1.438  0.3419  0.1458 -0.3732
 1527TIP3    H125996   0.881   3.079   1.512  0.5939 -0.1916 -0.7105
 1527TIP3    H225997   0.763   3.162   1.466  0.1726 -0.4871 -0.1613
 1528TIP3   OH225998   2.525   0.767   1.565 -0.1477 -0.0598 -0.3231
 1528TIP3    H125999   2.461   0.711   1.609  0.2743 -0.2491  0.0562
 1528TIP3    H226000   2.502   0.856   1.591 -1.0090 -0.0241 -1.1722
 1529TIP3   OH226001   4.563   0.318   3.016 -0.3151  0.5158  0.2458
 1529TIP3    H126002   4.512   0.339   2.938 -0.3540 -0.8952 -0.1201
 1529TIP3    H226003   4.591   0.228   3.003 -0.7550  0.0888  2.1170
 1530TIP3   OH226004   5.463   5.832   5.561 -0.9708  0.3749  0.5155
 1530TIP3    H126005   5.437   5.844   5.652  1.7049 -0.2238  1.4011
 1530TIP3    H226006   5.487   5.919   5.531  0.2219  0.2380  1.0610
 1531TIP3   OH226007   2.043   1.646   4.779  0.2618 -0.1483  0.1234
 1531TIP3    H126008   2.068   1.607   4.863  1.6345  0.0297 -0.1777
 1531TIP3    H226009   1.977   1.711   4.801  1.0816  0.3566  1.1497
 1532TIP3   OH226010   1.796   0.774   3.336 -0.0657  0.1718  0.3532
 1532TIP3    H126011   1.871   0.752   3.281  0.8147  0.2906  1.4850
 1532TIP3    H226012   1.728   0.803   3.274  0.2012 -1.6030 -0.8201
 1533TIP3   OH226013   1.430   1.817   3.539  0.3078 -0.5450 -0.0742
 1533TIP3    H126014   1.423   1.906   3.506 -0.2415  0.0517  1.6115
 1533TIP3    H226015   1.363   1.768   3.490  1.2969 -0.2959 -1.7335
 1534TIP3   OH226016   5.081   0.230  14.188  0.3462 -0.3758 -0.1167
 1534TIP3    H126017   5.160   0.276  14.218  0.1133  0.1068 -0.2472
 1534TIP3    H226018   5.008   0.284  14.217  0.1434  0.7896 -2.6290
 1535TIP3   OH226019   4.124   5.091  15.327  0.0450 -0.2286 -0.0340
 1535TIP3    H126020   4.147   5.181  15.350 -0.7836 -0.0621  0.1861
 1535TIP3    H226021   4.069   5.100  15.249  1.7485 -0.6956 -1.3098
 1536TIP3   OH226022   6.206   0.062  16.722 -0.0903 -0.0755 -0.5417
 1536TIP3    H126023   6.217   0.032  16.812 -1.2081  0.0671 -0.3558
 1536TIP3    H226024   6.278   0.124  16.708  0.6455 -0.8068 -0.0687
 1537TIP3   OH226025   4.150   5.346  12.803 -0.3700 -0.1252  0.1724
 1537TIP3    H126026   4.108   5.346  12.889  1.8360 -1.8750  1.3093
 1537TIP3    H226027   4.139   5.435  12.771 -2.4749  0.1740  1.6353
 1538TIP3   OH226028   1.799   2.768  16.274  0.7013  0.2537  0.3824
 1538TIP3    H126029   1.773   2.861  16.269  0.6191  0.1810 -0.7066
 1538TIP3    H226030   1.768   2.739  16.359  0.5731  1.1890  0.6619
 1539TIP3   OH226031   1.002   1.359  11.601 -0.3116  0.0729  0.4395
 1539TIP3    H126032   1.070   1.403  11.550 -0.1951 -0.3894  0.1933
 1539TIP3    H226033   1.042   1.347  11.687  0.5725 -1.7728 -0.2117
 1540TIP3   OH226034   6.222   2.895   6.065 -0.1839  0.7311 -0.2697
 1540TIP3    H126035   6.174   2.939   6.136  0.0096 -0.5289  0.6470
 1540TIP3    H226036   6.265   2.967   6.018 -1.5980  1.7261 -0.0923
 1541TIP3   OH226037   1.262   5.850  15.500  0.3041 -0.0728  0.1066
 1541TIP3    H126038   1.315   5.820  15.574  0.0532  1.5787  0.9782
 1541TIP3    H226039   1.184   5.889  15.541  0.2540  1.0316 -1.0234
 1542TIP3   OH226040   3.257   2.506   1.383 -0.2093 -0.2921  0.3560
 1542TIP3    H126041   3.219   2.454   1.454  0.7710 -0.6618  0.6291
 1542TIP3    H226042   3.189   2.569   1.360 -0.9269 -0.8421  0.9187
 1543TIP3   OH226043   1.789   3.459   6.114  0.9888  0.1640 -0.5806
 1543TIP3    H126044   1.848   3.509   6.171  0.4446  0.5858 -0.3848
 1543TIP3    H226045   1.748   3.525   6.058  1.8076 -0.2879 -1.7393
 1544TIP3   OH226046   1.546   1.350  11.667 -0.1385 -0.1017  0.3615
 1544TIP3    H126047   1.497   1.431  11.680 -2.4534 -1.7645  2.6644
 1544TIP3    H226048   1.615   1.352  11.734  1.6450  1.2478 -1.4724
 1545TIP3   OH226049   4.292   4.331  13.141 -0.7173 -0.8898 -0.0125
 1545TIP3    H126050   4.368   4.358  13.192 -0.3832  1.1015 -1.5175
 1545TIP3    H226051   4.305   4.237  13.126  0.4786 -0.9527  1.3019
 1546TIP3   OH226052   0.002   1.282  15.239 -0.4089 -0.1759  0.4768
 1546TIP3    H126053  -0.027   1.254  15.325 -0.1455  1.5428  1.1380
 1546TIP3    H226054   0.049   1.364  15.254 -0.1380  0.0228 -1.2633
 1547TIP3   OH226055   4.139   1.594   6.553 -0.7225 -0.2485  0.3783
 1547TIP3    H126056   4.083   1.518   6.540 -1.6971  0.4698  0.3259
 1547TIP3    H226057   4.091   1.650   6.615  0.4650 -0.1629  1.2452
 1548TIP3   OH226058   1.785   6.106  11.711  0.1272 -0.7101 -0.1473
 1548TIP3    H126059   1.757   6.091  11.621  1.2513 -2.2779 -0.2741
 1548TIP3    H226060   1.876   6.134  11.704 -0.0559  0.0671  0.4586
 1549TIP3   OH226061   4.071   3.736  15.906  0.0097  0.6019 -0.6660
 1549TIP3    H126062   4.001   3.720  15.842  0.6019  0.4520 -1.2889
 1549TIP3    H226063   4.028   3.780  15.979 -0.7649  0.3666 -0.9738
 1550TIP3   OH226064   4.196   0.676   2.597 -0.6490 -0.0760 -0.0338
 1550TIP3    H126065   4.109   0.679   2.638 -0.5146 -0.0261  0.2534
 1550TIP3    H226066   4.250   0.732   2.653 -0.0926 -1.2229  0.5991
 1551TIP3   OH226067   3.312   2.717  12.796  0.9287  0.1796  0.4204
 1551TIP3    H126068   3.271   2.785  12.742 -0.2638 -1.8522 -1.2669
 1551TIP3    H226069   3.293   2.744  12.886 -1.4473  0.9404 -0.2696
 1552TIP3   OH226070   1.119   3.229  12.407  0.2025 -0.3197  0.2887
 1552TIP3    H126071   1.084   3.156  12.356  0.8410 -1.3931  1.3651
 1552TIP3    H226072   1.044   3.264  12.455 -0.0122 -0.5700  0.1331
 1553TIP3   OH226073   0.513   5.664   4.624  0.1786  0.1191 -0.0891
 1553TIP3    H126074   0.519   5.610   4.545  1.4266 -0.5964  0.4929
 1553TIP3    H226075   0.458   5.739   4.597 -2.2731 -1.8079 -0.6705
 1554TIP3   OH226076   1.893   1.827   2.200  0.2999 -0.3114 -0.3851
 1554TIP3    H126077   1.848   1.772   2.264  1.7672 -1.1058  0.0040
 1554TIP3    H226078   1.904   1.911   2.245 -0.4482 -0.2347 -0.3437
 1555TIP3   OH226079   6.372   5.306  16.490  0.2261  0.0127 -0.2136
 1555TIP3    H126080   6.381   5.342  16.578  0.6557 -2.3299  0.7387
 1555TIP3    H226081   6.282   5.327  16.464  0.3208  1.3077  0.5004
 1556TIP3   OH226082   4.140   1.550   2.198  0.0241 -0.2189  0.0232
 1556TIP3    H126083   4.149   1.604   2.119  1.3580  0.6431  0.7561
 1556TIP3    H226084   4.046   1.548   2.215  0.0850  3.3143  0.9687
 1557TIP3   OH226085   6.106   0.933   4.306  0.3462 -1.1351  0.0819
 1557TIP3    H126086   6.167   0.959   4.375 -0.3145  0.7081 -0.0002
 1557TIP3    H226087   6.157   0.875   4.249  1.9305  0.1655  0.1563
 1558TIP3   OH226088   6.336   1.142  16.350  0.5905 -0.7027 -0.5170
 1558TIP3    H126089   6.318   1.090  16.428 -0.1173  0.0188 -0.1915
 1558TIP3    H226090   6.284   1.100  16.281  0.6408 -0.9035 -0.4321
 1559TIP3   OH226091   2.394   3.291  15.275 -0.1966  0.3160  0.1925
 1559TIP3    H126092   2.383   3.346  15.353  1.5624  0.1684  0.5878
 1559TIP3    H226093   2.307   3.285  15.237 -0.9884  0.8624  1.8449
 1560TIP3   OH226094   0.762   3.319  15.410 -0.2123  0.3296  0.0248
 1560TIP3    H126095   0.723   3.345  15.326  1.7197  1.6397 -0.5048
 1560TIP3    H226096   0.731   3.385  15.472 -2.3948 -1.1688  0.5677
 1561TIP3   OH226097   2.918   2.185  16.160 -0.3787  0.0411 -0.0128
 1561TIP3    H126098   2.915   2.130  16.239 -1.1978  0.4846  0.2654
 1561TIP3    H226099   2.896   2.273  16.191  1.2803  0.6231 -0.4023
 1562TIP3   OH226100   6.004   4.696   3.149 -0.3274 -0.0100 -0.3056
 1562TIP3    H126101   5.961   4.613   3.170  1.4863 -0.8078  0.2961
 1562TIP3    H226102   5.936   4.747   3.105 -2.1531 -0.9276  1.3749
 1563TIP3   OH226103   2.690   3.692  15.317  0.0680 -0.2043 -0.5171
 1563TIP3    H126104   2.752   3.752  15.359  1.1001  0.0434 -2.3644
 1563TIP3    H226105   2.732   3.667  15.235 -2.5598  0.4970 -2.1473
 1564TIP3   OH226106   3.485   4.911  11.402  0.1691  0.0056 -0.0216
 1564TIP3    H126107   3.458   4.877  11.487 -0.2016 -1.6819 -0.7898
 1564TIP3    H226108   3.403   4.928  11.356  0.3756 -0.0606 -0.4147
 1565TIP3   OH226109   4.191   1.491   0.873  0.1592  0.5231  0.1647
 1565TIP3    H126110   4.186   1.398   0.894 -1.0789  0.5684  0.1634
 1565TIP3    H226111   4.198   1.535   0.957 -0.9719  0.5074  0.2773
 1566TIP3   OH226112   5.578   6.432  11.524 -0.2307  0.0883  0.7009
 1566TIP3    H126113   5.537   6.345  11.517  2.0241 -0.9998  0.4606
 1566TIP3    H226114   5.564   6.471  11.438 -0.7541 -0.2663  0.6176
 1567TIP3   OH226115   0.056   1.672  16.200 -0.4032 -0.6655 -0.7640
 1567TIP3    H126116   0.036   1.766  16.199  0.3745 -0.4935 -0.7013
 1567TIP3    H226117   0.079   1.652  16.109 -1.6187 -1.0325 -1.0004
 1568TIP3   OH226118   6.606   4.145  16.868  0.0036 -0.1091 -0.1529
 1568TIP3    H126119   6.687   4.194  16.879  0.2145 -0.6659  0.8248
 1568TIP3    H226120   6.632   4.053  16.876 -0.1827 -0.4799 -3.1441
 1569TIP3   OH226121   2.505   4.310  13.886  0.2067 -0.0120 -0.2057
 1569TIP3    H126122   2.566   4.259  13.832  1.8598 -1.0968  2.5852
 1569TIP3    H226123   2.458   4.245  13.938 -1.0805  1.0328 -0.0380
 1570TIP3   OH226124   3.521   0.575  14.560 -0.2464  0.0884 -0.0084
 1570TIP3    H126125   3.505   0.640  14.628  0.6821 -1.1043  1.3933
 1570TIP3    H226126   3.457   0.595  14.492 -0.5455  1.9126  0.7728
 1571TIP3   OH226127   4.051   1.895  12.942 -0.1657  0.7920 -0.4824
 1571TIP3    H126128   4.001   1.817  12.964 -1.7671  2.0807  0.6264
 1571TIP3    H226129   4.018   1.922  12.856  1.3178 -0.4773 -1.4569
 1572TIP3   OH226130   3.357   5.995   2.681  0.3532  0.4169  0.3371
 1572TIP3    H126131   3.356   5.971   2.774 -0.2962 -1.0264 -0.0366
 1572TIP3    H226132   3.267   5.983   2.652  0.5273  0.9823 -0.4593
 1573TIP3   OH226133   4.214   5.998  13.047  0.3450  0.3280 -0.3172
 1573TIP3    H126134   4.151   6.046  12.994  0.1241 -0.5022 -0.8255
 1573TIP3    H226135   4.160   5.952  13.112  0.5854  1.0708  0.4158
 1574TIP3   OH226136   3.949   0.830  15.663  0.8346  0.4648 -0.3290
 1574TIP3    H126137   3.981   0.862  15.747  2.3118 -0.3027 -0.5788
 1574TIP3    H226138   3.981   0.893  15.598 -1.6811  1.9669 -0.1970
 1575TIP3   OH226139   0.525   4.196   3.683 -0.3264 -0.6634 -0.3249
 1575TIP3    H126140   0.454   4.240   3.730  0.4258  1.5660 -1.1776
 1575TIP3    H226141   0.488   4.113   3.654 -2.0494 -0.2629  0.6905
 1576TIP3   OH226142   2.355   2.765   4.003  0.0975 -0.1046  0.2595
 1576TIP3    H126143   2.273   2.813   4.015 -0.0641 -0.3864  0.2806
 1576TIP3    H226144   2.423   2.827   4.031  0.0107  0.7348 -1.3500
 1577TIP3   OH226145   0.370   3.056   0.389  0.2145 -0.3209  0.4444
 1577TIP3    H126146   0.409   3.116   0.325 -0.7396 -1.6702 -1.4268
 1577TIP3    H226147   0.276   3.071   0.382  0.1397  0.1284  2.1658
 1578TIP3   OH226148   6.219   3.742  12.136  0.0902 -0.1679 -0.1698
 1578TIP3    H126149   6.173   3.820  12.166  0.1036  0.0137 -0.6134
 1578TIP3    H226150   6.251   3.700  12.216 -0.6009 -0.1430  0.1226
 1579TIP3   OH226151   3.369   2.452  14.785  0.3060  0.4017  0.0306
 1579TIP3    H126152   3.352   2.508  14.710  0.4586  0.1342 -0.2057
 1579TIP3    H226153   3.432   2.388  14.753  0.8682  0.6793  0.5694
 1580TIP3   OH226154   2.768   2.984   1.415  0.1888 -0.1628  0.0501
 1580TIP3    H126155   2.801   2.965   1.327  1.5996  0.0280  0.5149
 1580TIP3    H226156   2.793   3.075   1.431  0.2371 -0.3008  0.7773
 1581TIP3   OH226157   1.181   4.150  14.808 -0.5265 -0.2871  0.2401
 1581TIP3    H126158   1.266   4.157  14.764 -0.9231  0.1388 -0.4676
 1581TIP3    H226159   1.183   4.064  14.850  0.5322  0.0078  0.8207
 1582TIP3   OH226160   3.869   1.888   0.252  0.6151 -0.3232 -0.2790
 1582TIP3    H126161   3.881   1.809   0.200 -1.7068  0.4918 -2.1390
 1582TIP3    H226162   3.814   1.860   0.325  1.5833 -0.8745  0.2470
 1583TIP3   OH226163   2.509   4.252  14.879 -0.1808 -0.0921  0.4504
 1583TIP3    H126164   2.467   4.166  14.881 -2.4855  1.0277  1.2688
 1583TIP3    H226165   2.439   4.312  14.853  1.2816  1.6216  0.4067
 1584TIP3   OH226166   2.136   1.841  16.331 -0.3665 -0.1644 -0.3100
 1584TIP3    H126167   2.050   1.805  16.310 -0.3596  0.0360 -0.6886
 1584TIP3    H226168   2.198   1.777  16.297 -0.3578  0.0739 -0.7527
 1585TIP3   OH226169   2.861   6.709  14.536  0.0130 -0.1719 -0.0302
 1585TIP3    H126170   2.908   6.626  14.525 -2.7923 -1.8655  0.4868
 1585TIP3    H226171   2.854   6.721  14.631 -1.0154 -0.1721 -0.1000
 1586TIP3   OH226172   2.099   2.155   2.178 -0.3604  0.2812  0.2093
 1586TIP3    H126173   2.126   2.081   2.123 -0.6653 -0.6122  1.2426
 1586TIP3    H226174   2.014   2.182   2.143 -0.8078 -0.6363  0.5699
 1587TIP3   OH226175   0.732   5.951   2.011 -0.0225 -0.0957  0.9288
 1587TIP3    H126176   0.653   5.938   2.062 -1.0137  1.7060 -0.0897
 1587TIP3    H226177   0.769   6.034   2.043 -0.7674  1.1691 -1.3255
 1588TIP3   OH226178   3.641   4.100  16.183 -0.6143  0.2938 -0.5095
 1588TIP3    H126179   3.703   4.055  16.240 -1.3828 -0.4482 -0.2429
 1588TIP3    H226180   3.684   4.182  16.160  0.0738  0.2017  0.4239
 1589TIP3   OH226181   2.890   5.555   3.342 -0.1224  0.0768 -0.0661
 1589TIP3    H126182   2.840   5.627   3.305  0.6816  0.6045 -0.1285
 1589TIP3    H226183   2.895   5.491   3.272  1.3305  1.0388 -0.8574
 1590TIP3   OH226184   5.313   6.183  15.450 -0.0488 -0.0505  0.1940
 1590TIP3    H126185   5.222   6.190  15.419  0.3281 -0.2314 -0.9802
 1590TIP3    H226186   5.321   6.253  15.514 -0.4248  1.3127 -1.2175
 1591TIP3   OH226187   2.825   5.718  16.952 -0.3892 -0.6573  0.1611
 1591TIP3    H126188   2.825   5.679  17.039 -0.8051  0.8582  0.8690
 1591TIP3    H226189   2.904   5.683  16.910  0.6822 -0.1851  1.7243
 1592TIP3   OH226190   5.094   2.640   2.719 -0.6680  0.1454 -0.4996
 1592TIP3    H126191   5.003   2.619   2.701 -1.1499  1.9111 -0.1895
 1592TIP3    H226192   5.100   2.735   2.706  1.3351 -0.0818 -1.4324
 1593TIP3   OH226193   1.027   5.374   5.514  1.0020  0.3926  0.0272
 1593TIP3    H126194   0.950   5.382   5.570  1.1501 -0.2623  0.3268
 1593TIP3    H226195   1.044   5.280   5.510  0.1074  0.3004 -2.3205
 1594TIP3   OH226196   3.033   6.317  16.147 -0.0066  0.5942 -0.5064
 1594TIP3    H126197   2.982   6.393  16.120 -0.8531 -0.2855 -1.4095
 1594TIP3    H226198   3.086   6.348  16.220 -1.8613  1.5183  0.4814
 1595TIP3   OH226199   4.647   2.438  14.747 -0.2287  0.0527  0.5070
 1595TIP3    H126200   4.714   2.427  14.679 -0.4650 -0.3252  0.3355
 1595TIP3    H226201   4.663   2.526  14.782  1.2218 -0.5319  1.3910
 1596TIP3   OH226202   0.817   4.007  14.267  0.0999  0.3113 -0.3761
 1596TIP3    H126203   0.846   4.084  14.219 -0.8498  1.0667  0.2229
 1596TIP3    H226204   0.820   4.034  14.359 -3.4302  0.8118 -0.3301
 1597TIP3   OH226205   3.546   4.056  14.409 -0.7902 -0.5467  0.0806
 1597TIP3    H126206   3.522   4.148  14.409 -1.4048 -0.7023  0.8360
 1597TIP3    H226207   3.630   4.052  14.364 -0.5299  0.4361  0.4877
 1598TIP3   OH226208   1.117   4.808   1.577 -0.6313 -0.8560  0.8082
 1598TIP3    H126209   1.206   4.842   1.589 -0.1298 -1.8856  0.1489
 1598TIP3    H226210   1.077   4.867   1.513  0.0812 -1.2179  0.0028
 1599TIP3   OH226211   1.283   2.641  16.521  0.6444  0.3790 -0.3747
 1599TIP3    H126212   1.336   2.704  16.472 -0.0521  1.1748 -0.1133
 1599TIP3    H226213   1.195   2.651  16.484  0.6689 -0.9364 -0.8127
 1600TIP3   OH226214   3.466   4.387   1.316  0.2848  0.1945  0.4364
 1600TIP3    H126215   3.386   4.389   1.264  1.7766  2.0981 -1.8749
 1600TIP3    H226216   3.492   4.478   1.325  1.0293 -0.2348  3.0700
 1601TIP3   OH226217   3.470   1.816   3.735  0.4751  0.0281  0.5672
 1601TIP3    H126218   3.417   1.776   3.803  0.5561 -1.0459  0.0013
 1601TIP3    H226219   3.416   1.809   3.655  0.9732 -0.0131  0.2324
 1602TIP3   OH226220   4.308   6.749   3.100  0.5155  0.2325 -1.3373
 1602TIP3    H126221   4.270   6.807   3.166  1.3082  0.6105 -1.2213
 1602TIP3    H226222   4.272   6.780   3.017  0.2727  0.3556 -1.1864
 1603TIP3   OH226223   1.501   1.741   4.764  0.0727  0.2455  0.0592
 1603TIP3    H126224   1.546   1.822   4.788  0.7859 -0.1695  0.1195
 1603TIP3    H226225   1.453   1.716   4.843 -0.9777  1.1532 -0.2710
 1604TIP3   OH226226   3.853   4.806  15.677 -0.3347  0.0844  0.2839
 1604TIP3    H126227   3.850   4.770  15.588  0.6870 -0.3754  0.4200
 1604TIP3    H226228   3.900   4.889  15.667 -1.2296  0.5819  0.2206
 1605TIP3   OH226229   1.371   6.707   5.642  0.5024 -0.2428  0.4413
 1605TIP3    H126230   1.316   6.657   5.702 -1.0101 -0.9928 -1.5123
 1605TIP3    H226231   1.402   6.781   5.694 -0.8670 -0.8055  2.1166
 1606TIP3   OH226232   6.099   3.346  11.536 -0.2122  0.5579 -0.2271
 1606TIP3    H126233   6.181   3.323  11.578 -0.7141  2.5842  1.9179
 1606TIP3    H226234   6.043   3.269  11.549  0.5097  0.1541  0.4836
 1607TIP3   OH226235   2.785   4.070   4.892  0.4787  0.0107 -0.5169
 1607TIP3    H126236   2.777   4.156   4.933  1.5832  0.3655 -1.0386
 1607TIP3    H226237   2.700   4.056   4.850 -0.4878 -0.1206  1.4148
 1608TIP3   OH226238   6.772   4.426   5.006  0.4697  0.0754 -0.1230
 1608TIP3    H126239   6.764   4.331   5.004  1.8259 -0.0816  1.1193
 1608TIP3    H226240   6.687   4.456   5.039  0.6762 -0.8310  1.3019
 1609TIP3   OH226241   1.391   4.136   2.134 -0.3238  0.5413  0.8040
 1609TIP3    H126242   1.308   4.155   2.091 -0.3164 -0.8009  0.1840
 1609TIP3    H226243   1.380   4.048   2.171  1.5797 -0.6488 -1.2698
 1610TIP3   OH226244   4.455   5.949  16.832  0.1299 -0.1287 -0.2041
 1610TIP3    H126245   4.366   5.928  16.804 -0.1094  0.8546 -0.1943
 1610TIP3    H226246   4.463   5.908  16.918 -0.3609 -0.1186 -0.1497
 1611TIP3   OH226247   4.702   0.615  16.079 -0.1801 -0.3100 -0.0364
 1611TIP3    H126248   4.644   0.540  16.064  0.6772 -0.7611 -1.1313
 1611TIP3    H226249   4.790   0.578  16.076  0.2417  0.7066 -0.3115
 1612TIP3   OH226250   1.901   4.960  11.586  0.2133 -0.1896 -0.5840
 1612TIP3    H126251   1.949   4.897  11.640  0.6862  1.1884  0.6246
 1612TIP3    H226252   1.809   4.938  11.599  0.1909  1.5638  2.6384
 1613TIP3   OH226253   2.610   3.641   2.388  0.0925  0.0885  0.0353
 1613TIP3    H126254   2.530   3.689   2.370 -0.2877 -0.5489 -0.0013
 1613TIP3    H226255   2.604   3.617   2.480  0.6699  0.8212  0.2708
 1614TIP3   OH226256   4.960   3.090   0.832  0.3140  0.0638 -0.0497
 1614TIP3    H126257   5.011   3.073   0.752 -1.7168 -0.6352 -1.2348
 1614TIP3    H226258   4.925   3.178   0.819  0.0343 -0.0260  0.1047
 1615TIP3   OH226259   3.068   3.418  13.477 -0.1778  0.1011 -0.4695
 1615TIP3    H126260   2.984   3.451  13.447  0.2484  2.3206  0.7076
 1615TIP3    H226261   3.066   3.325  13.456 -3.2217 -0.0352  0.2266
 1616TIP3   OH226262   1.770   4.188  15.569  0.3195 -0.1496 -0.2421
 1616TIP3    H126263   1.690   4.199  15.518  0.6501 -0.1824 -0.7814
 1616TIP3    H226264   1.840   4.210  15.507  0.7145  0.0272  0.2681
 1617TIP3   OH226265   3.761   6.657   1.626  0.2518 -0.0909  0.0948
 1617TIP3    H126266   3.755   6.585   1.688  1.3158  0.7277  1.1823
 1617TIP3    H226267   3.827   6.715   1.663  0.8013  0.4940 -1.7388
 1618TIP3   OH226268   3.397   0.434   4.625 -0.6773  0.1007  0.2505
 1618TIP3    H126269   3.451   0.357   4.610 -0.6978 -0.0439  0.9052
 1618TIP3    H226270   3.455   0.495   4.672 -0.8749  0.2147  0.3473
 1619TIP3   OH226271   2.024   1.102   0.695  0.2957  0.1999  0.6451
 1619TIP3    H126272   1.958   1.147   0.642  1.7131  2.8181  1.0195
 1619TIP3    H226273   2.043   1.022   0.646 -0.2896  1.3211 -1.4767
 1620TIP3   OH226274   4.421   4.101   0.690  0.6171 -0.3842 -0.5020
 1620TIP3    H126275   4.341   4.091   0.741  1.2770  1.6887  1.0365
 1620TIP3    H226276   4.395   4.088   0.599 -1.2204 -0.9123  0.0980
 1621TIP3   OH226277   4.867   4.169  12.823 -0.0146 -0.1522  0.0016
 1621TIP3    H126278   4.872   4.156  12.917 -1.3235  0.6545  0.1943
 1621TIP3    H226279   4.775   4.156  12.801  0.2880 -0.4196 -1.1844
 1622TIP3   OH226280   2.998   1.641  15.508 -0.1813 -0.3437 -0.2841
 1622TIP3    H126281   3.028   1.559  15.468 -1.6202 -0.7603 -0.5221
 1622TIP3    H226282   3.007   1.706  15.438  2.5803  0.0920  0.4018
 1623TIP3   OH226283   4.207   0.565   5.164  0.1061  0.2833  0.3003
 1623TIP3    H126284   4.145   0.633   5.137  0.0212 -0.4601 -1.4474
 1623TIP3    H226285   4.177   0.538   5.251 -1.4681  0.5905 -0.1283
 1624TIP3   OH226286   6.786   1.663   0.175  0.0791 -0.7674  0.0242
 1624TIP3    H126287   6.759   1.585   0.126 -0.5231 -2.1649  2.4950
 1624TIP3    H226288   6.880   1.671   0.158 -0.1619 -1.0317 -1.5687
 1625TIP3   OH226289   0.147   4.114  15.430 -0.4478 -0.0953  0.7978
 1625TIP3    H126290   0.085   4.141  15.498  0.5849  1.2078  1.2532
 1625TIP3    H226291   0.191   4.195  15.405  0.5493 -0.8880 -0.0362
 1626TIP3   OH226292   5.557   1.815  12.709  0.1584 -0.0693  0.0208
 1626TIP3    H126293   5.588   1.842  12.795 -0.0022 -0.1305  0.0992
 1626TIP3    H226294   5.548   1.720  12.714 -2.7493  0.2011  0.9299
 1627TIP3   OH226295   4.193   4.948  13.007 -0.4127 -0.1319 -0.2918
 1627TIP3    H126296   4.135   4.943  13.083  0.2476 -1.3245  0.1540
 1627TIP3    H226297   4.215   5.041  13.000 -1.8850  0.2356 -0.1055
 1628TIP3   OH226298   0.140   1.734  13.404 -0.1390  0.1045  0.5387
 1628TIP3    H126299   0.139   1.670  13.476 -0.1207  1.7686  2.0770
 1628TIP3    H226300   0.049   1.763  13.397 -0.0960  0.1270  0.0557
 1629TIP3   OH226301   0.332   2.584  11.608  0.2531 -0.2616  0.1289
 1629TIP3    H126302   0.248   2.541  11.592 -1.3453  2.1117  1.7681
 1629TIP3    H226303   0.346   2.638  11.531 -0.4326  0.4049  0.4658
 1630TIP3   OH226304   4.744   4.176  16.653  0.3432  0.1927 -0.0046
 1630TIP3    H126305   4.759   4.270  16.637  1.3863  0.0871  0.3076
 1630TIP3    H226306   4.651   4.164  16.636  0.7525  0.7300 -2.7660
 1631TIP3   OH226307   3.420   3.494  12.272 -0.6359  0.1623 -0.0655
 1631TIP3    H126308   3.466   3.538  12.201 -0.2712  0.1232  0.1417
 1631TIP3    H226309   3.385   3.414  12.233 -1.2723  0.6157 -0.4358
 1632TIP3   OH226310   5.674   1.173   5.436 -0.0523  0.2604  0.8075
 1632TIP3    H126311   5.637   1.089   5.408 -1.7323  1.8283 -1.9914
 1632TIP3    H226312   5.761   1.176   5.396  0.7581 -0.9117  2.4535
 1633TIP3   OH226313   2.624   5.172  15.413  0.6971 -0.1785 -0.4996
 1633TIP3    H126314   2.614   5.249  15.469  3.8303  0.1020 -0.2310
 1633TIP3    H226315   2.616   5.098  15.473  0.7150  0.0282 -0.2420
 1634TIP3   OH226316   1.694   4.570  15.664  0.2245 -0.1039 -0.6827
 1634TIP3    H126317   1.623   4.633  15.669 -0.1585 -0.6034  0.4406
 1634TIP3    H226318   1.654   4.487  15.692  1.3752 -0.2715  0.5181
 1635TIP3   OH226319   2.251   2.945  13.573  0.0559  0.1414 -0.0007
 1635TIP3    H126320   2.341   2.953  13.602  0.3207 -0.2594 -0.6967
 1635TIP3    H226321   2.219   3.035  13.569  1.1605  0.4669 -2.0291
 1636TIP3   OH226322   4.881   6.214  12.493  0.2331 -0.7038 -0.1526
 1636TIP3    H126323   4.844   6.128  12.513  0.3295 -0.9036 -0.8222
 1636TIP3    H226324   4.819   6.276  12.531 -0.1478 -1.0530 -0.1958
 1637TIP3   OH226325   5.834   5.362  12.469  0.1630 -0.2710 -0.1422
 1637TIP3    H126326   5.830   5.324  12.556 -2.3770 -0.2798 -0.2326
 1637TIP3    H226327   5.803   5.293  12.411 -1.5968  0.8986 -0.6343
 1638TIP3   OH226328   6.341   0.115   0.585  0.1697  0.0770  0.0791
 1638TIP3    H126329   6.420   0.168   0.575 -0.3073  0.7672 -0.0270
 1638TIP3    H226330   6.315   0.126   0.676  0.0357  0.0666  0.0419
 1639TIP3   OH226331   3.677   1.825  15.042 -0.0481 -0.0696  0.1213
 1639TIP3    H126332   3.737   1.899  15.028  0.5814 -0.2236  1.9011
 1639TIP3    H226333   3.631   1.816  14.959  0.2208  2.0261 -0.2952
 1640TIP3   OH226334   5.170   1.839   1.087  0.3007 -0.2964  0.3895
 1640TIP3    H126335   5.086   1.816   1.046  0.6655 -0.2143 -0.4011
 1640TIP3    H226336   5.218   1.756   1.090  0.4600 -0.2091  0.2202
 1641TIP3   OH226337   5.329   2.299   1.187  0.0766  0.9557  0.0968
 1641TIP3    H126338   5.260   2.309   1.253 -0.4107 -0.8418 -0.1049
 1641TIP3    H226339   5.410   2.301   1.237 -0.2351  0.8119  0.6161
 1642TIP3   OH226340   4.378   0.171  15.112 -0.3321  0.3838  0.2287
 1642TIP3    H126341   4.359   0.120  15.190  0.2252 -0.1531  0.0158
 1642TIP3    H226342   4.334   0.255  15.127 -2.1637 -0.5145  0.1193
 1643TIP3   OH226343   1.204   6.711   5.900  0.0987 -0.0162 -0.2831
 1643TIP3    H126344   1.194   6.733   5.993 -1.2848  0.8614 -0.6227
 1643TIP3    H226345   1.197   6.615   5.897  0.4169 -0.0636  0.5555
 1644TIP3   OH226346   2.690   5.835  16.036  0.3641  0.1593 -0.2162
 1644TIP3    H126347   2.682   5.928  16.055  2.9894  0.2830  0.5051
 1644TIP3    H226348   2.719   5.796  16.118 -0.2100 -1.2254 -0.6619
 1645TIP3   OH226349   6.341   6.663  12.461  0.0058 -0.5092  0.4000
 1645TIP3    H126350   6.332   6.750  12.423  0.3039 -1.0830 -0.9923
 1645TIP3    H226351   6.355   6.604  12.387  1.4651 -1.5257  1.4292
 1646TIP3   OH226352   5.765   5.212   4.755  0.1654  0.0515  0.0047
 1646TIP3    H126353   5.713   5.213   4.835 -0.2731 -2.4040 -0.1902
 1646TIP3    H226354   5.764   5.120   4.727  1.6488  0.5814 -1.9405
 1647TIP3   OH226355   5.766   1.435  15.236  0.1671 -0.4805  0.4526
 1647TIP3    H126356   5.716   1.483  15.301  0.7359 -0.7911  1.1206
 1647TIP3    H226357   5.810   1.502  15.184  0.1196 -0.2528  0.7096
 1648TIP3   OH226358   2.973   6.130  15.232  0.1968 -0.1270 -0.5766
 1648TIP3    H126359   2.983   6.053  15.177  0.3668 -0.9453  0.5842
 1648TIP3    H226360   2.879   6.134  15.252  0.1850 -0.0260 -0.6520
 1649TIP3   OH226361   3.245   1.479  15.937  0.3224  0.2388 -0.1210
 1649TIP3    H126362   3.179   1.443  15.877 -1.9306  1.6719  1.4119
 1649TIP3    H226363   3.307   1.524  15.880 -0.7813  0.0419 -1.5127
 1650TIP3   OH226364   2.854   0.482   2.776 -0.2486 -0.1991  0.3772
 1650TIP3    H126365   2.886   0.399   2.811 -0.9923 -0.2349  0.9873
 1650TIP3    H226366   2.775   0.501   2.826 -1.4897 -0.3802 -1.4355
 1651TIP3   OH226367   2.876   2.340  10.386 -0.1444 -0.3850 -0.1764
 1651TIP3    H126368   2.804   2.396  10.356  0.5525  0.9491  0.6016
 1651TIP3    H226369   2.834   2.273  10.440 -0.9678 -0.5327 -0.9865
 1652TIP3   OH226370   1.963   3.017  16.311 -0.2039 -0.3627  0.1815
 1652TIP3    H126371   1.927   2.966  16.383 -0.3578 -1.6363 -0.7712
 1652TIP3    H226372   1.988   2.951  16.245  2.7845  0.5375  0.3198
 1653TIP3   OH226373   0.856   1.738   5.275 -0.3172 -0.2124  0.4628
 1653TIP3    H126374   0.835   1.650   5.245  0.2159  0.4272 -1.9443
 1653TIP3    H226375   0.945   1.753   5.243 -0.2280  1.0131  1.2615
 1654TIP3   OH226376   3.287   6.582  15.801  0.0325 -0.4678  0.2396
 1654TIP3    H126377   3.239   6.630  15.732 -0.5188 -1.6900 -0.2296
 1654TIP3    H226378   3.379   6.607  15.787 -0.4119  1.6377  0.9476
 1655TIP3   OH226379   1.989   6.553   3.925 -0.3238 -0.3846  0.3925
 1655TIP3    H126380   1.917   6.560   3.988  0.2322 -0.0286  1.0019
 1655TIP3    H226381   1.971   6.621   3.861  0.5123  1.0711  1.6432
 1656TIP3   OH226382   5.897   4.582   1.655  0.2060 -0.1877  0.3262
 1656TIP3    H126383   5.821   4.624   1.693 -0.5807 -1.3868  0.0912
 1656TIP3    H226384   5.868   4.494   1.634  1.7053 -0.7065  0.3881
 1657TIP3   OH226385   4.333   5.191  12.884  0.1916  0.2685  0.3290
 1657TIP3    H126386   4.257   5.240  12.853  2.4010  2.6368 -1.5900
 1657TIP3    H226387   4.382   5.169  12.804  1.0990 -1.9669  1.4509
 1658TIP3   OH226388   5.401   1.428   0.337 -0.6530 -0.0292 -0.2456
 1658TIP3    H126389   5.368   1.359   0.280  0.1799 -0.5425 -0.1180
 1658TIP3    H226390   5.494   1.406   0.350 -0.1016  1.7304 -1.1095
 1659TIP3   OH226391   1.926   6.530   0.126  0.2342  0.6772  0.4900
 1659TIP3    H126392   1.987   6.461   0.151  0.3301  0.1037 -1.2968
 1659TIP3    H226393   1.915   6.520   0.032 -2.7036  0.6908  0.7733
 1660TIP3   OH226394   2.960   1.166  16.701  0.2082 -0.0820 -0.2933
 1660TIP3    H126395   3.041   1.161  16.650  1.9925  0.6109  2.4114
 1660TIP3    H226396   2.892   1.137  16.640  2.3236  0.3431 -2.9373
 1661TIP3   OH226397   5.047   5.589   1.758  0.2260  0.8232  0.2623
 1661TIP3    H126398   5.094   5.552   1.682  0.1341 -0.4955  0.8322
 1661TIP3    H226399   5.053   5.684   1.746  1.7853  0.6523 -0.4440
 1662TIP3   OH226400   5.004   5.413  10.819 -0.3257 -0.0062 -0.2039
 1662TIP3    H126401   5.095   5.430  10.793 -0.4813  1.4743  0.1591
 1662TIP3    H226402   4.973   5.348  10.757  1.0865 -0.7719 -0.1287
 1663TIP3   OH226403   6.206   3.249  13.378 -0.2614 -0.2308 -0.2252
 1663TIP3    H126404   6.268   3.312  13.342 -1.1518 -0.1695 -1.7079
 1663TIP3    H226405   6.239   3.164  13.350  0.1720 -0.3315  0.5793
 1664TIP3   OH226406   3.695   4.150  11.197 -0.6014  0.1048  0.1977
 1664TIP3    H126407   3.758   4.202  11.146  0.5480  0.5463  2.0172
 1664TIP3    H226408   3.661   4.086  11.134 -0.1637  1.4262 -1.4422
 1665TIP3   OH226409   6.091   5.916  14.421 -0.5819 -0.5573 -0.3050
 1665TIP3    H126410   6.180   5.944  14.444 -0.2729  0.9578 -3.0872
 1665TIP3    H226411   6.034   5.976  14.469  0.0235  1.4499 -1.9713
 1666TIP3   OH226412   4.266   2.273   3.915 -0.5497 -0.2131  0.5682
 1666TIP3    H126413   4.231   2.338   3.976 -2.1434 -0.1995 -0.3296
 1666TIP3    H226414   4.210   2.281   3.837 -1.2956 -3.2191  0.7506
 1667TIP3   OH226415   3.416   2.160  14.701 -0.2942  0.2869 -0.1621
 1667TIP3    H126416   3.321   2.161  14.716 -0.0721  0.7165  1.2432
 1667TIP3    H226417   3.426   2.113  14.617 -1.8602  1.8762 -1.2753
 1668TIP3   OH226418   4.199   0.055  12.622 -0.1570  0.6121  0.0615
 1668TIP3    H126419   4.236   0.024  12.540  0.9337  4.8181 -1.1531
 1668TIP3    H226420   4.203  -0.020  12.681  2.6942 -1.3609 -2.5306
 1669TIP3   OH226421   3.300   1.709  13.970  0.5792  0.2466 -0.6336
 1669TIP3    H126422   3.319   1.701  13.876  0.7935  1.3479 -0.6930
 1669TIP3    H226423   3.205   1.710  13.976  0.5647 -0.2067 -0.8075
 1670TIP3   OH226424   1.108   0.017   6.166  0.2821  0.1295 -0.3630
 1670TIP3    H126425   1.071  -0.056   6.216  0.8583 -0.8849 -1.4006
 1670TIP3    H226426   1.080   0.095   6.214 -1.3891 -0.7061  0.0777
 1671TIP3   OH226427   3.683   1.792  12.333 -0.5113  0.4859  0.1018
 1671TIP3    H126428   3.695   1.832  12.247 -1.0828  0.9665  0.2483
 1671TIP3    H226429   3.597   1.823  12.363 -0.5367 -0.0775  0.6281
 1672TIP3   OH226430   5.629   1.796   3.250 -0.2357 -0.4869  0.2924
 1672TIP3    H126431   5.565   1.863   3.227  0.0745 -1.1571 -2.7071
 1672TIP3    H226432   5.662   1.823   3.335 -2.3072  1.5087  0.5165
 1673TIP3   OH226433   4.520   2.549   1.494  0.1898 -0.4022 -0.2670
 1673TIP3    H126434   4.436   2.511   1.471  0.0454  0.4626 -1.2218
 1673TIP3    H226435   4.520   2.634   1.450  0.3184  0.8884  2.1882
 1674TIP3   OH226436   1.500   3.768  15.931 -0.2673  0.2813  0.3378
 1674TIP3    H126437   1.424   3.717  15.961 -1.8192  1.9740 -0.5879
 1674TIP3    H226438   1.464   3.855  15.913  1.4238  0.4502 -2.4676
 1675TIP3   OH226439   0.148   3.525  14.394  0.3778  0.2715  0.8758
 1675TIP3    H126440   0.064   3.569  14.406 -0.0372 -0.2349 -0.1354
 1675TIP3    H226441   0.196   3.543  14.475 -0.3539  1.3313  1.0788
 1676TIP3   OH226442   3.561   1.397  11.501 -0.0992 -0.8432 -0.0717
 1676TIP3    H126443   3.476   1.385  11.543 -0.7170 -0.2490 -1.1317
 1676TIP3    H226444   3.601   1.469  11.548 -0.3469 -0.8655  0.1764
 1677TIP3   OH226445   3.716   5.668   1.370  0.2880 -0.8031 -0.0773
 1677TIP3    H126446   3.753   5.590   1.409 -1.0771 -1.3013  0.2534
 1677TIP3    H226447   3.778   5.694   1.302  0.9637 -1.9081  0.1277
 1678TIP3   OH226448   3.211   4.818   0.477 -0.4998 -0.0327 -0.0709
 1678TIP3    H126449   3.145   4.843   0.412  1.8537  3.2833 -1.3430
 1678TIP3    H226450   3.187   4.868   0.555  0.4964  1.1971 -0.5439
 1679TIP3   OH226451   5.015   1.279  15.969 -0.1355 -0.1450 -0.5652
 1679TIP3    H126452   5.018   1.372  15.992 -0.5416  0.1222 -1.5563
 1679TIP3    H226453   5.031   1.233  16.051 -0.1943  0.7986 -0.0210
 1680TIP3   OH226454   4.212   1.379   5.039  0.6119  0.0178  0.4390
 1680TIP3    H126455   4.169   1.446   5.092 -0.2325  0.6293 -0.9803
 1680TIP3    H226456   4.285   1.424   4.996 -0.7331  0.3974 -1.5349
 1681TIP3   OH226457   0.676   5.619   0.185  0.1188 -0.1743 -0.0120
 1681TIP3    H126458   0.594   5.647   0.145 -0.0006 -0.0408  0.3177
 1681TIP3    H226459   0.710   5.699   0.227  0.1130 -0.3674  0.3633
 1682TIP3   OH226460   5.709   5.727  14.613 -0.1752  0.1741  0.5829
 1682TIP3    H126461   5.630   5.692  14.655 -0.6723 -0.8488 -1.1296
 1682TIP3    H226462   5.781   5.678  14.652 -0.5297  0.0970  1.1372
 1683TIP3   OH226463   4.963   0.808   3.068 -0.0156 -0.0748 -0.4417
 1683TIP3    H126464   4.910   0.733   3.044 -0.1516  0.5332 -2.1250
 1683TIP3    H226465   5.043   0.770   3.105  0.8855 -1.1526 -3.2820
 1684TIP3   OH226466   3.379   0.240   4.037 -0.2151 -0.1086 -0.5731
 1684TIP3    H126467   3.400   0.147   4.048 -0.3565 -0.2706 -1.6501
 1684TIP3    H226468   3.355   0.269   4.125  0.8154 -0.8437 -0.0392
 1685TIP3   OH226469   6.232   4.589  16.439  0.5655  0.5500  0.7715
 1685TIP3    H126470   6.170   4.654  16.471  1.0832  0.7012  1.4831
 1685TIP3    H226471   6.315   4.612  16.481  0.7020 -0.6979  1.2160
 1686TIP3   OH226472   1.210   1.178  16.329  0.1279 -0.7292 -0.2468
 1686TIP3    H126473   1.120   1.180  16.362  0.8360 -0.7881  1.7748
 1686TIP3    H226474   1.211   1.242  16.259 -1.2653 -0.0362  0.3375
 1687TIP3   OH226475   5.534   6.015  15.391 -1.0679  0.2643  0.0370
 1687TIP3    H126476   5.464   6.079  15.397 -0.8282  0.3691  1.8188
 1687TIP3    H226477   5.589   6.030  15.468  0.5874 -0.2051 -1.0004
 1688TIP3   OH226478   3.664   1.342  14.300  0.4431 -0.7675  0.3881
 1688TIP3    H126479   3.608   1.398  14.246  0.1106 -1.2518  0.2319
 1688TIP3    H226480   3.604   1.301  14.363  0.3420 -2.5923 -0.8501
 1689TIP3   OH226481   6.758   3.941   0.918  0.0442  0.4019  0.2954
 1689TIP3    H126482   6.827   3.942   0.852 -1.5263 -0.3767 -1.3882
 1689TIP3    H226483   6.745   4.033   0.940  2.1122  0.5204  1.2104
 1690TIP3   OH226484   1.363   2.094  14.345  0.2261  1.1454  0.4038
 1690TIP3    H126485   1.281   2.123  14.306  0.7487  1.4115 -0.5142
 1690TIP3    H226486   1.418   2.069  14.270  0.8956  0.7423  1.0185
 1691TIP3   OH226487   5.709   2.584  16.847 -0.3361  0.1690  0.1859
 1691TIP3    H126488   5.617   2.574  16.824 -0.2441 -0.4537  0.0701
 1691TIP3    H226489   5.756   2.536  16.779  0.0920  0.8104  0.0279
 1692TIP3   OH226490   3.043   4.108  10.832 -0.5384 -0.1598  1.0772
 1692TIP3    H126491   2.949   4.095  10.842 -0.3012 -1.1543  2.2658
 1692TIP3    H226492   3.081   4.065  10.909  0.9384 -0.5405  0.1629
 1693TIP3   OH226493   5.116   2.773   3.270 -0.2457 -0.2169 -0.3646
 1693TIP3    H126494   5.049   2.720   3.228  0.6110  0.5359 -2.7558
 1693TIP3    H226495   5.191   2.770   3.210  0.9898  0.9377  1.0681
 1694TIP3   OH226496   3.596   4.931   6.183  0.2118 -0.0685 -0.7343
 1694TIP3    H126497   3.550   4.862   6.136  0.1128  0.3553 -1.2624
 1694TIP3    H226498   3.657   4.884   6.241  0.0409 -0.5966 -0.9782
 1695TIP3   OH226499   1.758   3.244   2.381  0.2817  0.7041 -0.3562
 1695TIP3    H126500   1.679   3.258   2.432 -0.3142  0.1149 -1.0864
 1695TIP3    H226501   1.733   3.269   2.292  0.2512 -1.4878 -0.9953
 1696TIP3   OH226502   5.144   4.412  13.692 -0.2460 -0.4214  0.5464
 1696TIP3    H126503   5.128   4.498  13.653 -0.1222 -1.1468 -1.1247
 1696TIP3    H226504   5.137   4.428  13.787 -0.4913  1.3655  0.2578
 1697TIP3   OH226505   3.952   0.110  11.768  0.1035 -0.4234  0.5969
 1697TIP3    H126506   4.043   0.092  11.745  0.2033 -0.4759  1.0464
 1697TIP3    H226507   3.921   0.031  11.811 -0.2999 -0.5881  0.0194
 1698TIP3   OH226508   0.710   4.060   0.573 -0.4079  0.5856  0.6984
 1698TIP3    H126509   0.627   4.107   0.561  0.3721  1.4482 -1.6250
 1698TIP3    H226510   0.777   4.121   0.542  0.7163 -1.6573 -1.5483
 1699TIP3   OH226511   6.767   2.154  15.742  0.0459  0.3419 -0.0304
 1699TIP3    H126512   6.799   2.206  15.815 -0.0194  0.5734 -0.1629
 1699TIP3    H226513   6.683   2.119  15.772  0.5716 -0.5284  0.4353
 1700TIP3   OH226514   5.919   2.669  10.843 -0.2110 -0.1754 -0.0932
 1700TIP3    H126515   5.920   2.582  10.883  1.7032  0.1599  0.6168
 1700TIP3    H226516   5.938   2.729  10.915  2.2686  0.5096 -1.2861
 1701TIP3   OH226517   1.556   3.758  14.474  0.2326  0.0076 -0.3902
 1701TIP3    H126518   1.565   3.848  14.445  1.3861  0.0560  0.0998
 1701TIP3    H226519   1.495   3.762  14.548 -1.2310  0.1222 -1.5746
 1702TIP3   OH226520   0.021   2.368  13.597  0.1993  0.0420 -0.5081
 1702TIP3    H126521  -0.069   2.337  13.585 -0.0549 -0.2695  1.8844
 1702TIP3    H226522   0.016   2.462  13.584 -0.0806 -0.2128 -2.3629
 1703TIP3   OH226523   4.333   0.912   1.436  0.3994 -0.3794 -0.3780
 1703TIP3    H126524   4.269   0.927   1.506 -0.1712  0.6547 -1.1141
 1703TIP3    H226525   4.283   0.866   1.369  0.4545  0.3773 -0.9320
 1704TIP3   OH226526   0.624   2.528  16.400 -0.3131  0.8276  0.6982
 1704TIP3    H126527   0.713   2.526  16.434 -0.4897 -0.4677  1.1335
 1704TIP3    H226528   0.578   2.459  16.450 -1.1991  0.5606 -0.4674
 1705TIP3   OH226529   5.762   4.119   0.543 -1.0167 -0.2070 -0.8123
 1705TIP3    H126530   5.820   4.063   0.492 -2.7313 -3.0059  0.2071
 1705TIP3    H226531   5.722   4.178   0.479  1.7734  0.7617 -1.7193
 1706TIP3   OH226532   3.020   2.218   4.098  0.0516  0.0769 -0.4341
 1706TIP3    H126533   3.087   2.168   4.143  1.6880  0.7647 -2.0310
 1706TIP3    H226534   2.943   2.162   4.099  1.4816 -1.9477 -1.0623
 1707TIP3   OH226535   2.287   3.717  14.286 -0.1823 -0.8172 -0.5882
 1707TIP3    H126536   2.357   3.670  14.240  0.2246  0.1086 -0.9298
 1707TIP3    H226537   2.270   3.664  14.364  1.1934 -0.8355 -0.2903
 1708TIP3   OH226538   4.716   5.838   3.877 -0.3315  0.0088 -0.2594
 1708TIP3    H126539   4.655   5.847   3.950  0.1499  1.3229 -0.0056
 1708TIP3    H226540   4.702   5.918   3.825  1.1749  0.3296 -0.1843
 1709TIP3   OH226541   3.306   1.089  11.208  0.2551 -0.0864 -0.9348
 1709TIP3    H126542   3.331   1.098  11.300  2.0821  1.0720 -1.5029
 1709TIP3    H226543   3.274   1.176  11.184 -0.2838 -0.4065 -1.3832
 1710TIP3   OH226544   0.851   3.153  17.217 -0.0526 -0.6485 -0.2216
 1710TIP3    H126545   0.909   3.229  17.222  0.7228 -1.0035 -2.9017
 1710TIP3    H226546   0.823   3.138  17.307 -0.4336  2.9426  0.3206
 1711TIP3   OH226547   3.216   1.436   0.898 -0.3087 -0.1355  0.5647
 1711TIP3    H126548   3.217   1.491   0.819 -3.1216  0.6541  1.0504
 1711TIP3    H226549   3.124   1.413   0.911  0.4334 -2.4538  2.1447
 1712TIP3   OH226550   5.227   0.252   3.873  0.3637  0.3590 -0.0459
 1712TIP3    H126551   5.215   0.281   3.964 -0.2473  0.7282 -0.2430
 1712TIP3    H226552   5.163   0.303   3.823  0.0697 -0.5127 -0.5574
 1713TIP3   OH226553   0.224   2.461   3.137 -1.0824  0.1072 -0.5713
 1713TIP3    H126554   0.290   2.521   3.103 -0.4492 -1.4264 -2.1258
 1713TIP3    H226555   0.154   2.461   3.072 -1.1464 -0.7207 -0.5145
 1714TIP3   OH226556   3.569   4.695  16.152  0.5857  0.1772  0.5510
 1714TIP3    H126557   3.639   4.695  16.086  0.5221 -0.5108  0.4861
 1714TIP3    H226558   3.567   4.786  16.183 -0.7626  1.0349 -1.8627
 1715TIP3   OH226559   1.239   5.766  15.942 -0.0625  0.5335 -0.1067
 1715TIP3    H126560   1.231   5.732  16.031 -0.1798 -1.0334 -0.7110
 1715TIP3    H226561   1.216   5.692  15.886  1.8534  0.9687 -1.4830
 1716TIP3   OH226562   6.338   0.790   6.136  0.8413  0.1121 -0.6058
 1716TIP3    H126563   6.302   0.703   6.152  1.9270 -0.5273 -1.5863
 1716TIP3    H226564   6.284   0.848   6.190 -0.2691 -1.0844 -0.3985
 1717TIP3   OH226565   0.898   4.906  15.629 -0.5349 -0.2146  0.1456
 1717TIP3    H126566   0.983   4.885  15.589  0.4682  1.8293  1.1431
 1717TIP3    H226567   0.887   4.838  15.696  1.8208  1.2187  2.1004
 1718TIP3   OH226568   1.111   4.762   3.494 -0.8261  0.3630 -0.8284
 1718TIP3    H126569   1.076   4.678   3.466 -1.2029  0.4991 -0.7776
 1718TIP3    H226570   1.041   4.800   3.548  0.4231 -0.4984  1.4411
 1719TIP3   OH226571   4.853   5.687   3.132 -0.2507 -0.2864  0.0290
 1719TIP3    H126572   4.894   5.657   3.051 -1.4557 -0.4492 -0.5363
 1719TIP3    H226573   4.771   5.637   3.137 -1.5367  1.7612 -0.1107
 1720TIP3   OH226574   1.526   0.856  11.336 -0.1806  0.4157 -0.5179
 1720TIP3    H126575   1.483   0.924  11.387 -1.3003  1.2021 -2.4250
 1720TIP3    H226576   1.593   0.903  11.286  0.2352 -0.1679 -0.5135
 1721TIP3   OH226577   6.439   0.355   4.500  0.1849 -0.7461  0.5207
 1721TIP3    H126578   6.357   0.388   4.464 -0.4879 -1.5044  1.3036
 1721TIP3    H226579   6.421   0.343   4.594  0.7904 -2.0762  0.4887
 1722TIP3   OH226580   6.061   2.093  14.777  0.1364  0.1247 -0.6729
 1722TIP3    H126581   6.127   2.071  14.712  0.7972 -1.0941  0.3931
 1722TIP3    H226582   6.052   2.188  14.771  0.2803  0.0405 -2.4432
 1723TIP3   OH226583   1.255   1.157   4.440 -0.0710  0.3693  0.1382
 1723TIP3    H126584   1.218   1.157   4.529 -2.4215  3.3950 -0.7648
 1723TIP3    H226585   1.338   1.110   4.449 -1.1165 -1.0050  3.5542
 1724TIP3   OH226586   0.850   0.143   3.312 -0.3972 -0.2065  0.5310
 1724TIP3    H126587   0.936   0.171   3.341  1.0846 -3.7064 -0.2769
 1724TIP3    H226588   0.805   0.115   3.392 -1.6891  3.6523  1.2651
 1725TIP3   OH226589   3.709   2.403   3.402 -0.1613 -0.4217  0.5538
 1725TIP3    H126590   3.680   2.317   3.431 -0.3239 -0.0102  1.6510
 1725TIP3    H226591   3.735   2.391   3.311  2.4248 -2.2693  1.4648
 1726TIP3   OH226592   1.402   1.421  15.266 -0.3191 -0.2710 -0.1646
 1726TIP3    H126593   1.477   1.471  15.299 -0.3565  0.1543 -0.7295
 1726TIP3    H226594   1.327   1.459  15.312 -0.1792 -0.7710  0.4837
 1727TIP3   OH226595   1.811   5.021  11.878 -0.1232  0.6511  0.5397
 1727TIP3    H126596   1.735   5.070  11.846 -0.7986 -0.6916  0.0472
 1727TIP3    H226597   1.780   4.931  11.884  2.0688 -0.3219 -1.8754
 1728TIP3   OH226598   5.354   2.331  15.174  0.1918  0.0975  0.1929
 1728TIP3    H126599   5.285   2.352  15.236 -0.3438 -0.6869 -0.1340
 1728TIP3    H226600   5.408   2.266  15.219 -0.7586 -1.2120 -0.5142
 1729TIP3   OH226601   5.328   1.135  15.540 -0.2687 -0.1268 -0.3275
 1729TIP3    H126602   5.286   1.192  15.476 -0.1867 -0.0382 -0.3000
 1729TIP3    H226603   5.331   1.187  15.621  1.3912  0.4591 -0.7595
 1730TIP3   OH226604   0.969   5.762  15.539  0.5926 -0.0685  0.4585
 1730TIP3    H126605   0.940   5.766  15.448  1.3113 -1.1716  0.1731
 1730TIP3    H226606   0.976   5.854  15.565  2.9676  0.3538 -1.4370
 1731TIP3   OH226607   3.525   3.671  13.492  0.3269 -0.0973  0.0994
 1731TIP3    H126608   3.539   3.733  13.564  1.6147  0.4921 -0.6464
 1731TIP3    H226609   3.555   3.587  13.527 -1.2219 -0.2880  1.0381
 1732TIP3   OH226610   5.500   3.155   1.191 -0.0517  0.3555  0.0678
 1732TIP3    H126611   5.503   3.169   1.286 -1.0448  0.4005  0.1023
 1732TIP3    H226612   5.586   3.119   1.169  0.0047 -0.1388  1.0720
 1733TIP3   OH226613   4.490   5.188   0.544 -0.2187  0.0193 -0.0817
 1733TIP3    H126614   4.483   5.281   0.522 -1.4890  0.0266  0.3565
 1733TIP3    H226615   4.575   5.180   0.589 -0.8305  1.2456  1.3206
 1734TIP3   OH226616   6.711   1.823   0.679 -0.1571  0.4494  0.4238
 1734TIP3    H126617   6.699   1.778   0.595  2.8626  0.8784 -0.2745
 1734TIP3    H226618   6.708   1.752   0.744  1.2424 -0.3799 -0.3844
 1735TIP3   OH226619   5.682   1.923  11.305 -0.9154  0.2482  0.7059
 1735TIP3    H126620   5.726   1.935  11.389 -0.5514  0.1372  0.5296
 1735TIP3    H226621   5.741   1.962  11.241 -0.6157 -0.7842  0.3545
 1736TIP3   OH226622   2.330   6.082  14.287 -0.1645 -0.4180  0.2175
 1736TIP3    H126623   2.332   6.100  14.193  1.3379  2.0522  0.6804
 1736TIP3    H226624   2.290   6.161  14.325 -0.9991 -1.5049  1.6458
 1737TIP3   OH226625   4.847   0.441  14.015  0.0986 -0.2224  0.2740
 1737TIP3    H126626   4.874   0.532  14.026 -1.0678  0.1280  0.3681
 1737TIP3    H226627   4.928   0.394  13.995  0.5208  1.0721 -1.2272
 1738TIP3   OH226628   0.471   4.181  15.107 -0.3853  1.0572 -0.7149
 1738TIP3    H126629   0.550   4.127  15.115 -0.4953  0.8224 -1.1703
 1738TIP3    H226630   0.501   4.270  15.126  0.0888  1.0348 -1.3217
 1739TIP3   OH226631   6.443   6.364  16.550 -0.3830 -0.1474  0.5443
 1739TIP3    H126632   6.380   6.405  16.491  0.9289  1.0076 -0.0760
 1739TIP3    H226633   6.412   6.386  16.638  0.1530  1.9928  0.2176
 1740TIP3   OH226634   5.270   5.328   4.297 -0.0880  0.0564 -0.7433
 1740TIP3    H126635   5.315   5.371   4.370  0.3525  0.2049 -1.1057
 1740TIP3    H226636   5.337   5.276   4.254  0.5519  2.8488 -3.2977
 1741TIP3   OH226637   6.565   2.967  16.398 -0.1390 -0.3962  0.1529
 1741TIP3    H126638   6.482   3.016  16.400 -0.4662 -0.8572 -1.3609
 1741TIP3    H226639   6.576   2.935  16.487 -1.4501 -0.0835  0.4410
 1742TIP3   OH226640   0.611   5.617  14.818 -0.0974  0.6628  0.0338
 1742TIP3    H126641   0.657   5.644  14.738  2.6811 -0.6584  1.1630
 1742TIP3    H226642   0.667   5.647  14.889 -1.3753 -0.2897  1.4604
 1743TIP3   OH226643   4.535   0.080  16.015 -0.3191 -0.1690  0.4053
 1743TIP3    H126644   4.600   0.020  16.054 -1.2364 -1.5200 -0.1126
 1743TIP3    H226645   4.498   0.030  15.942 -1.9717  0.5850  0.7230
 1744TIP3   OH226646   1.693   1.711  14.204  0.3291  1.0104  0.0970
 1744TIP3    H126647   1.760   1.643  14.198  0.8122  1.5617 -0.8581
 1744TIP3    H226648   1.739   1.792  14.187 -0.5294  1.4306 -0.2606
 1745TIP3   OH226649   5.795   4.430   1.169 -0.0763 -0.3811  0.2669
 1745TIP3    H126650   5.870   4.487   1.184 -0.4756 -0.2262  1.8899
 1745TIP3    H226651   5.790   4.420   1.074  1.1443  0.7400  0.0673
 1746TIP3   OH226652   4.977   2.814   1.848 -0.2616 -0.2577  0.0429
 1746TIP3    H126653   4.983   2.728   1.890  0.0137 -0.6542 -0.7988
 1746TIP3    H226654   5.044   2.867   1.892  0.5241 -0.8795 -0.3968
 1747TIP3   OH226655   5.494   4.218   0.937  0.4200  0.0653 -0.1722
 1747TIP3    H126656   5.559   4.179   0.879 -0.1554  1.0824 -1.5478
 1747TIP3    H226657   5.424   4.153   0.942  1.3442 -0.8372  0.9424
 1748TIP3   OH226658   5.213   2.429  15.868 -0.6130 -0.8199 -0.1911
 1748TIP3    H126659   5.279   2.492  15.896 -1.1086  1.1129 -3.1500
 1748TIP3    H226660   5.263   2.349  15.848  0.4682 -0.2491  0.2024
 1749TIP3   OH226661   0.103   2.270  15.492  0.0042 -0.1587  0.0355
 1749TIP3    H126662   0.054   2.276  15.574  0.1443 -0.1589  0.1194
 1749TIP3    H226663   0.064   2.337  15.436  0.6424  0.5979  0.4857
 1750TIP3   OH226664   5.941   1.342  14.916 -0.1598  0.5045 -0.2322
 1750TIP3    H126665   5.859   1.321  14.871 -0.9706 -1.0906  1.9001
 1750TIP3    H226666   5.922   1.422  14.965  0.1341  1.1571 -1.1691
 1751TIP3   OH226667   2.824   6.151   5.776  0.2936 -0.1878  0.4058
 1751TIP3    H126668   2.885   6.081   5.754  1.9009  0.7991  1.6408
 1751TIP3    H226669   2.807   6.141   5.869  1.0353  1.4405  0.7340
 1752TIP3   OH226670   6.358   3.119  14.929  0.5017 -0.3272  0.3776
 1752TIP3    H126671   6.346   3.121  15.024  0.2513  0.9621  0.3324
 1752TIP3    H226672   6.433   3.061  14.915  0.5907 -0.4594  1.3590
 1753TIP3   OH226673   0.976   5.845  14.326 -0.1543  0.2373  0.2593
 1753TIP3    H126674   0.901   5.875  14.377 -0.2835 -0.1943  0.3249
 1753TIP3    H226675   0.955   5.754  14.304 -0.9992  0.9803 -2.2070
 1754TIP3   OH226676   6.467   5.432   5.883  0.1904  0.6922 -0.5441
 1754TIP3    H126677   6.459   5.524   5.909  1.3638  1.4738 -2.7857
 1754TIP3    H226678   6.407   5.424   5.808 -0.5180 -0.5896  0.1497
 1755TIP3   OH226679   0.370   1.590  10.706 -1.1082  0.4474 -0.4047
 1755TIP3    H126680   0.414   1.671  10.679 -1.0101  0.8369  0.8894
 1755TIP3    H226681   0.281   1.617  10.727 -0.5890  0.5587  1.7556
 1756TIP3   OH226682   5.008   6.502  16.030  0.2217  0.6968  0.1904
 1756TIP3    H126683   5.062   6.474  16.104 -1.1692 -0.5541  0.7767
 1756TIP3    H226684   5.066   6.496  15.954  0.5880 -1.7889  0.6284
 1757TIP3   OH226685   6.125   1.408   3.751 -0.0683 -0.4730 -0.2934
 1757TIP3    H126686   6.190   1.341   3.772  0.0151  0.0785  1.2791
 1757TIP3    H226687   6.044   1.376   3.790 -0.1678  0.0503 -0.0701
 1758TIP3   OH226688   0.846   5.592   2.905  0.2835 -0.3810 -0.0847
 1758TIP3    H126689   0.771   5.538   2.880 -0.4478 -0.0339  1.3175
 1758TIP3    H226690   0.895   5.604   2.823 -1.4953 -0.1269 -1.1347
 1759TIP3   OH226691   6.264   6.330   5.810 -0.1275  0.3322 -0.6516
 1759TIP3    H126692   6.327   6.395   5.841 -2.1871  0.9241  2.5496
 1759TIP3    H226693   6.190   6.382   5.777 -1.0010 -0.3637  0.1902
 1760TIP3   OH226694   1.783   5.515   1.634 -0.1399 -0.5296  0.2535
 1760TIP3    H126695   1.743   5.493   1.550  0.2261 -2.2655  0.5263
 1760TIP3    H226696   1.815   5.432   1.668  0.9525  0.3783  1.4733
 1761TIP3   OH226697   6.441   5.639   6.065 -0.4678 -0.5194  0.0422
 1761TIP3    H126698   6.358   5.641   6.113 -0.4698 -0.7064  0.0487
 1761TIP3    H226699   6.506   5.671   6.127 -0.3520 -1.4301  0.4096
 1762TIP3   OH226700   3.192   5.666   0.885  0.4491 -0.5305 -0.0345
 1762TIP3    H126701   3.194   5.761   0.870  0.6409 -0.3433  1.0785
 1762TIP3    H226702   3.256   5.652   0.955  1.0508 -1.6017 -0.7881
 1763TIP3   OH226703   1.934   0.244   6.617 -0.4878  0.0775 -0.1657
 1763TIP3    H126704   1.881   0.304   6.565 -0.7634 -0.7639 -0.8530
 1763TIP3    H226705   1.914   0.157   6.583 -1.7140 -0.6410  2.2470
 1764TIP3   OH226706   4.652   2.497   0.178  0.1604  0.8031 -0.2689
 1764TIP3    H126707   4.734   2.447   0.171 -0.1587  0.2716 -0.2491
 1764TIP3    H226708   4.679   2.583   0.208  0.4631 -0.1127  2.1885
 1765TIP3   OH226709   0.012   3.462  15.278  0.0744 -0.5790 -0.2613
 1765TIP3    H126710  -0.007   3.391  15.340 -1.7237 -0.1390 -0.2626
 1765TIP3    H226711  -0.071   3.509  15.271  1.8071  2.9697  1.5310
 1766TIP3   OH226712   3.731   3.291   2.932 -0.0056 -0.1807 -0.2567
 1766TIP3    H126713   3.684   3.351   2.989  0.5760  0.5127 -0.4869
 1766TIP3    H226714   3.674   3.279   2.856 -0.8377 -1.2144  0.5240
 1767TIP3   OH226715   5.262   0.359   2.594  0.3851  0.2714 -0.0384
 1767TIP3    H126716   5.244   0.430   2.532  0.7474  0.6964  0.3354
 1767TIP3    H226717   5.285   0.405   2.676  0.5558 -0.2784  0.2204
 1768TIP3   OH226718   0.422   5.490   1.472  0.4139 -0.1141  0.2048
 1768TIP3    H126719   0.400   5.457   1.559  1.1384  0.3098  0.5604
 1768TIP3    H226720   0.473   5.569   1.490 -0.9532  0.9829 -0.6161
 1769TIP3   OH226721   5.940   6.426  11.822  0.4669 -0.8930  0.1795
 1769TIP3    H126722   5.997   6.471  11.760  1.3660  0.4087  1.9144
 1769TIP3    H226723   5.988   6.346  11.844 -0.6892 -2.2913 -2.1530
 1770TIP3   OH226724   6.040   5.539   5.530  0.3615  0.3688 -0.0832
 1770TIP3    H126725   6.037   5.634   5.539  0.6586  0.2456  1.4449
 1770TIP3    H226726   6.132   5.519   5.516  0.2259  0.3499 -0.9573
 1771TIP3   OH226727   3.296   5.002   6.081  0.5473 -0.2463 -0.6455
 1771TIP3    H126728   3.322   4.912   6.101  0.4514 -0.4239 -1.3083
 1771TIP3    H226729   3.324   5.053   6.157 -0.1420 -0.9714  0.0955
 1772TIP3   OH226730   3.048   1.604  17.052 -0.1165 -0.4871 -0.2816
 1772TIP3    H126731   3.042   1.524  17.000  0.1027 -0.2774 -0.6371
 1772TIP3    H226732   2.962   1.614  17.092 -0.4957 -0.2929 -1.1365
 1773TIP3   OH226733   2.557   4.762  12.933 -0.5374  0.3251  0.1347
 1773TIP3    H126734   2.591   4.674  12.912 -0.3089  0.3799  0.2737
 1773TIP3    H226735   2.581   4.776  13.024 -0.4885  0.5730  0.0845
 1774TIP3   OH226736   1.238   1.271  13.867 -0.6211 -0.6840  0.1797
 1774TIP3    H126737   1.221   1.178  13.883 -1.9373 -0.1163  2.2100
 1774TIP3    H226738   1.178   1.317  13.925  0.5741  1.4463 -0.2244
 1775TIP3   OH226739   1.098   5.475   1.759  0.7307  0.1456 -0.5578
 1775TIP3    H126740   1.091   5.570   1.761  3.7928  0.4224  0.0724
 1775TIP3    H226741   1.143   5.457   1.676  0.3733 -0.7346 -0.5638
 1776TIP3   OH226742   6.022   2.313   2.646 -0.2620  0.1930 -0.0091
 1776TIP3    H126743   6.025   2.217   2.649  1.3916  0.2006 -0.6306
 1776TIP3    H226744   5.933   2.334   2.618 -0.3608 -1.1908 -0.7480
 1777TIP3   OH226745   3.897   0.833  10.811  0.1338  0.2836  0.2989
 1777TIP3    H126746   3.803   0.818  10.820  0.3590 -0.8315  0.7768
 1777TIP3    H226747   3.937   0.748  10.828  1.1643  0.4661 -1.0995
 1778TIP3   OH226748   6.258   0.519   5.906 -0.1100 -0.5238 -0.1325
 1778TIP3    H126749   6.203   0.558   5.838  0.9851  1.3091 -0.0013
 1778TIP3    H226750   6.229   0.559   5.988 -0.0225 -1.1617  0.2172
 1779TIP3   OH226751   1.705   3.123   5.935 -0.1543 -0.8051 -0.1836
 1779TIP3    H126752   1.733   3.089   5.850 -0.0790 -0.1300 -0.4377
 1779TIP3    H226753   1.787   3.143   5.981 -0.1930  1.0230 -0.8665
 1780TIP3   OH226754   6.068   5.275   0.031  0.2828 -0.6317  0.3702
 1780TIP3    H126755   6.010   5.243  -0.038 -1.3860  2.0228  0.4576
 1780TIP3    H226756   6.068   5.370   0.021  0.0515 -0.1659  3.9274
 1781TIP3   OH226757   5.719   2.980   3.999 -0.5997 -0.3644  0.1719
 1781TIP3    H126758   5.753   2.940   4.080  0.4130  3.6092  1.8676
 1781TIP3    H226759   5.639   3.024   4.026 -0.2208  1.0582 -0.9849
 1782TIP3   OH226760   5.595   4.527  16.502  0.0686  0.0536  0.2366
 1782TIP3    H126761   5.525   4.464  16.487 -0.0136 -0.1055  1.2327
 1782TIP3    H226762   5.587   4.590  16.431 -0.8223 -0.2000  0.1104
 1783TIP3   OH226763   1.306   3.578  15.066  0.4948 -0.0809 -0.1985
 1783TIP3    H126764   1.292   3.589  15.160 -0.4817 -0.9587 -0.2325
 1783TIP3    H226765   1.382   3.632  15.047  1.8074 -1.2945  1.4315
 1784TIP3   OH226766   6.050   6.083  15.650 -0.3390  0.3833  0.2888
 1784TIP3    H126767   6.059   6.129  15.567  0.3646 -0.0086  0.1393
 1784TIP3    H226768   6.081   6.145  15.716  1.6909 -0.2346 -0.0214
 1785TIP3   OH226769   4.090   1.853  12.376 -0.3585  0.3189 -0.0625
 1785TIP3    H126770   4.154   1.912  12.416 -1.2109  1.7802 -0.7747
 1785TIP3    H226771   4.074   1.891  12.289 -1.8515 -0.2674 -0.0655
 1786TIP3   OH226772   3.270   1.329   6.604 -0.0311 -0.0207  0.7842
 1786TIP3    H126773   3.310   1.361   6.685  1.1263 -1.1362  0.6644
 1786TIP3    H226774   3.340   1.330   6.540 -0.7450  0.0842 -0.0053
 1787TIP3   OH226775   3.902   1.590  16.486  0.9504 -0.0808 -0.2798
 1787TIP3    H126776   3.968   1.584  16.418  1.2216 -0.8068  0.0511
 1787TIP3    H226777   3.820   1.604  16.439  1.3359  0.8463 -0.6850
 1788TIP3   OH226778   1.731   5.013  17.043  0.5204  0.6978 -0.1936
 1788TIP3    H126779   1.807   4.988  16.991  0.0577 -0.7550 -0.1880
 1788TIP3    H226780   1.716   5.105  17.020  0.3620  0.1005 -2.6178
 1789TIP3   OH226781   2.709   0.755   0.696 -0.1574  0.2821 -0.6014
 1789TIP3    H126782   2.639   0.758   0.631 -1.8151  1.1681  1.1784
 1789TIP3    H226783   2.780   0.806   0.658 -1.4308  1.5303 -1.3390
 1790TIP3   OH226784   5.018   3.165  11.072 -0.2219  0.4581  0.1917
 1790TIP3    H126785   5.113   3.161  11.088 -0.0268  1.8857 -0.5565
 1790TIP3    H226786   4.988   3.238  11.125 -0.7639  0.5480 -0.2369
 1791TIP3   OH226787   5.513   2.914  16.594  0.5602  0.3524  0.6868
 1791TIP3    H126788   5.433   2.864  16.575  0.4477  1.6943 -2.6563
 1791TIP3    H226789   5.484   2.983  16.654 -0.2378 -0.6596  1.4985
 1792TIP3   OH226790   1.639   1.160   4.754 -0.2338  0.0081  0.2182
 1792TIP3    H126791   1.661   1.106   4.679  0.5481  1.1542 -0.3889
 1792TIP3    H226792   1.633   1.249   4.720  0.6595  0.6255  1.5811
 1793TIP3   OH226793   3.858   5.913   5.001 -0.2297 -0.2608  0.1680
 1793TIP3    H126794   3.818   5.932   5.087  2.0099  1.6599  0.8310
 1793TIP3    H226795   3.803   5.961   4.939 -0.5456  0.1867  0.7808
 1794TIP3   OH226796   1.205   0.155   0.647  0.2372 -0.3288  0.0073
 1794TIP3    H126797   1.232   0.071   0.611  0.1456  0.5543 -2.1557
 1794TIP3    H226798   1.111   0.146   0.659  0.0787 -0.2002 -1.1278
 1795TIP3   OH226799   2.933   2.616  16.860 -0.0218 -0.4404  0.4308
 1795TIP3    H126800   2.919   2.592  16.769  1.5519  1.0373 -0.2258
 1795TIP3    H226801   2.997   2.552  16.893  3.0011  1.7534 -0.8852
 1796TIP3   OH226802   1.078   3.416  11.107 -0.8784  0.3118 -0.7444
 1796TIP3    H126803   1.165   3.377  11.095 -1.5840 -1.6238  0.2224
 1796TIP3    H226804   1.071   3.480  11.036  1.0011 -0.0852 -1.3373
 1797TIP3   OH226805   4.170   5.493  14.555  1.2461 -0.2132  0.0379
 1797TIP3    H126806   4.098   5.553  14.575  1.8507 -0.1277  2.0269
 1797TIP3    H226807   4.210   5.529  14.475  1.7158  2.1397  1.3063
 1798TIP3   OH226808   3.946   2.913   2.801  0.0936 -0.3280  0.3561
 1798TIP3    H126809   3.991   2.836   2.834  1.2888 -0.0204 -0.5479
 1798TIP3    H226810   3.872   2.878   2.752  1.3859 -0.9421 -1.1670
 1799TIP3   OH226811   0.802   5.026   5.148  0.3555 -0.9245  0.4645
 1799TIP3    H126812   0.748   4.950   5.124  0.7409 -0.7569 -1.0070
 1799TIP3    H226813   0.880   5.018   5.093 -0.5117  1.6079 -1.2511
 1800TIP3   OH226814   3.658   0.446   4.952 -0.0919 -0.0059  0.1272
 1800TIP3    H126815   3.684   0.361   4.916  1.1680  0.3852  0.0802
 1800TIP3    H226816   3.653   0.503   4.875 -1.8572 -0.2422  0.0399
 1801TIP3   OH226817   3.851   6.687   4.859  0.2912  0.1515  0.3253
 1801TIP3    H126818   3.812   6.617   4.808  1.3784 -0.5909  0.5117
 1801TIP3    H226819   3.782   6.712   4.921 -1.0341  1.0524 -1.4451
 1802TIP3   OH226820   4.433   3.548   4.111 -0.0706 -0.3432  0.3014
 1802TIP3    H126821   4.372   3.622   4.109 -0.8101 -0.9707 -1.3811
 1802TIP3    H226822   4.384   3.476   4.149 -0.2779 -0.7513 -0.7253
 1803TIP3   OH226823   4.294   1.728  12.091  0.2207  0.0564 -0.2556
 1803TIP3    H126824   4.235   1.696  12.023 -0.5377  1.1705 -0.1393
 1803TIP3    H226825   4.372   1.673  12.084 -0.6536 -1.1361 -0.7090
 1804TIP3   OH226826   0.257   5.339  14.889  0.0798  0.6147  0.2888
 1804TIP3    H126827   0.234   5.252  14.921  1.1252  0.4176  0.5460
 1804TIP3    H226828   0.202   5.352  14.812 -2.3590  1.0400  2.0320
 1805TIP3   OH226829   5.877   5.278  11.150 -0.3037  0.2293 -0.0121
 1805TIP3    H126830   5.972   5.289  11.159 -0.3878  0.5490  0.5440
 1805TIP3    H226831   5.863   5.262  11.057  0.5698 -2.6500  0.3114
 1806TIP3   OH226832   1.445   1.523   1.741 -0.0602  0.4341  0.1750
 1806TIP3    H126833   1.430   1.583   1.668 -0.6920 -0.3524 -0.3581
 1806TIP3    H226834   1.399   1.443   1.716  3.4823 -1.4482 -0.6229
 1807TIP3   OH226835   6.371   3.564  13.042 -0.2618 -0.6014  0.8011
 1807TIP3    H126836   6.277   3.563  13.060 -0.2017  0.5141  1.1811
 1807TIP3    H226837   6.411   3.538  13.125 -0.1252  1.4793  1.4024
 1808TIP3   OH226838   1.130   3.023   5.356 -0.0890  0.4241 -0.7814
 1808TIP3    H126839   1.115   3.088   5.287 -0.7988 -0.5736 -1.5924
 1808TIP3    H226840   1.042   2.989   5.375 -0.2981  2.5308  2.4905
 1809TIP3   OH226841   0.187   2.714   3.850 -0.2512 -0.5831 -0.5883
 1809TIP3    H126842   0.229   2.748   3.772 -1.4524  1.1008 -0.5369
 1809TIP3    H226843   0.122   2.652   3.818  0.4083 -1.1654 -0.8127
 1810TIP3   OH226844   3.634   0.086  12.728  0.0234 -0.1769  0.2423
 1810TIP3    H126845   3.566   0.021  12.747 -0.2279 -0.3235 -1.0691
 1810TIP3    H226846   3.698   0.039  12.675  1.0510  0.0221  1.3052
 1811TIP3   OH226847   2.042   4.946   4.940  0.0327  0.3473 -0.4616
 1811TIP3    H126848   2.132   4.937   4.973 -0.5329  0.4521  1.1498
 1811TIP3    H226849   2.037   5.036   4.908  0.4660  0.3876 -0.4199
 1812TIP3   OH226850   0.362   3.528   4.293  0.0881 -0.4540  0.1634
 1812TIP3    H126851   0.282   3.475   4.297 -0.1012 -0.2117 -0.3717
 1812TIP3    H226852   0.367   3.557   4.202  0.8026 -0.4904  0.1901
 1813TIP3   OH226853   3.715   3.069   3.685  0.7432 -0.5064 -1.0270
 1813TIP3    H126854   3.792   3.120   3.660  0.2698 -0.7772 -3.2261
 1813TIP3    H226855   3.655   3.080   3.611 -0.9536 -1.0587  0.2292
 1814TIP3   OH226856   5.167   2.855  14.865 -0.1539 -0.1624  0.0403
 1814TIP3    H126857   5.082   2.842  14.823 -0.2552 -2.4686  0.8880
 1814TIP3    H226858   5.183   2.773  14.911  1.5539  1.0537  1.6479
 1815TIP3   OH226859   5.270   3.372  16.799  0.1944 -0.4518 -0.5863
 1815TIP3    H126860   5.252   3.321  16.720 -2.5524  1.2868 -1.1379
 1815TIP3    H226861   5.189   3.369  16.849  0.9616  0.9078  0.7640
 1816TIP3   OH226862   4.893   0.827  11.935  0.4711 -0.3910  0.4845
 1816TIP3    H126863   4.860   0.881  11.863  2.3557 -0.3127 -0.3329
 1816TIP3    H226864   4.940   0.887  11.992  0.7841 -0.8200  0.6863
 1817TIP3   OH226865   3.170   5.016  13.097  0.7772  0.2162  0.2644
 1817TIP3    H126866   3.223   5.057  13.165  0.7425  0.1284  0.3448
 1817TIP3    H226867   3.125   5.089  13.055  0.0088  0.1766  1.0090
 1818TIP3   OH226868   1.205   2.241   0.549 -0.2679  0.3394  0.7716
 1818TIP3    H126869   1.205   2.337   0.549  0.2545  0.3367  0.5625
 1818TIP3    H226870   1.284   2.216   0.501 -1.1424 -0.1929 -0.4197
 1819TIP3   OH226871   4.402   3.982  15.994  0.2160  0.1714 -0.2496
 1819TIP3    H126872   4.465   4.044  15.959  1.3825  0.1420  1.7618
 1819TIP3    H226873   4.324   4.035  16.013  0.7667  0.8007  0.2830
 1820TIP3   OH226874   2.149   3.167  12.660 -0.1225 -0.5003  0.2344
 1820TIP3    H126875   2.096   3.122  12.593 -0.1194 -0.2857  0.0862
 1820TIP3    H226876   2.148   3.108  12.735 -1.2724 -0.1132  0.5311
 1821TIP3   OH226877   1.100   1.879   0.084 -0.6594 -0.1624  0.2759
 1821TIP3    H126878   1.162   1.922   0.143  0.0803 -0.5475 -0.2119
 1821TIP3    H226879   1.155   1.831   0.022 -1.4768 -1.5320  0.5978
 1822TIP3   OH226880   3.981   6.413   5.056  0.6486 -0.2412 -0.5544
 1822TIP3    H126881   3.940   6.469   4.991  0.2429 -0.7581 -0.7446
 1822TIP3    H226882   4.039   6.472   5.105 -0.7231  0.5975  0.0676
 1823TIP3   OH226883   6.469   6.779  14.004  0.2864 -0.4386 -0.2322
 1823TIP3    H126884   6.400   6.766  14.070 -1.4602  2.4781 -1.3938
 1823TIP3    H226885   6.533   6.835  14.048 -0.5520  0.9483 -0.7253
 1824TIP3   OH226886   3.569   3.117   3.451 -0.6032 -0.3496 -0.8890
 1824TIP3    H126887   3.637   3.073   3.401  1.8289 -0.2771  2.1967
 1824TIP3    H226888   3.501   3.051   3.463  1.2727 -2.1202  0.3650
 1825TIP3   OH226889   2.580   3.040   5.386 -0.1560 -0.4576 -0.5983
 1825TIP3    H126890   2.536   2.967   5.431 -0.3040 -0.7087 -1.1460
 1825TIP3    H226891   2.551   3.118   5.434  0.3843 -0.7910  0.2962
 1826TIP3   OH226892   5.894   6.674   5.897 -0.3888  0.1086  0.7659
 1826TIP3    H126893   5.973   6.725   5.878 -0.4641  0.0319  0.2474
 1826TIP3    H226894   5.891   6.608   5.828 -1.5113  0.8027  0.1437
 1827TIP3   OH226895   6.675   3.575  16.197 -0.5071  0.2296  0.4614
 1827TIP3    H126896   6.682   3.482  16.177 -0.1690  0.3852 -0.1800
 1827TIP3    H226897   6.636   3.579  16.284 -0.7138 -0.5053  0.3994
 1828TIP3   OH226898   4.361   6.246  15.805 -0.0312 -0.7832  0.0028
 1828TIP3    H126899   4.341   6.338  15.823  1.2841 -0.5793  0.4720
 1828TIP3    H226900   4.332   6.234  15.714  1.3764  0.5974 -0.6772
 1829TIP3   OH226901   0.801   4.069   1.534  0.7705  0.8069  0.9146
 1829TIP3    H126902   0.789   4.023   1.451 -0.3515 -2.2739  2.6899
 1829TIP3    H226903   0.851   4.147   1.511  0.3457  0.1312 -2.6611
 1830TIP3   OH226904   2.347   2.252   2.568 -0.4983 -0.3260 -0.1385
 1830TIP3    H126905   2.319   2.266   2.478 -2.9344  1.4933  0.8270
 1830TIP3    H226906   2.418   2.315   2.581 -0.5872 -0.1321 -0.5848
 1831TIP3   OH226907   2.126   6.451  12.255 -0.3024 -0.2420 -0.2908
 1831TIP3    H126908   2.118   6.511  12.329  1.9355 -0.9476  0.5583
 1831TIP3    H226909   2.074   6.492  12.185 -1.0598  1.2689  1.1218
 1832TIP3   OH226910   3.699   5.791  16.475  0.0106 -0.0988  0.2841
 1832TIP3    H126911   3.775   5.766  16.527  0.2806  0.8147  0.3431
 1832TIP3    H226912   3.627   5.740  16.511  0.5354 -0.7437  0.4269
 1833TIP3   OH226913   6.061   6.348  17.103  0.0476  0.4421 -0.9515
 1833TIP3    H126914   5.988   6.367  17.044 -0.6097  1.1163  0.0708
 1833TIP3    H226915   6.098   6.434  17.124 -1.3419  0.4430  1.6520
 1834TIP3   OH226916   3.627   6.291  16.907 -0.3192  0.0682  0.2664
 1834TIP3    H126917   3.608   6.229  16.837  1.0297 -0.1298  0.0496
 1834TIP3    H226918   3.543   6.330  16.929 -1.0755 -1.3661 -0.0518
 1835TIP3   OH226919   0.028   0.162  15.909  0.1057 -0.5677  0.0002
 1835TIP3    H126920   0.015   0.112  15.829  1.1304 -1.4801  0.3817
 1835TIP3    H226921   0.055   0.097  15.974 -0.7838  0.1471  1.1127
 1836TIP3   OH226922   5.590   0.531   1.995  0.1618 -0.1697  0.1260
 1836TIP3    H126923   5.559   0.528   1.904 -0.3118 -0.2524  0.2901
 1836TIP3    H226924   5.620   0.621   2.007  2.8067 -0.8587 -0.9661
 1837TIP3   OH226925   3.253   3.899   3.653 -0.0955  0.0600  0.3538
 1837TIP3    H126926   3.283   3.990   3.664  0.2005 -0.0177  0.1807
 1837TIP3    H226927   3.166   3.907   3.614  0.1908  0.2510 -0.2460
 1838TIP3   OH226928   3.607   3.597  12.111  0.2104  0.3709  0.1895
 1838TIP3    H126929   3.673   3.659  12.079  0.8667 -1.1931 -1.5562
 1838TIP3    H226930   3.616   3.521  12.054 -2.2943 -0.3498  0.7013
 1839TIP3   OH226931   5.358   0.269  13.945 -0.1509  0.2077 -0.1217
 1839TIP3    H126932   5.359   0.189  13.996 -0.6630 -0.8097 -1.6604
 1839TIP3    H226933   5.428   0.258  13.881 -2.5899 -0.6988 -2.7749
 1840TIP3   OH226934   0.008   1.019   6.131 -0.0169 -0.0703 -0.1748
 1840TIP3    H126935  -0.019   1.030   6.222 -1.2586  0.1440 -0.5603
 1840TIP3    H226936  -0.031   0.935   6.105  0.3351 -0.1282 -0.5077
 1841TIP3   OH226937   2.750   3.971   6.029 -0.6259  0.1871  0.5436
 1841TIP3    H126938   2.809   3.988   6.102  1.3123 -0.5339 -0.7997
 1841TIP3    H226939   2.740   3.875   6.029 -0.1214  0.1240 -0.4699
 1842TIP3   OH226940   6.082   4.319  15.338  0.5528 -0.3921 -0.0466
 1842TIP3    H126941   6.085   4.232  15.378 -0.0137 -0.4591 -0.1504
 1842TIP3    H226942   6.116   4.378  15.405 -1.7904 -0.3031  1.0880
 1843TIP3   OH226943   5.739   3.988  15.617 -0.0071 -0.1067 -0.7519
 1843TIP3    H126944   5.768   3.908  15.660  2.0872  1.3306  0.5490
 1843TIP3    H226945   5.734   4.053  15.686 -1.4534  0.9925 -1.8413
 1844TIP3   OH226946   3.484   1.840   4.700  0.2952  0.0476  0.3173
 1844TIP3    H126947   3.488   1.928   4.737  4.1569 -0.2579  0.7583
 1844TIP3    H226948   3.486   1.782   4.776  0.6554 -0.4831 -0.0939
 1845TIP3   OH226949   5.428   2.719  14.257  0.5010  0.2614 -0.0291
 1845TIP3    H126950   5.433   2.625  14.243  0.3403  0.0585  1.2095
 1845TIP3    H226951   5.374   2.729  14.336  1.7026  1.3127  0.6789
 1846TIP3   OH226952   0.165   5.667   1.430 -0.5515  0.2932 -0.0838
 1846TIP3    H126953   0.194   5.758   1.429  0.4312 -0.0104  0.7249
 1846TIP3    H226954   0.245   5.615   1.426 -1.1268 -0.5473 -1.1640
 1847TIP3   OH226955   1.445   5.038   0.260  0.2177  0.9062  0.1534
 1847TIP3    H126956   1.356   5.069   0.271  0.5983  1.6478  1.3463
 1847TIP3    H226957   1.463   4.990   0.341  0.8659  0.6835 -0.1195
 1848TIP3   OH226958   4.835   0.764  14.289 -0.0768  0.5536 -0.6346
 1848TIP3    H126959   4.762   0.732  14.342 -0.5654  2.6214  0.0062
 1848TIP3    H226960   4.909   0.767  14.350 -0.3285  1.7202 -0.3630
 1849TIP3   OH226961   0.356   6.197  16.002  0.0137 -0.8696 -0.8516
 1849TIP3    H126962   0.319   6.115  16.033  1.1887 -0.3810  2.0250
 1849TIP3    H226963   0.422   6.171  15.938  1.1341 -2.2545  0.8231
 1850TIP3   OH226964   4.641   6.158  13.115 -0.0053 -0.1677  0.6249
 1850TIP3    H126965   4.680   6.155  13.203  1.0770  1.3378  0.2210
 1850TIP3    H226966   4.614   6.068  13.098 -0.6809 -0.3799  2.7050
 1851TIP3   OH226967   4.894   3.756  16.759  0.0283 -0.0958 -0.4194
 1851TIP3    H126968   4.970   3.719  16.804 -0.1751 -1.2211 -0.9847
 1851TIP3    H226969   4.881   3.700  16.683  0.6468  2.0556 -2.1675
 1852TIP3   OH226970   1.460   2.233  12.526 -0.1648 -0.3057 -0.6368
 1852TIP3    H126971   1.425   2.196  12.446  0.5499 -1.4537 -0.4308
 1852TIP3    H226972   1.511   2.162  12.565  0.8080  0.7301  0.0185
 1853TIP3   OH226973   1.289   4.558  12.931  0.3914  0.6530  0.2222
 1853TIP3    H126974   1.214   4.503  12.953 -0.7617  0.9034 -2.8164
 1853TIP3    H226975   1.356   4.496  12.904  1.1133  0.4645  2.3539
 1854TIP3   OH226976   2.433   2.678   3.751  0.3652  0.4683  0.0568
 1854TIP3    H126977   2.418   2.729   3.830  1.2017 -0.8147  1.0755
 1854TIP3    H226978   2.371   2.605   3.757  2.8275 -1.6091  1.3604
 1855TIP3   OH226979   1.444   3.356   0.796  0.0856 -0.0327  0.0699
 1855TIP3    H126980   1.442   3.404   0.714  1.3025  1.3452  0.8253
 1855TIP3    H226981   1.376   3.397   0.850  1.5886  1.3479  0.9648
 1856TIP3   OH226982   1.689   5.113   4.019  0.2400 -0.0294  0.7194
 1856TIP3    H126983   1.622   5.116   3.951 -0.6099 -0.5325  1.5289
 1856TIP3    H226984   1.671   5.032   4.067  0.6421  0.4822  1.7417
 1857TIP3   OH226985   5.206   2.410  11.980  0.3966 -0.3284 -0.2681
 1857TIP3    H126986   5.182   2.323  11.948  0.5832 -0.5550  0.1960
 1857TIP3    H226987   5.212   2.399  12.075  0.5794  0.1513 -0.2246
 1858TIP3   OH226988   0.275   1.899  13.583  0.1380 -0.6012 -0.5074
 1858TIP3    H126989   0.216   1.855  13.522  0.1884 -0.2165 -0.8352
 1858TIP3    H226990   0.288   1.986  13.546 -0.9751  0.1537  0.8024
 1859TIP3   OH226991   3.493   5.753   0.495 -0.3828  0.0537 -0.2062
 1859TIP3    H126992   3.548   5.744   0.418  0.1101 -1.1758  0.2774
 1859TIP3    H226993   3.415   5.798   0.464  0.3037  0.5800 -1.1807
 1860TIP3   OH226994   2.267   3.555   1.321  0.6359 -0.2448 -0.2077
 1860TIP3    H126995   2.253   3.466   1.289 -0.1506 -0.6496  1.1952
 1860TIP3    H226996   2.188   3.603   1.296 -0.0386 -0.5950  1.1716
 1861TIP3   OH226997   3.419   0.884   3.572 -0.1998 -0.2578  0.1773
 1861TIP3    H126998   3.352   0.882   3.640 -1.8838  0.0685 -1.4361
 1861TIP3    H226999   3.375   0.853   3.493  0.8713  2.2055 -1.4689
 1862TIP3   OH227000   2.107   5.358  15.345  0.4545 -0.2260 -0.9395
 1862TIP3    H127001   2.178   5.378  15.406 -1.2751  0.2533  1.0033
 1862TIP3    H227002   2.105   5.433  15.285  0.1107  0.8972  0.4428
 1863TIP3   OH227003   1.246   1.539  12.502  0.0746 -0.6931 -0.0767
 1863TIP3    H127004   1.182   1.481  12.461  1.2592 -2.1671  0.1002
 1863TIP3    H227005   1.203   1.569  12.582 -1.5220  0.7164 -1.4328
 1864TIP3   OH227006   2.606   6.126   2.681  0.0416 -0.2396 -0.3838
 1864TIP3    H127007   2.646   6.184   2.617 -0.4786 -1.2610 -1.6506
 1864TIP3    H227008   2.572   6.184   2.749  0.1594  0.8808 -1.2757
 1865TIP3   OH227009   5.734   4.189  15.398  0.3952 -0.1256 -0.3238
 1865TIP3    H127010   5.742   4.121  15.466 -0.1568  0.2945  0.1681
 1865TIP3    H227011   5.725   4.271  15.448 -1.6646  0.0027 -0.8878
 1866TIP3   OH227012   4.691   2.099  13.631 -0.5530  0.6921  0.1739
 1866TIP3    H127013   4.658   2.009  13.634 -0.8137  0.7597 -0.5746
 1866TIP3    H227014   4.687   2.129  13.722 -1.6717  0.3795  0.2330
 1867TIP3   OH227015   5.226   2.323  12.223  0.0215 -0.4813  0.1805
 1867TIP3    H127016   5.221   2.241  12.273 -1.8517 -0.3314  0.2934
 1867TIP3    H227017   5.225   2.392  12.290  1.4078 -0.3395  0.0778
 1868TIP3   OH227018   5.716   0.999  13.381  0.0913  0.1145 -0.4113
 1868TIP3    H127019   5.645   1.063  13.390 -0.0428  0.2300 -2.1126
 1868TIP3    H227020   5.675   0.922  13.342  0.5256 -0.5259  0.3758
 1869TIP3   OH227021   1.996   2.543   1.689 -0.3295 -0.4977  0.3643
 1869TIP3    H127022   2.086   2.509   1.685 -0.8780 -2.1208  1.3973
 1869TIP3    H227023   1.980   2.557   1.783 -0.4380  1.8368  0.0426
 1870TIP3   OH227024   2.806   3.781   2.708  0.4025 -0.0684 -0.6032
 1870TIP3    H127025   2.827   3.760   2.800  1.6390 -1.1098 -1.1071
 1870TIP3    H227026   2.768   3.700   2.674 -0.7961  0.5655 -0.8139
 1871TIP3   OH227027   5.074   2.186  13.655  0.0625 -0.1912  0.4674
 1871TIP3    H127028   4.991   2.153  13.689 -0.2570  1.0523  0.8992
 1871TIP3    H227029   5.050   2.237  13.577  0.4301  0.1354  0.5685
 1872TIP3   OH227030   4.021   6.009   1.288  0.1972  0.3581  0.3372
 1872TIP3    H127031   3.930   5.981   1.276  0.7776 -1.9026  0.9209
 1872TIP3    H227032   4.057   6.010   1.199  0.0364 -0.2895  0.2620
 1873TIP3   OH227033   5.446   5.547   4.773 -0.5608 -0.1683 -0.0598
 1873TIP3    H127034   5.488   5.501   4.845 -1.3467 -1.2319 -0.2551
 1873TIP3    H227035   5.372   5.593   4.814  0.8328  1.8117  0.3053
 1874TIP3   OH227036   1.363   6.588   4.761 -0.0883 -0.2521 -0.1177
 1874TIP3    H127037   1.325   6.647   4.826  1.2324 -0.6678  1.0602
 1874TIP3    H227038   1.412   6.523   4.812  0.8296 -0.6961 -1.5043
 1875TIP3   OH227039   0.600   4.381   3.167 -0.2166  0.1678 -0.3085
 1875TIP3    H127040   0.607   4.476   3.181  1.1388 -0.0780  0.8785
 1875TIP3    H227041   0.526   4.355   3.222 -0.1254  0.4329 -0.0553
 1876TIP3   OH227042   1.200   3.691  13.650 -0.0495 -0.1662 -0.3637
 1876TIP3    H127043   1.270   3.756  13.653  0.0427 -0.3151  1.1333
 1876TIP3    H227044   1.151   3.705  13.731 -0.4055 -1.5483 -0.3279
 1877TIP3   OH227045   3.531   3.112  11.334  0.7161  0.0574  0.5728
 1877TIP3    H127046   3.581   3.089  11.412  1.2554  0.4153  0.3368
 1877TIP3    H227047   3.583   3.079  11.261  0.8426  0.8329  0.2996
 1878TIP3   OH227048   6.042   2.420  13.226 -0.4552  0.3662 -0.0424
 1878TIP3    H127049   6.049   2.426  13.321  1.9354 -0.5308 -0.1330
 1878TIP3    H227050   6.125   2.381  13.198 -0.5093  2.0137 -2.6357
 1879TIP3   OH227051   5.147   5.520  14.852  0.2432  0.3462  0.2185
 1879TIP3    H127052   5.107   5.595  14.895 -1.2753 -0.1129 -0.3437
 1879TIP3    H227053   5.073   5.474  14.811  1.3829 -0.3876 -1.0611
 1880TIP3   OH227054   5.220   1.280  16.395 -0.1390  0.2542 -0.2407
 1880TIP3    H127055   5.190   1.261  16.484 -0.0472 -0.4177 -0.3495
 1880TIP3    H227056   5.283   1.351  16.405  2.1998 -1.8650  0.6129
 1881TIP3   OH227057   4.371   5.092   4.100  0.5651  0.4556 -0.6915
 1881TIP3    H127058   4.276   5.093   4.114  0.2553  1.6745 -2.7466
 1881TIP3    H227059   4.402   5.020   4.155 -1.3121  1.1610  1.3863
 1882TIP3   OH227060   0.044   4.370   5.469 -0.1326 -0.0080 -0.1742
 1882TIP3    H127061   0.056   4.404   5.558 -0.4428  0.7408 -0.4121
 1882TIP3    H227062   0.018   4.279   5.482  0.4664 -0.0898  0.4820
 1883TIP3   OH227063   2.435   0.225  11.138  0.1343 -0.3181 -0.8628
 1883TIP3    H127064   2.496   0.224  11.211  0.2160 -1.2864 -0.9432
 1883TIP3    H227065   2.364   0.283  11.167  1.5573  1.6180 -1.1627
 1884TIP3   OH227066   0.138   0.216   6.843 -0.7555  0.2217  0.1321
 1884TIP3    H127067   0.075   0.286   6.825 -0.6729  0.2436 -0.0786
 1884TIP3    H227068   0.219   0.245   6.799 -0.9983 -0.4640 -0.7824
 1885TIP3   OH227069   1.267   6.086  10.466  0.3068  0.1088 -0.1895
 1885TIP3    H127070   1.306   5.999  10.459  0.4879  0.2271 -0.7277
 1885TIP3    H227071   1.341   6.144  10.487  0.5581  0.4384 -1.9078
 1886TIP3   OH227072   1.316   2.077  13.081 -0.1067 -0.1498  0.9977
 1886TIP3    H127073   1.295   2.028  13.001 -1.7337  0.1819  1.2074
 1886TIP3    H227074   1.321   2.010  13.149 -2.5224 -0.0403  1.3240
 1887TIP3   OH227075   4.407   4.621   5.300  0.2650  0.4966 -0.0589
 1887TIP3    H127076   4.410   4.696   5.240  0.6911  1.0030  0.5935
 1887TIP3    H227077   4.425   4.658   5.386  0.9448 -0.4296  0.2050
 1888TIP3   OH227078   4.854   0.173   0.371  0.2349  0.0358 -0.3097
 1888TIP3    H127079   4.808   0.181   0.454  1.1362  0.5618  0.1503
 1888TIP3    H227080   4.786   0.181   0.305 -0.6620 -1.5796  0.3917
 1889TIP3   OH227081   0.660   3.157  11.508  0.3204  0.6521 -0.1580
 1889TIP3    H127082   0.592   3.114  11.558  0.7201 -1.7287 -1.5606
 1889TIP3    H227083   0.742   3.117  11.539  0.6296 -0.2760 -2.0748
 1890TIP3   OH227084   2.012   0.519   1.788  0.0775 -0.2178 -0.0757
 1890TIP3    H127085   2.035   0.490   1.876  0.0648  0.0434  0.0133
 1890TIP3    H227086   1.952   0.592   1.801 -1.1767 -1.2010 -0.3076
 1891TIP3   OH227087   6.075   2.003   6.514 -0.3241 -0.0976  0.5699
 1891TIP3    H127088   6.167   2.023   6.529 -0.1110 -1.6918  1.5076
 1891TIP3    H227089   6.043   2.075   6.459  1.9575 -0.5484 -1.3901
 1892TIP3   OH227090   1.479   0.812   2.690  0.0891 -0.5664 -0.1283
 1892TIP3    H127091   1.453   0.753   2.760 -0.1879  1.3539  1.4215
 1892TIP3    H227092   1.397   0.832   2.644  0.0294 -0.5941 -0.0332
 1893TIP3   OH227093   0.813   4.241  11.162  0.1616  0.5227  0.2958
 1893TIP3    H127094   0.776   4.257  11.248  1.5141  0.1037  0.9718
 1893TIP3    H227095   0.886   4.302  11.155 -0.5704  1.2717 -0.9775
 1894TIP3   OH227096   3.095   0.126  12.877 -0.1888 -0.6266  0.0858
 1894TIP3    H127097   3.130   0.057  12.932  0.7251  1.0800  1.6855
 1894TIP3    H227098   3.000   0.111  12.877 -0.1426 -0.9481  1.7126
 1895TIP3   OH227099   3.431   3.969   5.819  0.1643 -0.2031  0.5524
 1895TIP3    H127100   3.400   4.046   5.868 -0.5313 -0.3087  0.2849
 1895TIP3    H227101   3.519   3.954   5.852  0.5197  1.0491  0.2111
 1896TIP3   OH227102   6.737   6.541   3.731 -0.0552  0.6643 -0.9435
 1896TIP3    H127103   6.775   6.612   3.679 -0.2193  0.3490 -1.4933
 1896TIP3    H227104   6.751   6.462   3.679  0.2738  0.2660 -0.2566
 1897TIP3   OH227105   2.606   1.706   4.113 -0.3321  0.3501  0.5686
 1897TIP3    H127106   2.610   1.797   4.142 -0.3661  0.5760 -0.1228
 1897TIP3    H227107   2.516   1.679   4.134 -0.0302  0.1711  1.6599
 1898TIP3   OH227108   5.407   3.716  14.197  0.2438  0.2701  0.0545
 1898TIP3    H127109   5.418   3.642  14.257  1.2357  1.3949  1.2829
 1898TIP3    H227110   5.433   3.681  14.111  0.5431 -0.8547  0.5906
 1899TIP3   OH227111   3.760   0.129  14.551  0.2845 -0.1518  0.2838
 1899TIP3    H127112   3.765   0.213  14.505  2.7489 -0.7233 -0.5243
 1899TIP3    H227113   3.784   0.151  14.642 -0.3184  0.2253  0.3552
 1900TIP3   OH227114   3.004   4.647  13.739 -0.0920 -0.2443  0.7723
 1900TIP3    H127115   3.077   4.705  13.762 -0.6348  0.4475  0.7514
 1900TIP3    H227116   3.036   4.560  13.762 -0.3186  0.3166  3.4635
 1901TIP3   OH227117   1.944   3.149   5.444 -1.0740  0.2573 -0.0401
 1901TIP3    H127118   1.867   3.198   5.414 -1.7590 -0.3026  0.7899
 1901TIP3    H227119   1.937   3.064   5.400 -0.0531  0.7801 -1.2357
 1902TIP3   OH227120   2.156   5.446  12.419  0.1031 -0.4275 -0.3947
 1902TIP3    H127121   2.184   5.390  12.346  0.6825  0.7482 -1.1061
 1902TIP3    H227122   2.065   5.468  12.399 -0.0949 -1.0198 -0.1650
 1903TIP3   OH227123   2.041   2.308  16.579 -0.3232  0.6084 -0.5969
 1903TIP3    H127124   1.976   2.237  16.578 -1.5059  1.6996 -1.7134
 1903TIP3    H227125   2.001   2.376  16.632  0.9260  0.3601  0.6826
 1904TIP3   OH227126   3.823   1.261   5.626 -0.2085 -0.5757 -0.1508
 1904TIP3    H127127   3.829   1.181   5.573  2.7569 -0.5729  0.0687
 1904TIP3    H227128   3.904   1.309   5.605 -0.7291  1.1558  1.6546
 1905TIP3   OH227129   1.359   5.127   2.237 -0.2463  0.1251  0.3176
 1905TIP3    H127130   1.451   5.103   2.231 -0.2806 -0.1164  0.7393
 1905TIP3    H227131   1.358   5.222   2.238 -0.0471  0.1328 -0.4395
 1906TIP3   OH227132   0.565   1.847  11.435  0.0395  0.1840  0.2369
 1906TIP3    H127133   0.604   1.914  11.490  0.7138 -0.7480  0.9082
 1906TIP3    H227134   0.628   1.775  11.436  0.5677  0.5384 -2.5975
 1907TIP3   OH227135   5.684   4.695  15.722  0.3981 -0.5078  0.3342
 1907TIP3    H127136   5.591   4.677  15.709  1.0595 -3.7140 -0.3270
 1907TIP3    H227137   5.719   4.614  15.759  3.0599  0.4335 -0.0561
 1908TIP3   OH227138   0.348   3.082  16.985 -0.3740  0.5865 -0.1124
 1908TIP3    H127139   0.420   3.118  17.037  1.5990 -0.9110 -1.7586
 1908TIP3    H227140   0.358   2.987  16.992 -1.4398  0.3677 -1.3800
 1909TIP3   OH227141   2.626   0.481   2.947  0.4162 -0.3616  0.7741
 1909TIP3    H127142   2.536   0.471   2.913  0.3963 -0.7607  0.9418
 1909TIP3    H227143   2.645   0.397   2.988  1.0296 -0.4311  0.3580
 1910TIP3   OH227144   3.383   0.317   1.399 -0.1588 -0.1450  0.1621
 1910TIP3    H127145   3.468   0.341   1.435  0.3276  0.5740 -1.4322
 1910TIP3    H227146   3.362   0.233   1.442  1.3552 -0.3451  0.5389
 1911TIP3   OH227147   4.038   5.261  12.135  0.6877  0.5451  0.2702
 1911TIP3    H127148   4.062   5.331  12.196  1.1343  2.8247 -2.4382
 1911TIP3    H227149   3.945   5.247  12.150  1.2655 -0.6791  3.1525
 1912TIP3   OH227150   0.196   2.225   5.730  0.0415 -0.1385 -0.5233
 1912TIP3    H127151   0.226   2.158   5.792 -0.4834  0.2948  0.1932
 1912TIP3    H227152   0.241   2.202   5.648  1.0769 -0.4540  0.1185
 1913TIP3   OH227153   3.031   1.836   1.940 -0.2304 -0.3470  0.6148
 1913TIP3    H127154   2.956   1.890   1.914  0.9559  0.2859 -1.6673
 1913TIP3    H227155   3.008   1.748   1.909 -0.1023 -0.1748  0.0132
 1914TIP3   OH227156   6.614   5.282   1.503 -0.1036 -0.5906  0.3751
 1914TIP3    H127157   6.635   5.190   1.517  1.0109  0.0816  3.3990
 1914TIP3    H227158   6.692   5.330   1.529 -0.7474  1.2637 -0.9356
 1915TIP3   OH227159   0.227   5.712  16.187 -0.5219 -0.1811 -0.4648
 1915TIP3    H127160   0.243   5.618  16.184 -0.9806 -0.3423  1.4812
 1915TIP3    H227161   0.147   5.722  16.239 -0.6742  1.2619 -0.9419
 1916TIP3   OH227162   5.029   2.241   4.874 -0.3846  0.0579  0.5411
 1916TIP3    H127163   5.102   2.235   4.811 -1.1472 -0.3184 -0.3113
 1916TIP3    H227164   4.974   2.311   4.840 -0.8467 -0.2078  0.7384
 1917TIP3   OH227165   5.402   2.366  12.839 -0.2686  0.7257 -0.3369
 1917TIP3    H127166   5.317   2.330  12.863  0.6993 -1.3684  0.0492
 1917TIP3    H227167   5.447   2.380  12.923 -0.1811  1.7009 -0.5418
 1918TIP3   OH227168   2.802   1.278   1.058 -0.1065 -1.0356 -0.2555
 1918TIP3    H127169   2.814   1.200   1.113 -1.1208 -0.9402  0.1083
 1918TIP3    H227170   2.794   1.350   1.121  2.3989 -0.3832 -0.6170
 1919TIP3   OH227171   1.273   0.107  14.385  0.5271  0.1762 -0.6736
 1919TIP3    H127172   1.315   0.124  14.301  1.7102 -0.0228 -0.1309
 1919TIP3    H227173   1.344   0.113  14.449  0.1142 -2.1595  0.0349
 1920TIP3   OH227174   5.803   1.030  15.861  0.3993  0.0510  0.3198
 1920TIP3    H127175   5.756   0.999  15.938  1.8513 -3.4056 -0.1197
 1920TIP3    H227176   5.734   1.050  15.797 -0.7226  1.3530  1.8734
 1921TIP3   OH227177   3.361   3.158  15.968 -0.2322 -0.1279 -0.2247
 1921TIP3    H127178   3.358   3.093  16.037  0.7447 -0.6918 -0.7104
 1921TIP3    H227179   3.278   3.146  15.920 -0.5997 -0.1840  0.4182
 1922TIP3   OH227180   5.706   0.501  11.248 -0.2127 -0.8735 -0.3346
 1922TIP3    H127181   5.680   0.451  11.171  0.4420 -2.3814  0.3955
 1922TIP3    H227182   5.802   0.508  11.241 -0.3478  0.8394 -0.7451
 1923TIP3   OH227183   0.568   2.271   1.524  0.3621  0.2446  0.1868
 1923TIP3    H127184   0.579   2.178   1.505  0.3661  0.6488 -1.8146
 1923TIP3    H227185   0.658   2.305   1.523  0.1508  0.7982 -1.9248
 1924TIP3   OH227186   5.553   5.624   4.492 -0.2617  0.3289 -0.0231
 1924TIP3    H127187   5.613   5.595   4.560  1.0399  0.1556 -1.2358
 1924TIP3    H227188   5.506   5.544   4.465 -0.7668  0.3953  0.6388
 1925TIP3   OH227189   3.448   0.285   3.401 -0.1466 -0.1556 -0.7748
 1925TIP3    H127190   3.468   0.192   3.389  0.4996  0.1536 -2.1775
 1925TIP3    H227191   3.420   0.315   3.314  1.0112  1.2877 -0.6663
 1926TIP3   OH227192   0.359   0.451  14.913  0.2014 -0.2949  0.7360
 1926TIP3    H127193   0.337   0.367  14.954 -1.0593 -1.8535 -2.9200
 1926TIP3    H227194   0.285   0.508  14.934 -1.2352 -1.5895 -0.6625
 1927TIP3   OH227195   0.818   1.880   0.014 -0.0545 -0.3394  0.3315
 1927TIP3    H127196   0.811   1.792   0.052  2.7323 -1.2877 -1.2168
 1927TIP3    H227197   0.911   1.900   0.015 -0.6637  2.7425  0.8784
 1928TIP3   OH227198   1.326   2.302   1.116  0.0632 -0.1769  0.5573
 1928TIP3    H127199   1.250   2.319   1.172 -1.0953 -2.1208 -0.3823
 1928TIP3    H227200   1.330   2.207   1.109  2.9319 -0.1400  1.0184
 1929TIP3   OH227201   6.703   3.376   2.219  0.0071 -0.4239  0.0290
 1929TIP3    H127202   6.616   3.413   2.204  1.0187  0.7106 -3.5156
 1929TIP3    H227203   6.740   3.429   2.290 -1.3071  0.6193 -0.0504
 1930TIP3   OH227204   3.588   0.763  14.957 -0.2038  0.2063  0.1745
 1930TIP3    H127205   3.594   0.687  15.014  1.1561  0.6065  0.5738
 1930TIP3    H227206   3.502   0.755  14.915 -1.8776  0.7480  3.4136
 1931TIP3   OH227207   4.390   2.673  16.605 -0.1410  0.2464 -0.0823
 1931TIP3    H127208   4.408   2.713  16.690 -2.5166 -0.2640  0.6947
 1931TIP3    H227209   4.475   2.669  16.562  1.3730 -1.0280  2.9131
 1932TIP3   OH227210   6.427   1.956   5.128  0.3531 -0.5001 -0.2048
 1932TIP3    H127211   6.377   2.037   5.139  0.2951 -0.3876 -1.2285
 1932TIP3    H227212   6.361   1.890   5.108  0.2610 -1.0887  1.9097
 1933TIP3   OH227213   4.957   4.165  13.743 -0.1547 -0.3475 -0.3456
 1933TIP3    H127214   5.039   4.214  13.739 -0.1221 -0.4904 -1.3667
 1933TIP3    H227215   4.906   4.197  13.669 -1.6660  0.8735  1.1856
 1934TIP3   OH227216   3.688   4.900  15.180  0.0859 -0.2917  0.1375
 1934TIP3    H127217   3.682   4.888  15.274  0.1423  3.5185  0.7169
 1934TIP3    H227218   3.598   4.906  15.150  0.0723  1.1131  0.3986
 1935TIP3   OH227219   0.407   3.144  14.198 -0.1286  0.4860 -0.3109
 1935TIP3    H127220   0.314   3.136  14.176  0.2223 -1.3057 -1.2501
 1935TIP3    H227221   0.446   3.187  14.122  0.0269  0.0270 -0.4937
 1936TIP3   OH227222   3.550   0.264  14.837  0.4018 -0.1924 -0.1933
 1936TIP3    H127223   3.614   0.201  14.804 -0.9149 -1.9174  0.4840
 1936TIP3    H227224   3.465   0.227  14.814 -0.4000  1.2625  0.3612
 1937TIP3   OH227225   1.789   3.169  13.566  0.0888  0.2806 -0.1145
 1937TIP3    H127226   1.839   3.219  13.630  1.6669 -0.0771 -1.0422
 1937TIP3    H227227   1.703   3.159  13.605  1.0392  0.0437  1.9674
 1938TIP3   OH227228   3.332   3.171   6.405  0.7817 -0.3033 -0.2258
 1938TIP3    H127229   3.424   3.171   6.432  0.2594  0.1182  1.5718
 1938TIP3    H227230   3.287   3.222   6.472 -0.4282  1.4296 -2.2944
 1939TIP3   OH227231   3.297   3.638  13.995 -0.2681  0.0945 -0.4979
 1939TIP3    H127232   3.391   3.621  13.992 -0.2369  0.4671 -2.9320
 1939TIP3    H227233   3.288   3.710  14.058  0.9735 -0.5176  0.4037
 1940TIP3   OH227234   3.248   3.270  13.830  0.0673  0.1234  0.5326
 1940TIP3    H127235   3.276   3.204  13.893 -0.8212 -0.5654  0.2266
 1940TIP3    H227236   3.302   3.254  13.752 -0.2023 -0.2983  0.4304
 1941TIP3   OH227237   5.095   2.377  13.909  0.3165  0.0678 -0.6412
 1941TIP3    H127238   5.187   2.351  13.918 -0.2689 -1.8204  0.2670
 1941TIP3    H227239   5.049   2.325  13.975 -1.6559 -0.3888 -2.3260
 1942TIP3   OH227240   4.426   0.018   4.508  0.0852  0.4307 -0.0699
 1942TIP3    H127241   4.375  -0.016   4.582 -0.1374  1.4942  0.2708
 1942TIP3    H227242   4.499  -0.044   4.499  0.4429  0.6173  1.4188
 1943TIP3   OH227243   1.921   3.526  12.546 -0.0742 -0.4884  0.6716
 1943TIP3    H127244   1.984   3.475  12.596 -0.8395 -1.7595  0.3416
 1943TIP3    H227245   1.968   3.550  12.466  0.6878  0.3731  1.3728
 1944TIP3   OH227246   6.309   6.110  14.636  0.4590 -0.0700  0.2289
 1944TIP3    H127247   6.296   6.200  14.668 -0.6728 -0.0835 -0.1784
 1944TIP3    H227248   6.359   6.067  14.706 -0.2599  0.4633  1.0846
 1945TIP3   OH227249   3.845   3.882   0.537 -0.1353 -0.6979  0.3437
 1945TIP3    H127250   3.750   3.869   0.548 -0.2887 -1.0119 -1.2552
 1945TIP3    H227251   3.852   3.945   0.465  0.9116 -2.1079 -0.8127
 1946TIP3   OH227252   4.053   4.893  16.528  0.4657  0.2096  0.3412
 1946TIP3    H127253   4.060   4.945  16.449 -0.1295  3.2482  2.1955
 1946TIP3    H227254   4.139   4.900  16.570 -0.0338  0.9024  1.2803
 1947TIP3   OH227255   2.253   5.858  10.440  0.0708 -0.3700 -0.4677
 1947TIP3    H127256   2.256   5.770  10.478  0.2935  0.7432  2.1973
 1947TIP3    H227257   2.344   5.879  10.421  0.0129 -0.7217 -1.1467
 1948TIP3   OH227258   6.438   0.887   0.943  0.3818 -0.6933 -0.0204
 1948TIP3    H127259   6.529   0.861   0.960  0.4962 -0.6534 -0.5564
 1948TIP3    H227260   6.430   0.884   0.847  0.0663  0.1331 -0.0239
 1949TIP3   OH227261   6.745   6.609   6.987 -0.0876 -0.6766  0.3341
 1949TIP3    H127262   6.770   6.655   6.906 -1.5546 -1.4601 -0.5926
 1949TIP3    H227263   6.818   6.624   7.047  0.3912  1.1014 -0.6629
 1950TIP3   OH227264   6.702   6.681   1.796 -0.2436  0.5888  0.0653
 1950TIP3    H127265   6.654   6.662   1.876 -0.1882 -0.6250 -0.1796
 1950TIP3    H227266   6.787   6.714   1.827 -1.0247  2.1973  0.4931
 1951TIP3   OH227267   2.360   4.074   2.812  0.1219  0.3874 -0.0361
 1951TIP3    H127268   2.311   3.996   2.786  0.8356 -0.6156  1.5363
 1951TIP3    H227269   2.380   4.060   2.904 -1.6446  3.4784  0.8731
 1952TIP3   OH227270   3.561   1.616  16.496 -0.6359 -0.0717 -0.2263
 1952TIP3    H127271   3.557   1.691  16.556 -1.1633 -0.2689 -0.0095
 1952TIP3    H227272   3.604   1.650  16.418  0.1757  0.1568  0.3145
 1953TIP3   OH227273   3.927   5.009  16.058  0.0737 -0.4794  0.3296
 1953TIP3    H127274   3.999   4.947  16.067 -0.7021 -1.0408  2.9541
 1953TIP3    H227275   3.890   4.989  15.972  1.5398 -1.8096 -0.0208
 1954TIP3   OH227276   3.182   3.304  11.352 -0.2171 -0.1229 -0.4056
 1954TIP3    H127277   3.118   3.373  11.331 -1.2790 -1.4005 -1.4906
 1954TIP3    H227278   3.226   3.287  11.269  0.0158 -0.7624 -0.1501
 1955TIP3   OH227279   5.397   0.929   0.319 -0.4471  0.0448  0.1172
 1955TIP3    H127280   5.473   0.879   0.350 -0.3974 -0.6415 -1.0790
 1955TIP3    H227281   5.332   0.918   0.388 -0.2791 -1.3342  0.0704
 1956TIP3   OH227282   1.772   6.326   0.407  0.2399 -0.0813 -0.3871
 1956TIP3    H127283   1.677   6.312   0.407  0.3748 -1.0854 -1.6431
 1956TIP3    H227284   1.805   6.269   0.337  1.7183  0.6146 -0.2797
 1957TIP3   OH227285   5.022   2.478  15.704  0.1126 -0.3210 -0.1187
 1957TIP3    H127286   5.076   2.463  15.781  0.6751  0.5303 -0.3360
 1957TIP3    H227287   5.061   2.424  15.636 -1.3654 -2.3590  0.5913
 1958TIP3   OH227288   4.361   0.640   3.153 -0.0221  0.0335 -0.0949
 1958TIP3    H127289   4.353   0.697   3.229  0.1325 -1.7722  1.3015
 1958TIP3    H227290   4.439   0.672   3.107 -1.4421  2.6109 -0.7980
 1959TIP3   OH227291   1.159   2.791   5.645  0.0963  0.0663  0.0102
 1959TIP3    H127292   1.213   2.815   5.570 -1.9506  0.4758 -1.3899
 1959TIP3    H227293   1.186   2.702   5.667  1.8588  0.5484 -0.1421
 1960TIP3   OH227294   1.226   1.306  11.049  0.1312  0.2666 -0.1917
 1960TIP3    H127295   1.227   1.231  10.990 -0.0238 -0.6673  0.9809
 1960TIP3    H227296   1.268   1.275  11.129  1.1077  1.7747 -0.0916
 1961TIP3   OH227297   4.800   3.133  11.579  0.7662 -0.3241  0.4816
 1961TIP3    H127298   4.839   3.220  11.578  2.2903 -0.9644  1.4264
 1961TIP3    H227299   4.725   3.141  11.639  0.4753  0.4958  0.0117
 1962TIP3   OH227300   5.806   3.699   4.563  0.7288 -0.1831 -0.2670
 1962TIP3    H127301   5.754   3.630   4.605 -1.8463  1.2250 -0.9824
 1962TIP3    H227302   5.851   3.743   4.635 -1.8832  0.7818  0.8416
 1963TIP3   OH227303   5.528   3.196  11.821 -0.9698  0.0500 -0.4088
 1963TIP3    H127304   5.527   3.104  11.845  0.3323  0.4251  1.1842
 1963TIP3    H227305   5.596   3.203  11.754 -1.1734 -0.1628 -0.6404
 1964TIP3   OH227306   5.045   4.582  14.582  0.7386 -0.3958  0.2432
 1964TIP3    H127307   4.996   4.639  14.522  2.8923  0.3927 -0.8110
 1964TIP3    H227308   4.999   4.498  14.578 -1.0831  0.5766  0.0251
 1965TIP3   OH227309   1.617   1.791   2.111  0.6765 -0.0366  0.1330
 1965TIP3    H127310   1.700   1.752   2.136  1.5756  1.0810 -1.0701
 1965TIP3    H227311   1.627   1.884   2.130 -0.3931  0.0630  0.2348
 1966TIP3   OH227312   0.801   6.478  11.101  0.5262  0.6034  0.3504
 1966TIP3    H127313   0.849   6.398  11.124  0.4423  0.1695 -0.9467
 1966TIP3    H227314   0.751   6.454  11.022 -0.8472  1.4262  0.9588
 1967TIP3   OH227315   5.133   4.974  11.107  0.2900 -0.0105  0.3014
 1967TIP3    H127316   5.062   4.932  11.059  0.0997  1.2040 -0.4904
 1967TIP3    H227317   5.195   4.903  11.125 -0.3584 -0.7580 -0.4051
 1968TIP3   OH227318   3.857   4.177  11.425 -0.2859 -0.0729  0.3916
 1968TIP3    H127319   3.942   4.152  11.388  0.9609  2.3791  1.5067
 1968TIP3    H227320   3.796   4.170  11.351  0.8040 -2.1165 -0.3594
 1969TIP3   OH227321   2.458   5.012  12.278  0.1218  0.3592  0.3374
 1969TIP3    H127322   2.533   5.041  12.226 -0.1593  0.3408 -0.0832
 1969TIP3    H227323   2.449   4.919  12.257 -0.6754  0.6019 -0.4431
 1970TIP3   OH227324   4.458   2.267   2.452 -0.1384 -0.0555 -0.1917
 1970TIP3    H127325   4.462   2.187   2.504 -1.0503  0.3783  0.5598
 1970TIP3    H227326   4.493   2.242   2.366  0.9130 -0.8883  0.4809
 1971TIP3   OH227327   2.094   3.473  11.990 -0.3080 -0.2627  0.3215
 1971TIP3    H127328   2.041   3.430  11.923  0.9459 -1.0134 -0.2102
 1971TIP3    H227329   2.051   3.451  12.072 -0.2373 -1.7330 -0.0219
 1972TIP3   OH227330   0.360   0.202   4.618 -0.2828  0.0807 -0.3711
 1972TIP3    H127331   0.269   0.233   4.611  0.3662  2.2616  0.2455
 1972TIP3    H227332   0.358   0.136   4.687 -1.3694  0.2779 -0.2024
 1973TIP3   OH227333   0.684   6.603  13.053 -0.0769  0.0854 -0.0650
 1973TIP3    H127334   0.614   6.662  13.023 -0.1182 -0.4887 -1.1162
 1973TIP3    H227335   0.655   6.516  13.027  0.2971 -0.3340  0.9043
 1974TIP3   OH227336   1.936   4.066   3.261 -0.7740 -0.3097 -0.1932
 1974TIP3    H127337   1.859   4.052   3.316 -1.1703 -0.7756 -0.8595
 1974TIP3    H227338   1.944   3.985   3.211  0.5947 -0.5672  0.4136
 1975TIP3   OH227339   4.056   1.110   0.402  0.1511  0.2048 -0.1925
 1975TIP3    H127340   4.069   1.134   0.494 -1.0041 -1.1077  0.3197
 1975TIP3    H227341   4.139   1.070   0.376 -0.0927 -0.9275  0.7534
 1976TIP3   OH227342   4.643   1.021  16.283 -0.6677 -0.0323 -0.0442
 1976TIP3    H127343   4.712   0.980  16.231 -0.6028  1.1497 -0.9304
 1976TIP3    H227344   4.655   0.987  16.371  1.1416  0.2578 -0.1569
 1977TIP3   OH227345   1.699   1.492   1.828  0.1786  0.2217  0.0544
 1977TIP3    H127346   1.604   1.496   1.822  0.0348 -3.2423 -1.5412
 1977TIP3    H227347   1.716   1.464   1.918 -0.2763  1.2432  0.4630
 1978TIP3   OH227348   6.330   6.020   3.843 -0.2279  0.4916  0.2426
 1978TIP3    H127349   6.335   6.018   3.747  2.6421 -0.8999  0.3859
 1978TIP3    H227350   6.339   6.113   3.865 -4.7347  1.3237 -0.9311
 1979TIP3   OH227351   0.089   4.155  14.853 -0.4309  0.5357  1.0096
 1979TIP3    H127352   0.149   4.228  14.841 -1.8912  2.2841  3.8631
 1979TIP3    H227353   0.131   4.101  14.920 -0.6283  0.1700  0.8383
 1980TIP3   OH227354   1.144   1.180   5.907  0.3523 -0.0022  0.2744
 1980TIP3    H127355   1.209   1.109   5.907  0.5920  0.1994  1.4887
 1980TIP3    H227356   1.073   1.147   5.963 -1.2045 -0.7434 -2.0403
 1981TIP3   OH227357   1.810   3.308   3.032 -0.2239 -0.1329  0.3846
 1981TIP3    H127358   1.734   3.356   3.064  0.0535  0.3913  0.2650
 1981TIP3    H227359   1.818   3.335   2.940  1.8547  2.1052  1.1657
 1982TIP3   OH227360   3.955   2.014   0.960  0.5472  0.3869  0.7303
 1982TIP3    H127361   3.937   2.107   0.973 -0.1621  0.3269  0.2070
 1982TIP3    H227362   4.020   2.011   0.889 -0.9760  0.4053 -0.6980
 1983TIP3   OH227363   1.686   5.476   4.024 -0.4229  0.5199  0.7224
 1983TIP3    H127364   1.724   5.398   3.982  1.1497  1.5344  0.1918
 1983TIP3    H227365   1.754   5.543   4.015 -1.8780  2.0544  0.8817
 1984TIP3   OH227366   5.386   3.603  13.917  0.2984  0.0374  0.2487
 1984TIP3    H127367   5.337   3.685  13.913 -0.8327 -0.6419 -0.0681
 1984TIP3    H227368   5.434   3.600  13.835  0.5950  0.5307  0.4008
 1985TIP3   OH227369   0.880   3.320   5.378  0.4170 -0.3087  0.0090
 1985TIP3    H127370   0.855   3.410   5.356  1.6428  0.3752  1.3290
 1985TIP3    H227371   0.911   3.325   5.469 -1.7953 -2.5127  0.9478
 1986TIP3   OH227372   1.198   2.715   0.737  0.3921 -0.0099  0.2066
 1986TIP3    H127373   1.188   2.743   0.828  1.6400  0.8329  0.0976
 1986TIP3    H227374   1.221   2.622   0.743  1.1998  0.2253  0.7894
 1987TIP3   OH227375   0.249   4.486  14.527 -0.6187 -0.0830  0.2640
 1987TIP3    H127376   0.205   4.536  14.595 -0.0747 -1.2549  1.4931
 1987TIP3    H227377   0.178   4.452  14.472 -1.0401  1.0972  0.0593
 1988TIP3   OH227378   6.458   0.349   3.981  0.3008  0.4271  0.5150
 1988TIP3    H127379   6.488   0.347   4.072 -0.1575  0.4077  0.6702
 1988TIP3    H227380   6.363   0.338   3.988  0.1633  1.3708  0.0852
 1989TIP3   OH227381   3.958   0.838   4.564 -0.4675 -0.0060 -0.6322
 1989TIP3    H127382   3.895   0.860   4.496 -1.2212 -1.8566 -0.5638
 1989TIP3    H227383   4.043   0.846   4.521 -0.8973 -0.3879 -1.5692
 1990TIP3   OH227384   0.492   5.976  12.735  0.7797 -0.3768 -0.0350
 1990TIP3    H127385   0.422   6.042  12.742  0.5701 -0.7728  1.6466
 1990TIP3    H227386   0.479   5.918  12.809  2.6975 -0.6605  0.1193
 1991TIP3   OH227387   0.096   4.124  10.632  0.2151 -0.0229  0.1783
 1991TIP3    H127388   0.182   4.098  10.597  0.0149  1.5520 -1.5469
 1991TIP3    H227389   0.098   4.219  10.633 -1.2286  0.0090  0.8798
 1992TIP3   OH227390   2.067   6.121  11.705  0.5658 -0.1213  0.3340
 1992TIP3    H127391   2.148   6.119  11.655  0.6885 -0.2487  0.5366
 1992TIP3    H227392   2.092   6.090  11.792  0.5322  0.9588  0.7282
 1993TIP3   OH227393   3.169   2.220  14.721  0.0010 -0.2871  0.0218
 1993TIP3    H127394   3.190   2.302  14.678 -1.7757  0.1573 -0.0637
 1993TIP3    H227395   3.110   2.245  14.793  0.6997 -1.3196  0.9827
 1994TIP3   OH227396   4.417   4.043   1.876  0.5642 -0.0460  0.2405
 1994TIP3    H127397   4.474   4.004   1.810 -0.6528 -0.9983 -0.2682
 1994TIP3    H227398   4.334   3.996   1.867 -0.2710  1.2335  1.0390
 1995TIP3   OH227399   4.212   1.704   3.699  0.4363  0.0277  0.1699
 1995TIP3    H127400   4.131   1.746   3.668  0.7506  0.0926 -0.5830
 1995TIP3    H227401   4.279   1.734   3.637  0.9055 -0.5860  0.3794
 1996TIP3   OH227402   5.649   6.567   5.003  0.1103 -0.3050  0.6789
 1996TIP3    H127403   5.645   6.479   4.966 -2.8533 -0.8979  2.3208
 1996TIP3    H227404   5.566   6.608   4.978  0.1531  0.9659  2.5477
 1997TIP3   OH227405   0.692   6.013   4.434 -0.1451 -0.4660 -0.1783
 1997TIP3    H127406   0.721   6.087   4.488 -0.5742 -0.4200 -0.0098
 1997TIP3    H227407   0.755   5.943   4.454 -1.7180 -1.2562  2.2808
 1998TIP3   OH227408   4.194   6.375   4.573 -0.2400 -0.0126  0.2580
 1998TIP3    H127409   4.134   6.324   4.519  1.7404 -0.7830 -1.2973
 1998TIP3    H227410   4.276   6.376   4.522  0.7534  1.8371  1.8487
 1999TIP3   OH227411   4.529   1.678   3.226  0.7706 -0.3413 -0.3642
 1999TIP3    H127412   4.587   1.622   3.175 -1.1585 -2.6734 -0.1209
 1999TIP3    H227413   4.495   1.741   3.163  4.1803  1.6346 -0.3203
 2000TIP3   OH227414   0.499   5.192  13.681  0.3464 -0.3961  0.0449
 2000TIP3    H127415   0.544   5.276  13.680 -0.8911  0.2877  0.3454
 2000TIP3    H227416   0.554   5.135  13.735  0.0605  0.8771  1.7160
 2001TIP3   OH227417   4.000   2.002   2.059  0.2127  0.2583 -0.2626
 2001TIP3    H127418   4.051   1.970   2.134  0.6367 -1.0370 -1.0910
 2001TIP3    H227419   3.950   1.927   2.030  0.5359  0.5704 -1.6780
 2002TIP3   OH227420   6.519   6.130   4.103 -0.0654 -0.1301  0.4251
 2002TIP3    H127421   6.527   6.037   4.125  0.4401 -0.2898 -0.4225
 2002TIP3    H227422   6.425   6.144   4.092 -0.0111 -0.9218 -1.0710
 2003TIP3   OH227423   0.828   1.619  12.793 -0.7355 -0.1233  0.2508
 2003TIP3    H127424   0.798   1.709  12.789 -0.2636  0.1318  1.9776
 2003TIP3    H227425   0.793   1.585  12.875  2.2957 -0.2878  1.5610
 2004TIP3   OH227426   0.141   3.662  16.432  0.1592 -0.1546 -0.3622
 2004TIP3    H127427   0.128   3.570  16.408 -0.0095 -0.4608  0.8206
 2004TIP3    H227428   0.126   3.663  16.527  0.0450  1.1178 -0.3902
 2005TIP3   OH227429   1.168   6.555  11.509  0.2281  0.1853  0.0002
 2005TIP3    H127430   1.213   6.615  11.568  0.8167  0.4017 -0.6493
 2005TIP3    H227431   1.096   6.519  11.560  1.5767 -0.7274  1.2892
 2006TIP3   OH227432   3.774   4.859   4.956  0.7330  0.1186 -0.7798
 2006TIP3    H127433   3.837   4.789   4.970  2.0145  1.0906 -1.5800
 2006TIP3    H227434   3.689   4.815   4.953  1.4868 -1.3430 -0.8425
 2007TIP3   OH227435   0.436   1.662  16.802  0.3619  0.2211  0.1940
 2007TIP3    H127436   0.404   1.731  16.861 -0.8851  0.0474 -0.2551
 2007TIP3    H227437   0.418   1.696  16.715  2.0478  0.4013 -0.0990
 2008TIP3   OH227438   6.004   2.123   5.449  0.0698 -0.7168 -0.0411
 2008TIP3    H127439   6.019   2.135   5.355 -1.2383 -0.2572 -0.2073
 2008TIP3    H227440   6.019   2.210   5.487 -1.5353 -0.3865 -0.1354
 2009TIP3   OH227441   4.494   0.264  11.306  0.1252  0.2206 -0.5002
 2009TIP3    H127442   4.563   0.300  11.250  0.3641  0.0759 -0.2984
 2009TIP3    H227443   4.413   0.291  11.263  0.2819  1.8252  0.1542
 2010TIP3   OH227444   1.852   0.296   2.022 -0.6960 -0.0470  0.1470
 2010TIP3    H127445   1.831   0.339   1.939 -1.0535 -1.1978 -0.3613
 2010TIP3    H227446   1.864   0.204   2.000  1.1094 -0.0495  1.0774
 2011TIP3   OH227447   4.098   4.532  15.715 -0.3297 -0.2638  0.0413
 2011TIP3    H127448   4.163   4.466  15.691  0.0992 -1.0590  3.1591
 2011TIP3    H227449   4.151   4.608  15.741 -0.7020 -0.1048  0.3361
 2012TIP3   OH227450   1.596   5.980  16.464  0.6439  0.2635  0.7577
 2012TIP3    H127451   1.615   5.899  16.512  0.5679  2.0019  3.8689
 2012TIP3    H227452   1.504   5.971  16.438  0.5106 -0.4698  1.4596
 2013TIP3   OH227453   2.243   4.732  12.042 -0.3871  0.0334  0.3268
 2013TIP3    H127454   2.246   4.743  12.137 -0.8601  0.0423  0.3449
 2013TIP3    H227455   2.217   4.819  12.009 -0.7542 -0.1105  0.2296
 2014TIP3   OH227456   5.052   5.573  13.714  0.3163  0.1118 -0.5420
 2014TIP3    H127457   5.038   5.644  13.651  2.4136  0.0035 -1.1945
 2014TIP3    H227458   5.009   5.497  13.674  0.1119  0.4702 -1.0066
 2015TIP3   OH227459   5.102   5.752   2.904 -0.2134  0.2202  0.0334
 2015TIP3    H127460   5.158   5.793   2.839  0.5982 -0.9381 -0.0239
 2015TIP3    H227461   5.118   5.801   2.985  0.5794  0.1492 -0.0796
 2016TIP3   OH227462   6.155   1.814   1.952  1.0022  0.4989  0.7609
 2016TIP3    H127463   6.121   1.893   1.995 -0.3671  0.8846 -0.9407
 2016TIP3    H227464   6.082   1.752   1.955  1.7190 -0.3314  1.1497
 2017TIP3   OH227465   1.314   3.354  14.930  0.0625  0.1642  0.0432
 2017TIP3    H127466   1.302   3.433  14.982 -1.4844  1.2815 -1.9475
 2017TIP3    H227467   1.252   3.291  14.966 -0.3175  0.6162  0.1736
 2018TIP3   OH227468   1.003   2.085  13.165  0.2039  0.1535 -0.0091
 2018TIP3    H127469   0.969   2.060  13.079  0.8829 -0.1341 -0.1990
 2018TIP3    H227470   1.051   2.008  13.195  0.1488  0.3302  0.5337
 2019TIP3   OH227471   1.582   6.315  14.980 -0.4441  0.0593 -0.1165
 2019TIP3    H127472   1.634   6.272  15.048 -0.2173 -0.2428 -0.4769
 2019TIP3    H227473   1.491   6.298  15.004 -0.3553 -0.5217 -0.1957
 2020TIP3   OH227474   5.430   6.630  15.219  0.6379  0.1840  0.2709
 2020TIP3    H127475   5.466   6.611  15.306 -0.3441 -0.5340  0.5308
 2020TIP3    H227476   5.415   6.544  15.180  1.1528  0.5027 -0.6522
 2021TIP3   OH227477   2.217   4.119   2.079  0.4863 -0.5124  0.1900
 2021TIP3    H127478   2.242   4.088   1.991 -1.5969 -1.3253 -0.1642
 2021TIP3    H227479   2.179   4.206   2.064  0.2005 -0.6205  0.2723
 2022TIP3   OH227480   0.338   3.190  13.015 -0.5920  0.6619  0.0655
 2022TIP3    H127481   0.316   3.097  13.019 -1.3816  0.8742  0.8918
 2022TIP3    H227482   0.410   3.200  13.077 -0.2500  0.5419 -0.3058
 2023TIP3   OH227483   3.291   1.675   6.467 -0.5270 -0.2689 -0.5971
 2023TIP3    H127484   3.271   1.639   6.381  0.9904 -0.5976 -0.8412
 2023TIP3    H227485   3.383   1.651   6.481 -0.2659  1.2480  0.3738
 2024TIP3   OH227486   4.067   0.260   0.463 -0.2836 -0.0231  0.3032
 2024TIP3    H127487   3.979   0.252   0.498  0.0324 -1.1003  0.8796
 2024TIP3    H227488   4.123   0.270   0.540  0.1030  0.6378 -0.0543
 2025TIP3   OH227489   3.627   3.743   3.199 -0.3856  0.3139 -0.2371
 2025TIP3    H127490   3.661   3.830   3.221  0.4373 -0.7390  2.8363
 2025TIP3    H227491   3.550   3.760   3.145 -0.0626  2.9247  0.0757
 2026TIP3   OH227492   0.112   3.965   0.366 -0.5038  0.0670  0.3876
 2026TIP3    H127493   0.203   3.988   0.347  0.3297 -1.9544  1.8643
 2026TIP3    H227494   0.087   3.904   0.297 -1.2266  1.6548 -0.8112
 2027TIP3   OH227495   5.582   2.016   2.140  0.3754 -0.1892 -0.6649
 2027TIP3    H127496   5.672   2.045   2.155  0.8063 -2.0916  0.5519
 2027TIP3    H227497   5.591   1.930   2.101 -0.9245  0.2346 -1.9421
 2028TIP3   OH227498   3.592   4.595   6.514  0.2878  0.1389 -0.4912
 2028TIP3    H127499   3.550   4.511   6.529 -1.9612  1.2355 -0.5077
 2028TIP3    H227500   3.521   4.654   6.487  1.7557  2.1205 -0.1884
 2029TIP3   OH227501   5.408   1.410   1.899  0.0090  0.0290  0.3579
 2029TIP3    H127502   5.498   1.388   1.876 -0.7969 -0.9240 -2.0448
 2029TIP3    H227503   5.389   1.355   1.975  1.3838  0.1318  0.8015
 2030TIP3   OH227504   2.868   0.339   5.394 -0.0568  0.4255 -0.2969
 2030TIP3    H127505   2.840   0.383   5.474  3.0289  1.0286  0.5398
 2030TIP3    H227506   2.850   0.246   5.410 -0.9397  0.7289  0.4560
 2031TIP3   OH227507   6.431   6.383   4.697  0.1449 -0.1094 -0.1393
 2031TIP3    H127508   6.337   6.399   4.708  0.1959  0.8113 -1.0253
 2031TIP3    H227509   6.441   6.359   4.605  0.6525 -1.1811  0.1883
 2032TIP3   OH227510   2.461   5.998   4.790 -0.1373  0.1804  0.1038
 2032TIP3    H127511   2.556   6.006   4.790 -0.1188  0.6273  2.6287
 2032TIP3    H227512   2.443   5.907   4.766  0.8646  0.3916 -1.4853
 2033TIP3   OH227513   3.731   4.479  11.692 -0.1781  0.4505 -0.1796
 2033TIP3    H127514   3.810   4.425  11.688 -0.7030 -0.3502  0.1966
 2033TIP3    H227515   3.759   4.565  11.660  0.8313  0.1561 -0.0994
 2034TIP3   OH227516   0.748   2.721   3.789 -0.0156  1.1237  0.2418
 2034TIP3    H127517   0.742   2.807   3.748  1.4058  1.3504  0.4890
 2034TIP3    H227518   0.773   2.739   3.879 -0.7381  0.5022  0.5647
 2035TIP3   OH227519   2.364   1.614  10.687 -0.1634  0.1098  0.0710
 2035TIP3    H127520   2.337   1.692  10.639 -1.3235 -0.6809 -0.5929
 2035TIP3    H227521   2.288   1.590  10.740  0.8467  0.5381  1.7655
 2036TIP3   OH227522   6.476   2.949   4.956 -0.1895 -0.2262  0.0241
 2036TIP3    H127523   6.396   2.898   4.972 -0.3708 -0.0788 -0.4074
 2036TIP3    H227524   6.445   3.039   4.945  0.1200 -0.0362  0.6700
 2037TIP3   OH227525   1.219   2.814   6.024  0.0190  0.0894  0.2772
 2037TIP3    H127526   1.152   2.773   6.079 -1.4967  1.1122 -0.7465
 2037TIP3    H227527   1.196   2.907   6.025  0.4546  0.2297 -1.4074
 2038TIP3   OH227528   3.176   2.454  12.803 -0.1368  0.3499 -0.2220
 2038TIP3    H127529   3.219   2.400  12.736 -0.1507  0.2050 -0.1150
 2038TIP3    H227530   3.239   2.522  12.823  0.1524 -0.0165  0.1263
 2039TIP3   OH227531   3.319   3.194  16.915  0.1159  0.4070  0.2685
 2039TIP3    H127532   3.252   3.222  16.976  1.3658 -0.3723  2.0549
 2039TIP3    H227533   3.401   3.223  16.954  1.1236 -2.1355  0.1912
 2040TIP3   OH227534   3.268   3.724  12.913  0.1818 -0.0770 -0.2646
 2040TIP3    H127535   3.320   3.662  12.862 -1.3837 -1.3378 -0.3870
 2040TIP3    H227536   3.181   3.722  12.872 -0.9586 -0.7190  2.0945
 2041TIP3   OH227537   6.285   4.522  11.873 -0.5225  0.6710  0.3098
 2041TIP3    H127538   6.335   4.506  11.952 -1.3599  0.0548  0.7299
 2041TIP3    H227539   6.243   4.607  11.887 -0.7982  0.4890  0.6041
 2042TIP3   OH227540   5.631   2.829  10.764 -0.5876  0.1608 -0.4650
 2042TIP3    H127541   5.713   2.879  10.768 -1.1587  1.0035  1.6824
 2042TIP3    H227542   5.657   2.742  10.735  1.0481  0.5048 -0.1015
 2043TIP3   OH227543   4.768   1.214   2.439 -0.1206  0.2775  0.3262
 2043TIP3    H127544   4.785   1.184   2.349 -0.2504 -0.5869  0.5864
 2043TIP3    H227545   4.708   1.148   2.475  1.8271 -0.7141  1.8612
 2044TIP3   OH227546   1.229   3.266   3.195  0.2830  0.3569 -0.1886
 2044TIP3    H127547   1.201   3.279   3.104  0.1896 -0.0511 -0.2166
 2044TIP3    H227548   1.173   3.196   3.228  0.4779  0.3404  0.1104
 2045TIP3   OH227549   0.051   2.407   2.162  0.1271 -0.2878  0.1638
 2045TIP3    H127550   0.020   2.356   2.236 -0.8786 -0.0319 -0.0664
 2045TIP3    H227551   0.093   2.343   2.104 -0.0444 -0.6530  0.4447
 2046TIP3   OH227552   3.900   6.396   4.533  0.0773  0.1640  0.0953
 2046TIP3    H127553   3.868   6.416   4.620 -1.4106  1.1487 -0.6558
 2046TIP3    H227554   3.949   6.474   4.507  0.7206 -0.2231  0.1504
 2047TIP3   OH227555   4.406   0.204  17.116 -0.8697 -0.5420  0.1875
 2047TIP3    H127556   4.490   0.200  17.071 -1.0285 -3.3275  0.0667
 2047TIP3    H227557   4.424   0.169  17.204 -1.3407  1.4027  1.0844
 2048TIP3   OH227558   1.517   4.957  13.474  0.1053 -0.0833  0.0680
 2048TIP3    H127559   1.464   4.913  13.540 -0.6884  0.7662  0.0170
 2048TIP3    H227560   1.552   5.034  13.519 -0.6071  0.6120 -0.5425
 2049TIP3   OH227561   5.739   1.726   2.704 -0.1647 -0.0948 -0.7413
 2049TIP3    H127562   5.686   1.794   2.746 -1.1191 -1.9271  1.1810
 2049TIP3    H227563   5.806   1.704   2.769  1.2044  0.2020 -2.0296
 2050TIP3   OH227564   2.485   0.112  11.981  0.1900  0.2665  0.0597
 2050TIP3    H127565   2.556   0.167  12.015 -0.0106 -0.0559  0.9943
 2050TIP3    H227566   2.427   0.173  11.936  1.1895  0.5010 -0.9301
 2051TIP3   OH227567   2.942   1.558   1.062 -0.6205  0.9069  0.1134
 2051TIP3    H127568   2.989   1.479   1.088 -1.3422 -0.0086 -1.3426
 2051TIP3    H227569   3.010   1.616   1.026 -0.5638 -0.4295 -2.0274
 2052TIP3   OH227570   1.033   3.880  11.188  0.1388 -0.2770 -0.1455
 2052TIP3    H127571   1.071   3.818  11.126  0.7282  0.9624 -1.0514
 2052TIP3    H227572   0.938   3.869  11.180  0.1909  0.5504 -1.9727
 2053TIP3   OH227573   5.847   2.469  14.402 -0.3878 -0.3420  0.2116
 2053TIP3    H127574   5.869   2.558  14.374 -0.1521 -1.0030 -1.8045
 2053TIP3    H227575   5.864   2.415  14.325  1.1005 -2.3896  1.8966
 2054TIP3   OH227576   3.027   4.753   5.111 -0.2943 -0.4015 -0.1433
 2054TIP3    H127577   3.044   4.844   5.135 -1.0262 -0.4194  0.4572
 2054TIP3    H227578   3.050   4.703   5.190 -2.6083 -0.4751  0.5108
 2055TIP3   OH227579   0.397   4.272   3.294 -0.0682  0.0060 -0.1857
 2055TIP3    H127580   0.337   4.248   3.365 -0.9906 -0.4057 -1.0980
 2055TIP3    H227581   0.344   4.324   3.234  0.9465  1.1186 -0.1282
 2056TIP3   OH227582   0.581   6.002  16.585  0.9936 -0.7840 -0.0730
 2056TIP3    H127583   0.521   5.984  16.513  1.5956 -0.3892 -0.6853
 2056TIP3    H227584   0.631   6.078  16.556  2.0993 -1.3842  0.2209
 2057TIP3   OH227585   6.275   0.608  14.885 -0.4082 -0.1253  0.6615
 2057TIP3    H127586   6.362   0.641  14.909  0.0332 -0.9379  0.2206
 2057TIP3    H227587   6.273   0.615  14.789 -0.5361 -0.8264  0.6159
 2058TIP3   OH227588   5.819   6.784   0.586  0.2882 -0.5352 -0.4577
 2058TIP3    H127589   5.777   6.858   0.630 -0.3117 -1.9043  1.3295
 2058TIP3    H227590   5.911   6.808   0.581  0.4051 -0.4437  1.7866
 2059TIP3   OH227591   4.492   1.086   1.755 -0.1143 -0.0495  0.6467
 2059TIP3    H127592   4.459   1.134   1.680 -0.9484 -1.1640  0.2928
 2059TIP3    H227593   4.455   1.131   1.831 -1.6871 -0.7189  0.2854
 2060TIP3   OH227594   0.189   1.623  13.648  0.3949 -0.2130  0.0760
 2060TIP3    H127595   0.273   1.660  13.674  0.6195 -0.2835 -0.5600
 2060TIP3    H227596   0.185   1.539  13.694 -0.6360  1.0852  2.4834
 2061TIP3   OH227597   2.664   5.317   0.341  0.2782 -0.5601  0.3964
 2061TIP3    H127598   2.735   5.320   0.277  0.3878 -0.7417  0.5053
 2061TIP3    H227599   2.613   5.396   0.325  0.1382 -0.7496 -0.1030
 2062TIP3   OH227600   2.332   0.235  14.769  0.4425 -0.3087 -0.0287
 2062TIP3    H127601   2.377   0.155  14.794  0.0813 -0.6201 -0.3769
 2062TIP3    H227602   2.301   0.220  14.680  0.1439  0.1138 -0.0027
 2063TIP3   OH227603   1.362   5.370   5.100 -0.2845 -0.1360 -0.2042
 2063TIP3    H127604   1.376   5.437   5.166  0.4321 -0.8077  0.3507
 2063TIP3    H227605   1.368   5.287   5.148  1.9961 -0.7071 -1.3562
 2064TIP3   OH227606   0.200   0.088   1.365 -0.0800  0.2878 -0.0566
 2064TIP3    H127607   0.288   0.114   1.390 -0.8457  1.3697  1.5875
 2064TIP3    H227608   0.196   0.105   1.270  0.9399  1.8105  0.1604
 2065TIP3   OH227609   6.748   0.789   5.620 -0.0775 -0.3961 -0.2550
 2065TIP3    H127610   6.667   0.838   5.636 -0.3389 -0.7566 -0.4688
 2065TIP3    H227611   6.731   0.702   5.658  0.7083 -0.0403  0.9150
 2066TIP3   OH227612   0.189   0.222  17.150  0.5074 -0.3660 -0.5809
 2066TIP3    H127613   0.128   0.179  17.091  0.4395 -1.0676 -0.0040
 2066TIP3    H227614   0.258   0.257  17.093  0.1014 -0.4657 -1.1310
 2067TIP3   OH227615   1.130   4.425  13.129  0.2384 -0.6032  0.1873
 2067TIP3    H127616   1.163   4.469  13.207 -0.8754 -2.9257  2.0261
 2067TIP3    H227617   1.041   4.459  13.118 -0.0682 -1.2279  0.7035
 2068TIP3   OH227618   5.584   1.489  15.601  0.1222  0.0080 -0.8009
 2068TIP3    H127619   5.673   1.519  15.581 -0.4301 -0.1332 -3.6810
 2068TIP3    H227620   5.597   1.410  15.654  1.6795  0.4514 -0.4770
 2069TIP3   OH227621   1.709   3.332   5.660  0.1653 -0.1420  0.2012
 2069TIP3    H127622   1.634   3.374   5.619 -1.3094 -0.7707  2.1722
 2069TIP3    H227623   1.767   3.405   5.686 -0.3691  0.4171 -0.1774
 2070TIP3   OH227624   4.181   0.876  16.300  0.7494  0.1373 -0.2777
 2070TIP3    H127625   4.110   0.898  16.360 -0.3958 -0.3623 -1.4076
 2070TIP3    H227626   4.221   0.960  16.278  2.1913  0.1926  2.3602
 2071TIP3   OH227627   2.366   6.203   2.196  0.1954 -0.2924 -0.0425
 2071TIP3    H127628   2.275   6.233   2.191  0.3056  0.1099  0.3816
 2071TIP3    H227629   2.365   6.137   2.265  0.0773 -0.8361 -0.5571
 2072TIP3   OH227630   4.228   0.765  13.014  0.4223  0.0414 -0.2224
 2072TIP3    H127631   4.298   0.718  12.969  0.7029 -1.2223  1.4941
 2072TIP3    H227632   4.274   0.823  13.075 -0.0113 -1.1916  1.2988
 2073TIP3   OH227633   1.110   3.515  11.606  0.2044 -0.1689 -0.4394
 2073TIP3    H127634   1.192   3.531  11.561  0.3104 -1.7404 -0.8448
 2073TIP3    H227635   1.133   3.458  11.680 -0.3605  0.2156  0.0385
 2074TIP3   OH227636   3.043   2.021   4.646  0.4439 -0.0342 -0.1151
 2074TIP3    H127637   2.974   2.060   4.591  0.6166  0.7546  0.2241
 2074TIP3    H227638   3.063   2.088   4.711  0.6378 -0.7552  0.5751
 2075TIP3   OH227639   3.913   2.142   4.344  0.3239  0.2218  0.0102
 2075TIP3    H127640   3.944   2.109   4.260  1.8641  2.3586 -0.3201
 2075TIP3    H227641   3.842   2.203   4.321  0.8679  0.9441  0.2193
 2076TIP3   OH227642   2.607   0.740   3.882  0.8016 -0.3795  0.1853
 2076TIP3    H127643   2.697   0.709   3.879  1.1035  0.2157  2.4518
 2076TIP3    H227644   2.613   0.828   3.920 -0.6916 -0.2177  0.0833
 2077TIP3   OH227645   4.946   4.443   4.385  0.0004  0.2080  0.7525
 2077TIP3    H127646   4.878   4.503   4.353  0.0508 -0.6096 -0.9283
 2077TIP3    H227647   5.021   4.461   4.329  0.8977  0.4412  1.9979
 2078TIP3   OH227648   5.250   4.989   0.334  0.1543  0.7189 -1.1967
 2078TIP3    H127649   5.225   4.907   0.377 -1.3274  1.8687  0.1824
 2078TIP3    H227650   5.294   4.961   0.253 -0.3186 -1.4287 -0.7438
 2079TIP3   OH227651   2.230   2.766  12.623  0.1315 -0.3251  0.2073
 2079TIP3    H127652   2.265   2.677  12.631  1.2238  0.0763 -0.0900
 2079TIP3    H227653   2.183   2.780  12.704 -1.3145 -1.7256 -0.3541
 2080TIP3   OH227654   4.973   4.655  13.681 -0.2214 -0.4039  0.0202
 2080TIP3    H127655   5.017   4.733  13.645  0.3459 -0.6138  0.2492
 2080TIP3    H227656   4.880   4.676  13.678 -0.2786 -0.8827 -2.7103
 2081TIP3   OH227657   6.492   0.209  16.434 -0.0787  0.0774 -0.0955
 2081TIP3    H127658   6.408   0.187  16.395 -0.0215  1.5415 -1.0649
 2081TIP3    H227659   6.523   0.286  16.386  1.1737  0.3938  1.1488
 2082TIP3   OH227660   0.536   5.590  15.168 -0.2114  0.3562  0.0409
 2082TIP3    H127661   0.579   5.672  15.192 -0.6067  0.5158  0.2078
 2082TIP3    H227662   0.583   5.523  15.218 -1.5699  0.7729  1.9487
 2083TIP3   OH227663   5.445   6.451  12.102 -0.1165 -0.0612  0.5876
 2083TIP3    H127664   5.540   6.462  12.095 -0.1742 -0.0387 -0.2049
 2083TIP3    H227665   5.434   6.360  12.130  0.1597  0.1429  1.3694
 2084TIP3   OH227666   2.829   0.349   0.594 -0.4080  0.5245 -0.3221
 2084TIP3    H127667   2.811   0.361   0.688 -0.0693  0.6717 -0.2764
 2084TIP3    H227668   2.771   0.277   0.568 -0.6994  0.6634 -0.0606
 2085TIP3   OH227669   5.318   3.959   1.017 -0.0829 -0.7358  0.5564
 2085TIP3    H127670   5.229   3.985   0.996 -0.0944 -1.0895  0.1536
 2085TIP3    H227671   5.316   3.941   1.111 -0.9294 -2.6338  0.2129
 2086TIP3   OH227672   3.792   1.518  12.302  0.1533  0.5152 -0.4749
 2086TIP3    H127673   3.768   1.611  12.300 -1.9869 -0.0261 -1.9904
 2086TIP3    H227674   3.738   1.481  12.372  0.2500  0.2162 -0.5595
 2087TIP3   OH227675   6.381   2.158   4.022 -0.0620  0.2132  0.1503
 2087TIP3    H127676   6.463   2.123   4.058  0.9248  2.3803  0.1317
 2087TIP3    H227677   6.380   2.249   4.052 -2.2965  0.3053 -0.1653
 2088TIP3   OH227678   0.595   0.758   0.611 -0.2070 -0.3284 -0.4654
 2088TIP3    H127679   0.572   0.741   0.520  0.0996 -1.9025 -0.2650
 2088TIP3    H227680   0.512   0.775   0.654 -0.2102  2.1750 -1.3591
 2089TIP3   OH227681   2.131   4.334  16.470 -0.0018  0.1259 -1.2363
 2089TIP3    H127682   2.183   4.324  16.550 -2.7739  0.4981  0.7289
 2089TIP3    H227683   2.181   4.289  16.402  2.5385 -0.0248  0.6611
 2090TIP3   OH227684   6.353   3.353  15.535 -0.6650 -0.0610  0.3069
 2090TIP3    H127685   6.287   3.403  15.583  1.3127  2.0343  0.9726
 2090TIP3    H227686   6.338   3.262  15.559 -2.0296  0.5992  2.0309
 2091TIP3   OH227687   0.274   4.636  13.841 -0.1162 -0.5602  0.6578
 2091TIP3    H127688   0.333   4.710  13.830 -0.5338 -0.3161 -0.0330
 2091TIP3    H227689   0.215   4.661  13.912  0.2275 -0.5532  0.9387
 2092TIP3   OH227690   0.210   1.819   5.035 -0.1605  0.2521  0.1456
 2092TIP3    H127691   0.117   1.821   5.060 -0.4081 -0.6262 -0.6715
 2092TIP3    H227692   0.245   1.742   5.080  0.2854  0.8172  0.7869
 2093TIP3   OH227693   5.755   5.680  13.643 -0.0280  0.1920  0.0476
 2093TIP3    H127694   5.777   5.616  13.576  0.1983  0.1636  0.1497
 2093TIP3    H227695   5.663   5.701  13.627 -0.2308 -0.4934  0.2978
 2094TIP3   OH227696   4.929   1.857   4.005  0.1461  0.3065  0.0571
 2094TIP3    H127697   4.952   1.857   4.098  0.1200  0.6965  0.0634
 2094TIP3    H227698   4.853   1.799   3.999  1.6918 -1.7543 -0.1111
 2095TIP3   OH227699   5.441   4.230  15.906 -0.5497  0.3888  0.5926
 2095TIP3    H127700   5.445   4.325  15.892 -0.2942  0.5976  2.0140
 2095TIP3    H227701   5.528   4.199  15.879 -1.4598  0.2126 -2.2281
 2096TIP3   OH227702   5.558   6.206  17.011 -0.4417 -0.0172  0.5237
 2096TIP3    H127703   5.468   6.180  17.030 -0.6542  0.8749  0.7985
 2096TIP3    H227704   5.555   6.302  17.008  0.4828  0.0195  0.4642
 2097TIP3   OH227705   1.606   2.746  12.218 -0.6869 -0.2645  0.5044
 2097TIP3    H127706   1.605   2.789  12.132 -0.5681  1.5191  1.3753
 2097TIP3    H227707   1.686   2.695  12.218  0.6119  1.7160  0.4817
 2098TIP3   OH227708   1.109   2.113   1.888  0.7333  0.4072 -0.1206
 2098TIP3    H127709   1.030   2.146   1.846  0.3179  0.6851  0.8604
 2098TIP3    H227710   1.181   2.159   1.844  0.1881  2.3086  0.9326
 2099TIP3   OH227711   2.072   6.166  14.100 -0.7494  0.8297 -0.0970
 2099TIP3    H127712   2.002   6.103  14.086  0.3092 -0.7174  1.4169
 2099TIP3    H227713   2.028   6.243  14.137 -1.6488 -0.1043  0.7892
 2100TIP3   OH227714   5.739   3.359   2.084 -0.2511 -0.3846 -0.3848
 2100TIP3    H127715   5.664   3.408   2.119 -0.3532 -0.8240  0.0071
 2100TIP3    H227716   5.808   3.425   2.074 -0.8432  0.1175 -1.2043
 2101TIP3   OH227717   6.181   1.696  15.609  0.1539 -0.1581  0.0317
 2101TIP3    H127718   6.258   1.673  15.556  0.6338  0.6447  0.3680
 2101TIP3    H227719   6.218   1.728  15.692 -0.5334  0.5338  0.0758
 2102TIP3   OH227720   2.875   1.425  15.142  0.3088  0.5144  0.5087
 2102TIP3    H127721   2.806   1.461  15.197 -1.9901 -2.3128 -0.3855
 2102TIP3    H227722   2.829   1.390  15.065  2.9069 -0.0026 -0.8854
 2103TIP3   OH227723   3.780   6.006  12.174  0.2018  0.4954  0.0790
 2103TIP3    H127724   3.687   6.019  12.194  0.1535 -0.0826  0.2415
 2103TIP3    H227725   3.813   6.093  12.153 -0.1649  0.8415  0.9202
 2104TIP3   OH227726   0.063   0.504  13.856 -0.0619 -0.0843 -0.7570
 2104TIP3    H127727   0.042   0.590  13.892 -0.3509  0.0338 -1.2043
 2104TIP3    H227728   0.008   0.443  13.905  0.5458 -0.0798 -0.0582
 2105TIP3   OH227729   6.061   1.033  16.521  0.0701 -0.7647  0.4873
 2105TIP3    H127730   6.133   1.065  16.467  0.2835 -0.8389  0.7293
 2105TIP3    H227731   6.056   0.939  16.502  1.5357 -1.2088  2.2157
 2106TIP3   OH227732   5.524   1.064   0.574 -0.8583  0.1199 -0.2261
 2106TIP3    H127733   5.563   0.996   0.519 -0.8447  2.0494 -2.6574
 2106TIP3    H227734   5.435   1.073   0.543 -0.7122  1.5658 -0.2433
 2107TIP3   OH227735   2.303   3.221  12.269 -0.3239 -0.6320  0.4717
 2107TIP3    H127736   2.321   3.241  12.177  1.5830 -2.3924  0.4427
 2107TIP3    H227737   2.211   3.246  12.281 -0.6478 -0.5352 -1.9502
 2108TIP3   OH227738   0.749   5.832   0.837 -0.4164 -0.0933  0.8910
 2108TIP3    H127739   0.688   5.901   0.812 -0.0729 -0.3636 -0.7068
 2108TIP3    H227740   0.696   5.753   0.846 -0.3319 -0.3122 -0.4284
 2109TIP3   OH227741   2.423   2.385  16.054  0.6073 -0.2194 -0.1216
 2109TIP3    H127742   2.447   2.426  16.138  1.2881 -0.2515 -0.2965
 2109TIP3    H227743   2.506   2.351  16.020 -0.1887 -3.4217  0.9045
 2110TIP3   OH227744   6.552   2.179   3.787  0.2446  0.1534  0.6996
 2110TIP3    H127745   6.523   2.117   3.720 -1.3211  1.2823  0.2973
 2110TIP3    H227746   6.516   2.144   3.868  1.3237 -0.6960  0.8196
 2111TIP3   OH227747   6.727   6.327   1.256  0.1004  0.1353  0.3676
 2111TIP3    H127748   6.645   6.323   1.207 -0.4241  1.0177  1.1542
 2111TIP3    H227749   6.703   6.299   1.344  0.8168 -0.4126  0.3871
 2112TIP3   OH227750   0.326   0.481   5.397 -0.0638  0.0315 -0.4999
 2112TIP3    H127751   0.387   0.486   5.470 -0.7837  0.5326  0.0689
 2112TIP3    H227752   0.265   0.554   5.411 -1.7088 -1.3639 -0.2333
 2113TIP3   OH227753   1.806   5.802   1.542  0.3464 -0.3086 -0.4351
 2113TIP3    H127754   1.828   5.719   1.584 -2.6477 -0.1177  1.6378
 2113TIP3    H227755   1.785   5.861   1.614  1.3346  1.9482 -1.9286
 2114TIP3   OH227756   1.246   1.899   1.975  0.2169 -0.1181  0.0902
 2114TIP3    H127757   1.188   1.970   1.949  1.1561  0.5739 -0.1122
 2114TIP3    H227758   1.202   1.820   1.944 -1.6170  0.2183  1.6838
 2115TIP3   OH227759   0.938   1.019   6.022  0.0600 -0.3159  0.2257
 2115TIP3    H127760   0.951   0.967   6.101  1.4283  0.0383  0.2453
 2115TIP3    H227761   0.846   1.045   6.025  0.4214  0.7635  2.3745
 2116TIP3   OH227762   2.629   1.073  16.643  0.4088 -0.1701  0.2351
 2116TIP3    H127763   2.702   1.055  16.584  0.4622 -0.3117  0.3390
 2116TIP3    H227764   2.560   1.012  16.616 -0.7534  1.9432 -1.7448
 2117TIP3   OH227765   5.383   2.792   1.989  0.8779  0.1351  0.1731
 2117TIP3    H127766   5.440   2.741   2.047 -0.1504 -0.4395  0.6980
 2117TIP3    H227767   5.356   2.729   1.922 -0.2186  0.0340  0.6962
 2118TIP3   OH227768   4.201   6.086   1.092 -0.7229  0.6113  0.0185
 2118TIP3    H127769   4.226   6.143   1.164 -0.6717 -0.6286  0.9949
 2118TIP3    H227770   4.281   6.080   1.038 -0.1230 -0.1138  0.9723
 2119TIP3   OH227771   3.300   5.744  12.346  0.1369  0.8427 -0.2921
 2119TIP3    H127772   3.256   5.725  12.263 -0.8347 -0.0659  0.4052
 2119TIP3    H227773   3.369   5.678  12.353 -0.3961  0.3180  0.0620
 2120TIP3   OH227774   3.484   5.656  13.542 -0.4447 -0.1598  0.0067
 2120TIP3    H127775   3.520   5.719  13.479 -0.9131 -0.9923 -1.1158
 2120TIP3    H227776   3.392   5.683  13.552  0.0936  1.1027  1.7830
 2121TIP3   OH227777   3.620   4.662   1.986  0.1213  0.1655  0.1011
 2121TIP3    H127778   3.632   4.722   2.060 -4.0430  1.8752 -0.4682
 2121TIP3    H227779   3.655   4.709   1.911  0.5456  0.2039  0.3241
 2122TIP3   OH227780   2.367   5.071  16.433  0.2025  0.2088  0.0597
 2122TIP3    H127781   2.274   5.048  16.436 -0.1012  1.2972 -0.7171
 2122TIP3    H227782   2.412   4.995  16.469 -1.1460  0.5654  2.5816
 2123TIP3   OH227783   3.103   2.798  15.222 -0.0597 -0.0319 -0.7985
 2123TIP3    H127784   3.169   2.758  15.165  0.4426 -0.7253  0.2418
 2123TIP3    H227785   3.084   2.882  15.181  0.5647 -0.3520 -1.7788
 2124TIP3   OH227786   0.258   1.723   0.036  0.5797 -0.0215  0.5240
 2124TIP3    H127787   0.218   1.775  -0.032  0.6315 -1.7890 -0.8927
 2124TIP3    H227788   0.352   1.731   0.021  0.5664 -1.3042 -0.3196
 2125TIP3   OH227789   5.711   1.905  15.274  0.4535  0.1841  0.0619
 2125TIP3    H127790   5.776   1.970  15.247  0.5006 -0.0092 -0.2940
 2125TIP3    H227791   5.627   1.950  15.264  0.5888  0.7845  1.5280
 2126TIP3   OH227792   3.709   3.675  14.283  0.3591  0.2318  0.1413
 2126TIP3    H127793   3.712   3.698  14.190 -0.3006 -0.2152  0.0061
 2126TIP3    H227794   3.761   3.743  14.326  1.0844  0.1589 -0.6083
 2127TIP3   OH227795   1.286   4.667   0.645  0.1513  0.5316  0.5914
 2127TIP3    H127796   1.362   4.713   0.679 -0.2051  0.1173  2.0274
 2127TIP3    H227797   1.212   4.724   0.667 -0.0378  0.5261 -0.0181
 2128TIP3   OH227798   6.031   1.017  14.988  0.0810 -0.5764 -0.1422
 2128TIP3    H127799   6.031   0.971  15.072  0.9255 -0.2047  0.0660
 2128TIP3    H227800   6.010   0.949  14.924  1.0913 -1.2173  0.1904
 2129TIP3   OH227801   4.591   0.618  11.810  0.1910 -0.3026  0.0630
 2129TIP3    H127802   4.552   0.689  11.861  1.7560  0.8945 -0.3616
 2129TIP3    H227803   4.529   0.603  11.738 -1.2184 -0.8845  1.3691
 2130TIP3   OH227804   4.272   0.576   4.459 -0.1104  0.1519  0.4782
 2130TIP3    H127805   4.330   0.626   4.402 -1.5514  0.5342 -0.6925
 2130TIP3    H227806   4.320   0.495   4.477  0.5711  0.2345 -0.8832
 2131TIP3   OH227807   0.910   4.494  13.355  0.0259  0.8642  0.4802
 2131TIP3    H127808   0.900   4.441  13.276  0.3644 -1.5612  2.0175
 2131TIP3    H227809   1.004   4.496  13.372 -0.1298  0.4466  1.4310
 2132TIP3   OH227810   5.039   1.909   1.734  0.4890 -0.2699 -0.5330
 2132TIP3    H127811   5.118   1.912   1.787  1.0350  0.6821 -1.3741
 2132TIP3    H227812   5.024   1.816   1.719  0.5964 -0.5197  0.8829
 2133TIP3   OH227813   3.589   1.641   5.678 -0.5158  0.2698  0.4192
 2133TIP3    H127814   3.610   1.598   5.595  1.7034  0.1291  1.0339
 2133TIP3    H227815   3.571   1.569   5.738  0.1891  0.2963  0.6626
 2134TIP3   OH227816   3.600   0.137  12.076  0.1864 -0.3207  0.2526
 2134TIP3    H127817   3.644   0.220  12.095  1.0405 -0.7415  0.1668
 2134TIP3    H227818   3.635   0.076  12.141 -0.0558 -0.7359 -0.0049
 2135TIP3   OH227819   1.116   1.474  16.449 -0.6311  0.1894  0.0232
 2135TIP3    H127820   1.156   1.428  16.375 -1.6011 -0.0810 -0.3495
 2135TIP3    H227821   1.163   1.442  16.525  0.1009  0.1522 -0.4370
 2136TIP3   OH227822   2.691   5.396  11.484 -0.5818  0.1116 -0.0190
 2136TIP3    H127823   2.714   5.434  11.569  0.9358 -0.0007 -0.3588
 2136TIP3    H227824   2.628   5.456  11.446 -1.1456  0.2499  1.1186
 2137TIP3   OH227825   1.585   4.662  12.703 -0.4676  0.5426 -0.3551
 2137TIP3    H127826   1.635   4.736  12.738  0.0007  0.4434 -0.8097
 2137TIP3    H227827   1.505   4.661  12.755 -0.3308  1.1677 -0.1236
 2138TIP3   OH227828   5.142   3.608   2.288 -0.3259 -0.2879 -0.3798
 2138TIP3    H127829   5.211   3.666   2.256  0.0280 -1.2068 -1.2888
 2138TIP3    H227830   5.185   3.554   2.354 -0.1824 -0.8205 -0.9048
 2139TIP3   OH227831   5.918   5.100  13.159 -0.2791 -0.5297 -0.0328
 2139TIP3    H127832   6.012   5.109  13.148 -0.3950  1.0795  0.2099
 2139TIP3    H227833   5.880   5.149  13.086 -0.9322  0.0804  0.7014
 2140TIP3   OH227834   1.680   0.432  12.377 -0.0307  0.1285  0.2358
 2140TIP3    H127835   1.741   0.383  12.323  2.2433 -0.7767  3.4728
 2140TIP3    H227836   1.652   0.505  12.322  1.3944 -1.2964 -2.4506
 2141TIP3   OH227837   6.466   3.473   0.433 -0.7348  0.6651 -0.1765
 2141TIP3    H127838   6.534   3.412   0.408 -1.3805  0.0393 -0.4145
 2141TIP3    H227839   6.462   3.536   0.361  1.1510  2.0378  0.8891
 2142TIP3   OH227840   3.592   1.628   3.924  0.0523  0.2648  0.5884
 2142TIP3    H127841   3.599   1.673   4.008  0.2797 -0.8196  1.1647
 2142TIP3    H227842   3.660   1.668   3.870 -0.9429  1.8580  0.4943
 2143TIP3   OH227843   2.701   2.045  13.471  0.0062 -0.3676 -0.1570
 2143TIP3    H127844   2.743   1.961  13.490 -1.2667 -1.4779 -2.0685
 2143TIP3    H227845   2.752   2.081  13.398 -1.4121 -1.0108 -1.4789
 2144TIP3   OH227846   4.365   1.495  14.757 -0.4377 -0.0339  0.1124
 2144TIP3    H127847   4.381   1.459  14.844  1.2205 -0.8232 -0.4982
 2144TIP3    H227848   4.273   1.523  14.759 -0.9903 -1.8536  1.4685
 2145TIP3   OH227849   2.991   6.749  11.423 -0.6071  0.4225 -0.1136
 2145TIP3    H127850   3.049   6.712  11.356 -0.7785  1.2434 -0.7304
 2145TIP3    H227851   3.039   6.740  11.505 -0.5942 -1.0316 -0.2686
 2146TIP3   OH227852   4.037   6.190  15.777 -0.2094 -0.0243 -0.6149
 2146TIP3    H127853   4.113   6.176  15.721 -0.4527 -1.0317 -0.7095
 2146TIP3    H227854   3.972   6.230  15.720  0.3529  1.1399 -0.4540
 2147TIP3   OH227855   3.128   5.578   3.545  0.3395  0.2456  0.2138
 2147TIP3    H127856   3.077   5.585   3.465  0.9350  0.9743 -0.1070
 2147TIP3    H227857   3.068   5.539   3.609 -1.1900  2.7878  0.3795
 2148TIP3   OH227858   3.461   6.180   4.817  0.1608 -0.1924  0.9496
 2148TIP3    H127859   3.435   6.233   4.742  0.6288 -0.4303  0.6191
 2148TIP3    H227860   3.500   6.242   4.879 -1.4535  0.2209  1.5841
 2149TIP3   OH227861   2.984   6.576  15.795 -0.2460  0.1466 -0.1895
 2149TIP3    H127862   2.991   6.535  15.708 -1.0771 -0.2417 -0.0746
 2149TIP3    H227863   3.074   6.601  15.816  0.1290 -0.7450 -0.6812
 2150TIP3   OH227864   4.580   0.858   4.580 -0.9086 -0.1479 -0.4917
 2150TIP3    H127865   4.551   0.806   4.505 -0.6008  0.3324 -0.9409
 2150TIP3    H227866   4.534   0.941   4.571 -2.2255 -0.7057  0.8061
 2151TIP3   OH227867   0.124   1.681   3.160  0.0731 -0.1425  0.2628
 2151TIP3    H127868   0.129   1.586   3.160  0.5389 -0.1188 -0.7946
 2151TIP3    H227869   0.033   1.700   3.182  0.0409 -0.8217  0.7356
 2152TIP3   OH227870   0.318   5.699   2.273  0.8547 -0.1398  0.0713
 2152TIP3    H127871   0.348   5.717   2.362 -1.4467 -1.3027  1.1341
 2152TIP3    H227872   0.269   5.617   2.281  1.9369 -1.0882 -2.5765
 2153TIP3   OH227873   1.393   6.780   4.025  0.3765 -0.0896 -0.5704
 2153TIP3    H127874   1.347   6.738   4.097  1.5421  0.6671  0.6428
 2153TIP3    H227875   1.420   6.708   3.968 -0.3527 -0.7116 -0.1297
 2154TIP3   OH227876   4.022   2.301   3.415  0.2091  0.0056  0.0068
 2154TIP3    H127877   3.991   2.256   3.495  0.1762  1.1016  0.6155
 2154TIP3    H227878   4.041   2.390   3.444  0.3980  0.3497 -1.1811
 2155TIP3   OH227879   6.691   0.177  14.082  0.1795 -0.3152  0.2884
 2155TIP3    H127880   6.763   0.181  14.145 -0.2863  0.5939  0.7702
 2155TIP3    H227881   6.636   0.252  14.104  0.1150  0.1267 -1.3283
 2156TIP3   OH227882   0.785   0.183  11.683 -0.3255  0.2013  0.1996
 2156TIP3    H127883   0.867   0.231  11.698 -1.1352  1.2801  1.2894
 2156TIP3    H227884   0.803   0.095  11.716  0.9552 -0.0861 -1.1890
 2157TIP3   OH227885   4.582   6.771  15.086  0.1476  1.1416 -0.7456
 2157TIP3    H127886   4.527   6.849  15.079 -2.1228 -0.3907 -0.5694
 2157TIP3    H227887   4.626   6.765  15.002 -2.4909  0.6323 -2.1651
 2158TIP3   OH227888   0.554   1.881  12.994 -0.4105 -0.1322  0.1401
 2158TIP3    H127889   0.602   1.895  12.912  0.5317 -1.2450  0.4874
 2158TIP3    H227890   0.526   1.968  13.020  0.3099  0.3824 -0.7542
 2159TIP3   OH227891   0.098   4.651  15.746 -0.1989  0.0594 -0.2897
 2159TIP3    H127892   0.059   4.569  15.775 -2.0030  0.3251 -1.8855
 2159TIP3    H227893   0.043   4.719  15.785  0.6104  0.5087  0.0943
 2160TIP3   OH227894   3.401   4.255  15.354  0.9235 -0.0192  0.5580
 2160TIP3    H127895   3.373   4.198  15.425  0.5360  0.3276  0.6884
 2160TIP3    H227896   3.473   4.209  15.312 -1.3463 -1.9994 -1.2604
 2161TIP3   OH227897   0.460   2.947   2.358  0.1923  0.6852  0.0647
 2161TIP3    H127898   0.427   2.912   2.275  2.6327  0.1155 -0.7094
 2161TIP3    H227899   0.442   2.878   2.422  1.1469 -0.2115 -0.6236
 2162TIP3   OH227900   4.641   0.718  14.488  0.1122  0.3799  0.3032
 2162TIP3    H127901   4.594   0.644  14.450  1.0524  0.4232 -1.0120
 2162TIP3    H227902   4.580   0.757  14.550 -0.7237 -0.9405  0.3260
 2163TIP3   OH227903   0.557   1.425  11.056 -0.6149  0.0448  0.2913
 2163TIP3    H127904   0.570   1.478  10.977  1.5124 -1.1444 -0.1644
 2163TIP3    H227905   0.543   1.490  11.125 -3.5857  1.0986 -1.1684
 2164TIP3   OH227906   6.539   1.532   4.368 -0.5756  0.3802  0.3632
 2164TIP3    H127907   6.475   1.499   4.305 -0.8511 -1.3103  1.4764
 2164TIP3    H227908   6.489   1.594   4.422 -0.8645  0.3027  0.1873
 2165TIP3   OH227909   4.203   3.054   6.670  0.7420  0.6521 -0.0438
 2165TIP3    H127910   4.278   3.114   6.667  1.6884 -0.5662 -1.4758
 2165TIP3    H227911   4.132   3.107   6.704  1.8698  2.2763 -0.1440
 2166TIP3   OH227912   5.485   0.307  12.388 -0.4760  0.1694  0.7239
 2166TIP3    H127913   5.541   0.299  12.466 -0.9725 -1.9790  0.8890
 2166TIP3    H227914   5.526   0.250  12.323 -0.0768  1.9331 -0.6183
 2167TIP3   OH227915   2.571   6.044  16.945  0.0295 -0.0106 -0.8349
 2167TIP3    H127916   2.545   5.953  16.935  0.7681  0.0094 -3.3100
 2167TIP3    H227917   2.631   6.060  16.872  0.1273  2.3824 -0.2814
 2168TIP3   OH227918   2.306   0.634  15.556  0.7092  0.6494  0.1474
 2168TIP3    H127919   2.235   0.619  15.493  1.0763  0.8723 -0.3295
 2168TIP3    H227920   2.303   0.558  15.615 -0.2119  0.8913  0.4039
 2169TIP3   OH227921   3.447   2.737   2.783  0.3966 -0.1943 -0.3429
 2169TIP3    H127922   3.353   2.746   2.765  0.1316 -0.6931  0.7462
 2169TIP3    H227923   3.464   2.801   2.851  0.2217 -2.1166  1.5551
 2170TIP3   OH227924   3.573   2.015  11.517 -0.4211  0.1844 -0.1211
 2170TIP3    H127925   3.586   1.943  11.456 -1.3592 -1.5160  1.6225
 2170TIP3    H227926   3.659   2.028  11.557 -0.5854 -0.9755  0.6260
 2171TIP3   OH227927   2.307   1.505   0.798  0.2594  0.1731 -0.3032
 2171TIP3    H127928   2.307   1.484   0.704  1.8191 -1.3698  0.0147
 2171TIP3    H227929   2.236   1.451   0.834 -0.6295  1.0945 -0.6513
 2172TIP3   OH227930   0.195   2.867  13.520 -0.3224  0.0784  0.2998
 2172TIP3    H127931   0.114   2.819  13.501  0.1337 -0.2378 -0.9530
 2172TIP3    H227932   0.256   2.835  13.453  0.2987  1.6184  0.1287
 2173TIP3   OH227933   2.185   1.847   1.758 -0.2533 -0.1171 -0.5438
 2173TIP3    H127934   2.233   1.791   1.698  1.1225  2.1347 -1.6262
 2173TIP3    H227935   2.099   1.857   1.717 -0.2077 -0.7234 -0.7942
 2174TIP3   OH227936   3.153   6.144  14.251  0.5549  0.1118 -0.3178
 2174TIP3    H127937   3.234   6.145  14.302  0.3834  1.3301 -0.0511
 2174TIP3    H227938   3.159   6.221  14.195 -1.8660  2.0670  2.0120
 2175TIP3   OH227939   4.180   4.361   0.434  0.4010  0.0024 -0.4044
 2175TIP3    H127940   4.242   4.371   0.362 -0.6094 -1.4164 -1.4997
 2175TIP3    H227941   4.193   4.271   0.464  0.4844  0.4375  0.8729
 2176TIP3   OH227942   2.828   6.766  14.814 -0.2053  0.1585  0.3552
 2176TIP3    H127943   2.880   6.840  14.780  1.8261 -2.4411 -2.4320
 2176TIP3    H227944   2.885   6.724  14.877 -0.2223 -0.7044 -0.1968
 2177TIP3   OH227945   4.325   5.300  13.756 -0.5415 -0.2473  0.4644
 2177TIP3    H127946   4.274   5.289  13.836  0.5786  0.4238  1.2921
 2177TIP3    H227947   4.412   5.267  13.779  0.0007  0.6805 -0.2311
 2178TIP3   OH227948   6.310   1.699   1.290 -0.5179  0.2745  0.8339
 2178TIP3    H127949   6.330   1.755   1.365  0.5926 -1.4106  1.8139
 2178TIP3    H227950   6.340   1.749   1.214  0.8202  0.8305  1.7154
 2179TIP3   OH227951   6.474   2.117   0.946 -0.1148  0.4381  0.3482
 2179TIP3    H127952   6.458   2.114   1.040  1.2673  1.4807  0.6486
 2179TIP3    H227953   6.527   2.196   0.934 -1.1551  0.8821 -1.4471
 2180TIP3   OH227954   4.387   2.349  14.691  0.4700  0.1805 -0.1168
 2180TIP3    H127955   4.473   2.374  14.725  0.1550  0.7287  0.2743
 2180TIP3    H227956   4.404   2.325  14.600  0.7867  1.7858 -0.4890
 2181TIP3   OH227957   2.078   0.355  16.763  0.4039 -0.1187 -0.5131
 2181TIP3    H127958   2.079   0.395  16.676  2.1824  0.4220 -0.2797
 2181TIP3    H227959   2.033   0.272  16.751  0.8583 -0.1644 -2.0017
 2182TIP3   OH227960   3.473   3.137  10.909  0.1388 -0.4192  0.9708
 2182TIP3    H127961   3.472   3.122  10.814 -3.2414 -0.6362  0.9649
 2182TIP3    H227962   3.457   3.050  10.947  1.2831 -0.2979  1.7411
 2183TIP3   OH227963   0.629   5.331   0.141 -0.2198  0.0601 -0.7330
 2183TIP3    H127964   0.710   5.284   0.164 -0.8040  0.5441  2.4803
 2183TIP3    H227965   0.636   5.415   0.185 -3.0503 -0.3776  0.6551
 2184TIP3   OH227966   2.541   1.867  10.792  0.3217  0.2002 -0.3409
 2184TIP3    H127967   2.631   1.864  10.759  0.6593 -0.3659  0.6198
 2184TIP3    H227968   2.491   1.909  10.722  1.4117  0.9050 -0.7075
 2185TIP3   OH227969   4.529   1.999  11.103 -0.3341 -0.6360 -0.0855
 2185TIP3    H127970   4.544   1.999  11.008  1.1708 -1.1773  0.1341
 2185TIP3    H227971   4.460   1.934  11.116 -0.2545 -0.8630 -0.7629
 2186TIP3   OH227972   1.365   1.518  15.759 -0.6396  0.1645 -0.3241
 2186TIP3    H127973   1.350   1.611  15.747 -1.5198 -0.1825 -1.9722
 2186TIP3    H227974   1.339   1.478  15.677  1.6877 -1.3339 -0.3847
 2187TIP3   OH227975   4.034   1.853   1.151  0.2227 -0.5810  0.6057
 2187TIP3    H127976   3.977   1.877   1.224  2.8688  1.5131  2.0903
 2187TIP3    H227977   4.009   1.912   1.080 -1.1830 -1.4344  0.3828
 2188TIP3   OH227978   0.662   4.144   5.297 -0.5135 -0.6872 -0.3983
 2188TIP3    H127979   0.581   4.166   5.343  0.4275  1.0192  0.5006
 2188TIP3    H227980   0.634   4.121   5.208 -1.9770 -0.1246 -0.0865
 2189TIP3   OH227981   0.313   6.378   1.909 -0.1214  0.3692 -0.1387
 2189TIP3    H127982   0.223   6.345   1.910 -0.1604  0.4927  1.0480
 2189TIP3    H227983   0.349   6.352   1.994  1.2895 -0.5738 -1.0034
 2190TIP3   OH227984   4.253   1.727   2.395  0.8687 -0.1951 -0.4287
 2190TIP3    H127985   4.270   1.744   2.488  0.4154  0.7584 -0.5155
 2190TIP3    H227986   4.267   1.633   2.385 -2.8169 -1.0275  1.4249
 2191TIP3   OH227987   1.251   4.278   3.748 -0.7287 -0.2421  0.0102
 2191TIP3    H127988   1.332   4.242   3.712  0.2816  1.3681  0.6589
 2191TIP3    H227989   1.185   4.259   3.681  0.3570 -0.7824 -0.9158
 2192TIP3   OH227990   3.969   6.643   0.530 -0.5649  0.1135  0.1052
 2192TIP3    H127991   3.956   6.551   0.504  1.5210  0.0593 -0.8649
 2192TIP3    H227992   3.934   6.693   0.457 -1.5829  0.0820  0.5743
 2193TIP3   OH227993   5.235   5.589  16.049 -0.8286 -0.0416  0.1095
 2193TIP3    H127994   5.166   5.587  16.115 -1.3189 -1.1426 -0.4192
 2193TIP3    H227995   5.294   5.658  16.077 -2.0113  0.7278  0.7124
 2194TIP3   OH227996   0.574   6.686  15.160  0.6159  0.2159 -0.4360
 2194TIP3    H127997   0.585   6.638  15.077  3.1762  0.6637 -0.4007
 2194TIP3    H227998   0.656   6.734  15.171 -0.9681  2.7753  0.7284
 2195TIP3   OH227999   4.275   0.006   0.975  0.2473 -0.2530 -0.2956
 2195TIP3    H128000   4.195   0.055   0.994  0.7404  0.7665 -0.8349
 2195TIP3    H228001   4.246  -0.065   0.917 -0.1927  0.4063 -0.8922
 2196TIP3   OH228002   5.961   6.520  10.750 -0.0647 -0.2436  0.1600
 2196TIP3    H128003   5.893   6.587  10.749  0.9969  0.8897  1.6467
 2196TIP3    H228004   5.947   6.473  10.833  0.1920 -0.8067 -0.1111
 2197TIP3   OH228005   2.135   1.951   0.712  0.3549  1.1775 -0.4554
 2197TIP3    H128006   2.057   1.982   0.666  1.6991  1.1492 -2.8081
 2197TIP3    H228007   2.209   1.992   0.666  1.8475 -0.8512  0.0488
 2198TIP3   OH228008   3.073   3.182   0.839 -0.0363 -0.0955  0.0580
 2198TIP3    H128009   2.998   3.149   0.888 -0.5467 -0.7971 -1.1815
 2198TIP3    H228010   3.143   3.120   0.858 -0.8333 -1.6037 -1.8066
 2199TIP3   OH228011   0.221   5.766  12.446  0.0263 -0.3142 -0.0286
 2199TIP3    H128012   0.129   5.749  12.425  0.7940 -3.4383 -1.1641
 2199TIP3    H228013   0.267   5.687  12.417  2.7896  0.2551  2.5374
 2200TIP3   OH228014   3.802   5.742  12.728  0.1082 -0.1454  0.4484
 2200TIP3    H128015   3.889   5.784  12.721  1.3154 -2.9163 -2.5754
 2200TIP3    H228016   3.747   5.793  12.669  0.8363 -0.9995 -0.9962
 2201TIP3   OH228017   0.688   4.858   4.969  0.0244 -0.2681 -0.1143
 2201TIP3    H128018   0.634   4.799   4.917 -0.2045  1.6018 -2.0853
 2201TIP3    H228019   0.774   4.855   4.926  0.3700 -0.1785  0.5678
 2202TIP3   OH228020   1.368   5.992  16.865 -0.1050  0.5565 -0.0071
 2202TIP3    H128021   1.296   6.054  16.870 -0.7010 -0.2332  1.9630
 2202TIP3    H228022   1.441   6.036  16.910  0.1601  0.7097 -0.5762
 2203TIP3   OH228023   4.263   0.519   2.387 -0.0743  0.6514 -0.0109
 2203TIP3    H128024   4.235   0.428   2.382 -0.2160  0.5659  1.7267
 2203TIP3    H228025   4.225   0.551   2.470  1.7157  1.6493  0.4543
 2204TIP3   OH228026   1.865   0.315  15.951 -0.2679 -0.1606  0.2301
 2204TIP3    H128027   1.810   0.236  15.949 -0.1661 -0.2214 -0.5771
 2204TIP3    H228028   1.817   0.376  16.006 -1.0147 -0.3175 -0.2300
 2205TIP3   OH228029   5.283   2.968   5.275  0.4034 -0.9318  0.1163
 2205TIP3    H128030   5.286   3.003   5.364  0.7075 -1.4450  0.3125
 2205TIP3    H228031   5.193   2.981   5.247  0.4561 -0.2118  0.2711
 2206TIP3   OH228032   6.080   0.175   2.769  0.2214 -0.3096  0.2895
 2206TIP3    H128033   6.058   0.239   2.837  1.4796  0.4665 -0.0212
 2206TIP3    H228034   6.107   0.097   2.817  0.6744  0.0895  0.6849
 2207TIP3   OH228035   6.108   3.013  14.030  0.6955 -0.1746 -0.1863
 2207TIP3    H128036   6.154   3.039  14.110  1.1804 -0.6743 -0.2945
 2207TIP3    H228037   6.016   3.008  14.055  0.7067  0.7680  0.0537
 2208TIP3   OH228038   0.332   0.659   4.126  0.2692  0.0689 -0.1171
 2208TIP3    H128039   0.262   0.604   4.090 -1.5684  2.4100 -0.2084
 2208TIP3    H228040   0.343   0.628   4.216  0.2301 -1.3477 -0.5868
 2209TIP3   OH228041   3.561   5.815  12.562 -0.2794  1.3041  0.1325
 2209TIP3    H128042   3.638   5.809  12.505 -0.8027  1.0017 -0.5400
 2209TIP3    H228043   3.549   5.726  12.595 -1.1921  1.0534 -0.8767
 2210TIP3   OH228044   3.134   6.574  11.605 -0.5028 -0.2467  0.6332
 2210TIP3    H128045   3.098   6.535  11.685  0.1021 -0.7494  0.6626
 2210TIP3    H228046   3.225   6.593  11.626 -0.5745  0.4364  0.3488
 2211TIP3   OH228047   4.007   0.965   2.058  0.0908 -0.0096 -0.0649
 2211TIP3    H128048   3.948   0.890   2.071  0.3015 -0.5911 -2.3129
 2211TIP3    H228049   3.961   1.039   2.097 -1.4339 -0.7569 -0.4124
 2212TIP3   OH228050   0.215   1.125   5.938  0.2752 -0.5811  0.5383
 2212TIP3    H128051   0.298   1.125   5.986 -0.8782  1.7011  2.6819
 2212TIP3    H228052   0.166   1.052   5.976  1.0142 -1.4934 -0.2383
 2213TIP3   OH228053   3.416   2.736  10.994 -0.1176  0.5822 -0.1292
 2213TIP3    H128054   3.508   2.742  11.018 -0.5451  1.2007  1.4284
 2213TIP3    H228055   3.379   2.820  11.021 -1.0240  0.5546 -1.2536
 2214TIP3   OH228056   4.381   4.659  11.074 -0.1761  0.0348  0.1039
 2214TIP3    H128057   4.291   4.690  11.068 -0.3872 -1.0634 -2.9249
 2214TIP3    H228058   4.433   4.723  11.026  0.0155 -1.7029 -2.0855
 2215TIP3   OH228059   3.585   5.299  17.230 -0.2136 -0.4082  0.3977
 2215TIP3    H128060   3.556   5.248  17.153 -0.2572  0.5879 -0.2508
 2215TIP3    H228061   3.504   5.315  17.279 -0.3594 -0.0412  0.0422
 2216TIP3   OH228062   1.132   0.961   3.294 -0.2929  0.0565 -0.2844
 2216TIP3    H128063   1.040   0.958   3.319 -0.1252  2.2645  0.7591
 2216TIP3    H228064   1.178   0.990   3.373  1.3002 -0.9618 -0.8047
 2217TIP3   OH228065   5.748   1.359   2.052  0.5492 -0.1922 -0.2721
 2217TIP3    H128066   5.673   1.329   2.105 -0.2237 -0.3982 -1.4631
 2217TIP3    H228067   5.799   1.413   2.112 -0.5597 -0.0439  0.5695
 2218TIP3   OH228068   1.021   4.495   3.881 -0.1153  0.6680  0.0994
 2218TIP3    H128069   1.116   4.498   3.890 -0.0350  0.7206 -0.8027
 2218TIP3    H228070   0.995   4.415   3.927  0.5633 -0.4956 -1.5328
 2219TIP3   OH228071   5.984   3.342  17.025  0.0039 -0.5834 -0.2426
 2219TIP3    H128072   6.057   3.325  17.083 -1.1630 -2.4199  0.7121
 2219TIP3    H228073   5.923   3.395  17.077 -0.9274 -2.0169  0.1359
 2220TIP3   OH228074   1.826   2.623  12.800 -0.0099  0.0081 -0.0106
 2220TIP3    H128075   1.768   2.549  12.778 -1.4254  1.0429  0.1995
 2220TIP3    H228076   1.836   2.670  12.717  0.4417 -0.1001 -0.0174
 2221TIP3   OH228077   5.384   5.513  16.776  0.3472 -0.1984  0.4540
 2221TIP3    H128078   5.329   5.455  16.723 -0.4875  0.6648  0.3589
 2221TIP3    H228079   5.350   5.504  16.865  0.0740  0.3130  0.4004
 2222TIP3   OH228080   0.344   6.316   3.046  0.3250  0.0939  0.2946
 2222TIP3    H128081   0.324   6.328   3.139  1.4499 -0.4476  0.6169
 2222TIP3    H228082   0.439   6.311   3.043  0.2076 -4.1000 -0.3499
 2223TIP3   OH228083   1.407   0.519   3.606  0.0133  0.3570 -0.3256
 2223TIP3    H128084   1.502   0.509   3.605 -0.1858 -1.6418 -0.2338
 2223TIP3    H228085   1.385   0.525   3.699 -0.1669 -1.5747 -0.2223
 2224TIP3   OH228086   2.302   1.671  16.224  0.1278  0.0561 -0.0279
 2224TIP3    H128087   2.362   1.741  16.200  1.4035 -1.3908 -1.1903
 2224TIP3    H228088   2.293   1.618  16.145 -3.2240  0.5843 -0.0781
 2225TIP3   OH228089   2.125   5.632   0.716 -0.6117  0.2474 -0.4622
 2225TIP3    H128090   2.206   5.632   0.666 -1.6505 -0.9770 -2.2243
 2225TIP3    H228091   2.148   5.590   0.799  1.4757  3.6389  0.7809
 2226TIP3   OH228092   6.665   4.724  15.230 -0.0625 -0.2687 -0.5604
 2226TIP3    H128093   6.577   4.763  15.229  0.7630  1.6968  0.3673
 2226TIP3    H228094   6.667   4.666  15.153 -2.2753 -0.6283 -0.3908
 2227TIP3   OH228095   2.070   1.073   4.394  0.7263  0.0080 -0.1639
 2227TIP3    H128096   2.102   1.090   4.482  0.1565  1.2689 -0.1943
 2227TIP3    H228097   2.146   1.088   4.338  1.1533 -1.0317  0.1143
 2228TIP3   OH228098   2.020   5.136   2.839  0.6930 -0.5916 -0.2627
 2228TIP3    H128099   1.956   5.189   2.887 -0.4314 -2.3477  0.2036
 2228TIP3    H228100   1.976   5.115   2.756  0.1680 -2.7917  0.5413
 2229TIP3   OH228101   6.285   1.889  13.785 -0.4017 -0.4992  0.0513
 2229TIP3    H128102   6.230   1.894  13.864  0.1434  1.3369  0.3307
 2229TIP3    H228103   6.370   1.859  13.817 -0.2459  0.0306  0.1483
 2230TIP3   OH228104   6.130   3.503  13.664  0.0852 -0.1860  0.2759
 2230TIP3    H128105   6.137   3.570  13.733  0.4733 -0.2305  0.2836
 2230TIP3    H228106   6.042   3.514  13.629  0.3007  0.6457 -0.0431
 2231TIP3   OH228107   1.425   5.521  15.733  0.3666  0.7059 -0.2114
 2231TIP3    H128108   1.474   5.497  15.812  0.3166 -0.5791 -0.5605
 2231TIP3    H228109   1.453   5.611  15.715  1.3406  0.5707  0.5411
 2232TIP3   OH228110   5.737   1.256   4.122  0.2265  0.1015  0.1169
 2232TIP3    H128111   5.702   1.335   4.164 -0.8936 -0.2852 -0.0691
 2232TIP3    H228112   5.814   1.234   4.174  0.7772  1.5322 -0.0575
 2233TIP3   OH228113   3.615   2.439  11.870  0.5715  0.1367 -0.4224
 2233TIP3    H128114   3.680   2.394  11.817  0.4924  0.2738 -0.6351
 2233TIP3    H228115   3.666   2.484  11.937  0.9835  2.9839 -2.5655
 2234TIP3   OH228116   0.282   0.396  16.767 -0.6799  0.4099 -0.3813
 2234TIP3    H128117   0.340   0.449  16.712  0.8150  0.0814  0.8818
 2234TIP3    H228118   0.301   0.306  16.742  0.3062  0.2344  0.9458
 2235TIP3   OH228119   2.514   3.769   3.598 -0.7705  0.0768  0.0114
 2235TIP3    H128120   2.596   3.722   3.583 -0.3560  0.2739  1.5156
 2235TIP3    H228121   2.541   3.855   3.630 -1.5085 -1.0263  3.9388
 2236TIP3   OH228122   4.555   2.076  11.649  0.4840  0.3988 -0.3430
 2236TIP3    H128123   4.523   2.163  11.673 -0.6285 -0.2645  0.6654
 2236TIP3    H228124   4.478   2.032  11.613  0.8346 -0.4472 -0.0607
 2237TIP3   OH228125   5.656   6.734   1.302 -0.0656  0.2405  0.4459
 2237TIP3    H128126   5.617   6.821   1.308 -3.9014 -1.4343  1.1716
 2237TIP3    H228127   5.649   6.711   1.209 -0.0054  0.3158  0.4231
 2238TIP3   OH228128   2.877   3.080  16.147 -0.3148 -0.4670  0.0140
 2238TIP3    H128129   2.957   3.075  16.200 -1.0114  0.0173  1.1466
 2238TIP3    H228130   2.807   3.091  16.211 -1.2322 -0.3171 -0.9955
 2239TIP3   OH228131   3.597   3.136  17.004  0.0588  1.4907 -0.6466
 2239TIP3    H128132   3.691   3.116  17.011 -0.1152  0.4963 -1.1168
 2239TIP3    H228133   3.594   3.231  16.993  0.9351  1.6999  0.8597
 2240TIP3   OH228134   2.049   4.916  15.032 -0.5275  0.3904  0.6361
 2240TIP3    H128135   2.067   5.001  15.073 -0.7257 -0.1540  1.8680
 2240TIP3    H228136   1.960   4.924  14.998 -1.4928 -0.1362  2.9302
 2241TIP3   OH228137   0.472   5.124   0.241 -0.7805 -0.5894  0.2457
 2241TIP3    H128138   0.476   5.188   0.170  0.0619 -1.2921 -0.3591
 2241TIP3    H228139   0.516   5.168   0.315  0.1672 -0.6148 -0.2890
 2242TIP3   OH228140   5.239   5.137  12.572 -0.1283 -0.0860  0.0744
 2242TIP3    H128141   5.277   5.052  12.552 -2.2603 -0.7184 -1.4119
 2242TIP3    H228142   5.220   5.176  12.487 -0.4792  1.2874  0.7645
 2243TIP3   OH228143   5.662   2.217   6.219 -0.6892 -0.1681  0.5046
 2243TIP3    H128144   5.622   2.222   6.132 -0.1830 -0.6734  0.2394
 2243TIP3    H228145   5.737   2.276   6.215  0.4289 -1.5775 -0.0080
 2244TIP3   OH228146   2.108   2.584  14.658  0.3922 -0.0229  0.2475
 2244TIP3    H128147   2.076   2.616  14.743 -0.9635 -1.2555  0.2310
 2244TIP3    H228148   2.181   2.526  14.680  1.0420  0.8690  0.4608
 2245TIP3   OH228149   2.076   5.941   5.837  0.1045  0.4786 -0.0303
 2245TIP3    H128150   2.055   5.935   5.744 -0.2802 -2.4978  0.1951
 2245TIP3    H228151   2.089   5.850   5.864  0.5997  1.3356  2.7397
 2246TIP3   OH228152   4.762   2.677  10.797 -0.5117 -0.1346  0.4075
 2246TIP3    H128153   4.783   2.584  10.793  2.9129  0.6261 -1.0664
 2246TIP3    H228154   4.725   2.697  10.711  0.5834  0.2249  0.0035
 2247TIP3   OH228155   3.064   4.647  15.167  0.0277  0.0274  0.2468
 2247TIP3    H128156   2.999   4.697  15.217  0.2564  0.9049 -0.3112
 2247TIP3    H228157   3.083   4.571  15.221 -1.8305 -0.4878  0.1915
 2248TIP3   OH228158   3.687   5.355  14.896  0.0135 -0.0641  0.2331
 2248TIP3    H128159   3.743   5.297  14.947  0.0021  2.1322  2.8659
 2248TIP3    H228160   3.626   5.393  14.960  0.2414  3.0784 -1.2957
 2249TIP3   OH228161   5.750   5.907   3.882 -0.2184 -0.1442 -0.1036
 2249TIP3    H128162   5.733   5.948   3.797 -1.9331 -1.5661 -0.4875
 2249TIP3    H228163   5.817   5.842   3.864 -0.1523 -0.0343 -0.2583
 2250TIP3   OH228164   2.692   1.634   0.981  0.6133  0.4648  0.1610
 2250TIP3    H128165   2.770   1.619   1.033  1.9817  1.3356 -1.5692
 2250TIP3    H228166   2.653   1.714   1.016  2.4735  2.0120 -1.1996
 2251TIP3   OH228167   3.540   4.517   1.033 -0.1259  0.1554 -0.0745
 2251TIP3    H128168   3.635   4.506   1.037 -0.3377 -1.3132  1.9287
 2251TIP3    H228169   3.522   4.591   1.091 -0.0088  2.1318 -2.4764
 2252TIP3   OH228170   1.016   1.358   5.713 -0.1538 -0.3204  0.0185
 2252TIP3    H128171   1.076   1.396   5.778  0.2126 -1.4703  0.3736
 2252TIP3    H228172   1.028   1.263   5.723 -2.8142 -0.6030  0.8441
 2253TIP3   OH228173   1.760   1.252   1.364  0.3109  0.5672  0.4528
 2253TIP3    H128174   1.777   1.328   1.420  1.5214 -0.1976  1.1335
 2253TIP3    H228175   1.821   1.263   1.290 -0.9866  1.3519 -0.5309
 2254TIP3   OH228176   0.818   4.896   2.889 -0.0624  0.1298  0.6743
 2254TIP3    H128177   0.830   4.990   2.879 -3.9204  0.6379 -0.0130
 2254TIP3    H228178   0.731   4.887   2.929  0.2217 -3.1343  0.6925
 2255TIP3   OH228179   3.207   1.660   5.009 -0.1697 -0.0354 -0.6248
 2255TIP3    H128180   3.253   1.737   5.042 -3.0148  1.9012 -0.9258
 2255TIP3    H228181   3.243   1.645   4.922 -0.0059  1.3373 -0.7961
 2256TIP3   OH228182   0.135   2.537  16.755  0.2492  0.0071 -0.0875
 2256TIP3    H128183   0.197   2.544  16.682  1.8847 -3.3293  0.8935
 2256TIP3    H228184   0.140   2.621  16.799  2.1163  0.7142 -1.5925
 2257TIP3   OH228185   0.934   1.964  13.410 -0.4166 -0.1477  0.7012
 2257TIP3    H128186   0.854   1.930  13.449 -0.5107  0.3714  0.9627
 2257TIP3    H228187   0.913   1.974  13.317 -0.2611 -1.1770  0.5525
 2258TIP3   OH228188   6.622   1.381   3.757 -0.3304 -0.4448 -0.3781
 2258TIP3    H128189   6.605   1.308   3.817  2.1382 -0.1860  0.7061
 2258TIP3    H228190   6.683   1.346   3.692 -0.8310  0.0598 -1.1344
 2259TIP3   OH228191   2.705   3.440   0.072  0.7567  0.7371 -0.1909
 2259TIP3    H128192   2.615   3.473   0.069  1.1001  2.0056  2.1989
 2259TIP3    H228193   2.704   3.374   0.141  1.8735  1.4908  0.5682
 2260TIP3   OH228194   5.822   2.477  12.246  0.2420 -0.0718  0.3691
 2260TIP3    H128195   5.758   2.421  12.288  1.3414 -1.8325 -0.2445
 2260TIP3    H228196   5.789   2.566  12.258 -0.5455 -0.7048  3.0273
 2261TIP3   OH228197   4.210   6.660   4.650 -0.3737  0.2062  0.0549
 2261TIP3    H128198   4.174   6.638   4.736  2.5777  0.1388  1.3442
 2261TIP3    H228199   4.207   6.579   4.600 -1.5442  0.1016  0.2844
 2262TIP3   OH228200   1.820   5.150   2.590 -0.5852 -0.3462  0.6070
 2262TIP3    H128201   1.756   5.207   2.633  0.2173 -0.2441  1.6982
 2262TIP3    H228202   1.816   5.173   2.498 -1.1526  0.6045  0.8685
 2263TIP3   OH228203   6.452   6.212  15.198  0.2288 -0.1116 -0.1733
 2263TIP3    H128204   6.450   6.299  15.159 -1.2555  1.6803  3.6609
 2263TIP3    H228205   6.385   6.162  15.150 -1.6895  2.0549  0.1685
 2264TIP3   OH228206   4.676   0.194   5.959 -0.3670  0.1740 -0.0979
 2264TIP3    H128207   4.731   0.272   5.960 -0.3917  0.2220  3.3723
 2264TIP3    H228208   4.738   0.121   5.969 -0.7083  0.0436  1.0591
 2265TIP3   OH228209   2.737   1.146   3.057 -0.1940 -0.2906  0.0605
 2265TIP3    H128210   2.768   1.182   2.974  0.1757 -0.2742  0.2076
 2265TIP3    H228211   2.728   1.052   3.041  1.0957 -0.4708  0.3832
 2266TIP3   OH228212   4.206   3.493  14.389  0.5933  0.3924 -0.3649
 2266TIP3    H128213   4.294   3.459  14.399  1.2475  1.9045 -0.7737
 2266TIP3    H228214   4.189   3.489  14.294 -0.2911 -1.1285 -0.1520
 2267TIP3   OH228215   0.067   1.543  12.965 -0.1645 -0.7537  0.8095
 2267TIP3    H128216  -0.001   1.532  12.898 -1.3593 -3.0284  2.3257
 2267TIP3    H228217   0.022   1.583  13.039  0.6247 -0.3534  1.0773
 2268TIP3   OH228218   0.699   1.163   2.136  0.1595 -0.2361  0.3573
 2268TIP3    H128219   0.646   1.085   2.152  0.2852 -0.0911  1.5685
 2268TIP3    H228220   0.788   1.137   2.162  0.2748  0.1913  0.3906
 2269TIP3   OH228221   6.455   6.134   2.202  0.5687  0.5563 -0.1084
 2269TIP3    H128222   6.506   6.101   2.276  2.3935  1.8993 -0.7242
 2269TIP3    H228223   6.469   6.229   2.204  0.3007  0.6504 -1.9052
 2270TIP3   OH228224   2.650   3.360   3.374  0.2612 -0.1215 -1.2697
 2270TIP3    H128225   2.599   3.306   3.436  1.2283  1.0991  0.6437
 2270TIP3    H228226   2.696   3.296   3.319 -2.0031 -1.2380 -1.9406
 2271TIP3   OH228227   1.428   6.526  13.531 -0.0900  0.7374 -0.2941
 2271TIP3    H128228   1.510   6.481  13.509 -1.0931 -1.7777  0.9291
 2271TIP3    H228229   1.360   6.476  13.486 -1.0879  2.0411 -0.2638
 2272TIP3   OH228230   3.202   0.222   1.780 -0.2988 -0.6881 -0.3554
 2272TIP3    H128231   3.226   0.167   1.705 -2.7112 -0.8730 -1.0557
 2272TIP3    H228232   3.146   0.290   1.743 -1.0760 -0.4507  1.1907
 2273TIP3   OH228233   2.465   5.293  12.076 -0.2236  0.2275  0.6224
 2273TIP3    H128234   2.548   5.337  12.094 -1.5177  2.5515  0.9959
 2273TIP3    H228235   2.443   5.249  12.158  1.4930 -1.9152 -0.0064
 2274TIP3   OH228236   0.229   0.213   3.599  0.3907 -0.3011  0.4491
 2274TIP3    H128237   0.311   0.206   3.551  0.6829  2.1162  0.5583
 2274TIP3    H228238   0.169   0.257   3.539 -0.3475 -0.5800  0.9684
 2275TIP3   OH228239   6.577   5.492   6.323 -0.2985 -0.2160 -0.3432
 2275TIP3    H128240   6.533   5.577   6.333 -1.5969 -0.7924 -1.1436
 2275TIP3    H228241   6.670   5.513   6.334 -0.5077  1.4923 -1.5045
 2276TIP3   OH228242   1.783   6.142  16.754 -0.3914 -0.0341 -0.5076
 2276TIP3    H128243   1.864   6.159  16.803 -0.3156 -0.9530 -0.3154
 2276TIP3    H228244   1.812   6.125  16.664 -0.5910  2.5237 -1.1075
 2277TIP3   OH228245   0.007   0.303  16.662  0.5197  0.4962 -0.5305
 2277TIP3    H128246   0.031   0.215  16.634  1.2782  0.5193  0.0635
 2277TIP3    H228247   0.062   0.321  16.737  0.1743  1.3788 -0.4823
 2278TIP3   OH228248   2.198   5.903   4.135 -0.2926 -0.5233  0.1613
 2278TIP3    H128249   2.131   5.958   4.176 -0.2403 -1.3849  1.4541
 2278TIP3    H228250   2.165   5.885   4.047 -0.3222  1.5340 -0.2563
 2279TIP3   OH228251   5.328   5.872  12.491 -0.1569 -0.0469 -0.1606
 2279TIP3    H128252   5.304   5.889  12.400 -0.8297  0.4272  0.1011
 2279TIP3    H228253   5.413   5.829  12.486  0.9430  2.1147 -0.9343
 2280TIP3   OH228254   0.985   4.644  10.611 -0.0573  0.3240  0.0155
 2280TIP3    H128255   1.073   4.630  10.576 -0.0510  0.3972  0.0023
 2280TIP3    H228256   0.941   4.560  10.599  0.2544  0.0537  0.7229
 2281TIP3   OH228257   5.432   3.639   4.530  0.1194  0.3141  0.0720
 2281TIP3    H128258   5.415   3.595   4.613  0.3657  0.3201  0.1258
 2281TIP3    H228259   5.528   3.643   4.524  0.1125 -0.7350 -0.7721
 2282TIP3   OH228260   6.130   6.633   0.442 -0.0872  0.1229 -0.2490
 2282TIP3    H128261   6.160   6.667   0.357 -2.7416  0.8276 -0.9670
 2282TIP3    H228262   6.069   6.563   0.419 -0.1131 -0.2986  1.1077
 2283TIP3   OH228263   3.927   0.208  13.101  0.3413  0.1294  0.0044
 2283TIP3    H128264   3.866   0.137  13.121 -2.0437  1.9282 -0.6158
 2283TIP3    H228265   3.986   0.211  13.176 -0.4192 -1.5801  0.6987
 2284TIP3   OH228266   2.611   2.750  16.768 -0.0919 -0.6683 -0.5363
 2284TIP3    H128267   2.521   2.781  16.762 -0.3482 -1.4841 -0.9421
 2284TIP3    H228268   2.624   2.697  16.689 -0.4449 -3.6579  1.3452
 2285TIP3   OH228269   2.049   4.282  13.374 -0.1156 -0.1543  0.6650
 2285TIP3    H128270   2.042   4.274  13.469 -0.9533  0.3236  0.6456
 2285TIP3    H228271   2.121   4.344  13.361  0.9855 -1.3685  0.9592
 2286TIP3   OH228272   0.816   4.803   1.431 -0.6838  0.0917 -0.0493
 2286TIP3    H128273   0.808   4.762   1.517 -1.6031  0.0807 -0.1359
 2286TIP3    H228274   0.909   4.797   1.410 -0.6016 -0.7103  0.5434
 2287TIP3   OH228275   5.788   2.653   3.944 -0.4551  0.1389  0.3013
 2287TIP3    H128276   5.749   2.736   3.970 -0.6228 -0.6829  2.8380
 2287TIP3    H228277   5.730   2.586   3.981  0.4057 -1.1022 -0.5374
 2288TIP3   OH228278   0.331   0.457  13.915 -0.1852 -0.2623 -0.3737
 2288TIP3    H128279   0.361   0.466  13.825 -0.9380 -1.1578 -0.7321
 2288TIP3    H228280   0.237   0.478  13.911 -0.3844 -1.0526  0.0537
 2289TIP3   OH228281   1.643   2.036  12.161 -0.0809 -0.8354  0.2447
 2289TIP3    H128282   1.663   2.075  12.076  0.2888 -0.1601  0.6409
 2289TIP3    H228283   1.628   1.943  12.141  2.8871 -1.2785 -0.1633
 2290TIP3   OH228284   3.996   2.149   6.714  0.0762  0.0900  0.4107
 2290TIP3    H128285   3.914   2.199   6.714  0.4359  0.7011  2.0408
 2290TIP3    H228286   3.974   2.067   6.670 -1.0339  0.8428 -0.4744
 2291TIP3   OH228287   4.797   3.539  11.263 -0.1907 -0.0432 -0.4391
 2291TIP3    H128288   4.735   3.605  11.233 -0.1505  0.2726  0.1641
 2291TIP3    H228289   4.871   3.547  11.203 -0.9509 -0.7951 -1.5019
 2292TIP3   OH228290   0.334   4.730   1.770  0.3942  0.6079 -0.6095
 2292TIP3    H128291   0.399   4.676   1.814  0.2414  0.7208 -0.2477
 2292TIP3    H228292   0.364   4.820   1.783  1.1170  0.5702 -1.9499
 2293TIP3   OH228293   4.086   6.457  13.804 -0.6236 -0.3745 -0.3567
 2293TIP3    H128294   4.146   6.531  13.794  0.5912 -1.2335  0.3959
 2293TIP3    H228295   4.009   6.494  13.848  0.3124  0.2887  0.7396
 2294TIP3   OH228296   2.627   6.645  12.666  1.2751  0.0919  0.0139
 2294TIP3    H128297   2.567   6.680  12.732  0.6643 -0.3404 -0.3062
 2294TIP3    H228298   2.673   6.722  12.632  0.0672  0.5790 -0.5606
 2295TIP3   OH228299   0.450   4.421  15.930  0.0059  0.1750 -0.2903
 2295TIP3    H128300   0.465   4.465  16.014 -1.3683 -0.2407  0.1864
 2295TIP3    H228301   0.445   4.328  15.952  0.6023 -0.0213 -0.9705
 2296TIP3   OH228302   2.103   3.432  12.725  0.1895 -0.0415 -0.6278
 2296TIP3    H128303   2.174   3.485  12.761 -0.4059  1.1625 -1.1845
 2296TIP3    H228304   2.145   3.350  12.697  1.0547 -0.0198  0.5863
 2297TIP3   OH228305   1.727   1.846  12.559  0.7298  0.0800 -0.0206
 2297TIP3    H128306   1.807   1.898  12.559 -0.0649  1.3349 -1.0777
 2297TIP3    H228307   1.695   1.851  12.649  1.0983  0.7428  0.0756
 2298TIP3   OH228308   2.151   4.952  13.382  0.0324 -0.2348  0.4944
 2298TIP3    H128309   2.083   4.998  13.332  0.3122 -0.6072 -0.2486
 2298TIP3    H228310   2.130   4.969  13.473  1.7175  3.7522  0.2606
 2299TIP3   OH228311   4.622   0.434  13.195 -0.3510  0.1518  0.2787
 2299TIP3    H128312   4.705   0.437  13.147 -1.1380  0.4962 -1.0646
 2299TIP3    H228313   4.607   0.340  13.210 -0.1390  0.0384 -0.1974
 2300TIP3   OH228314   5.144   0.511   1.193  0.3565  0.6135  0.4046
 2300TIP3    H128315   5.135   0.593   1.242  0.8740  1.1676 -0.4066
 2300TIP3    H228316   5.085   0.450   1.236 -0.4394  1.5731  0.6795
 2301TIP3   OH228317   4.965   2.735   2.994 -0.0892 -0.6358 -0.4412
 2301TIP3    H128318   4.976   2.829   2.982 -0.3553 -0.6278 -0.6362
 2301TIP3    H228319   4.875   2.725   3.026  1.2925 -0.4891  3.6790
 2302TIP3   OH228320   6.326   0.331   1.871 -0.1388  0.6813  0.3310
 2302TIP3    H128321   6.308   0.402   1.810  0.5127  1.4763  1.0449
 2302TIP3    H228322   6.371   0.265   1.819 -2.0332  0.1723 -0.6631
 2303TIP3   OH228323   5.312   6.537  10.657 -0.1747  0.1379  0.2561
 2303TIP3    H128324   5.389   6.481  10.655 -0.4851 -0.2596 -1.2631
 2303TIP3    H228325   5.322   6.589  10.736  2.1713  0.8199 -0.4629
 2304TIP3   OH228326   4.023   4.145   4.000  0.0323 -0.5187  0.0465
 2304TIP3    H128327   4.033   4.132   3.906 -0.2797 -2.3166  0.2347
 2304TIP3    H228328   4.110   4.171   4.030 -0.2225  1.5848 -0.9431
 2305TIP3   OH228329   6.547   5.127   5.862  0.0377  0.1698 -0.0953
 2305TIP3    H128330   6.536   5.218   5.834 -2.1036  0.3000  1.0180
 2305TIP3    H228331   6.505   5.076   5.793 -0.3515  0.1606  0.1421
 2306TIP3   OH228332   0.956   5.593  14.259  0.4463 -0.3611  0.1975
 2306TIP3    H128333   0.972   5.523  14.197  0.5520  0.1078 -0.3115
 2306TIP3    H228334   0.897   5.555  14.324  0.6179 -0.9584  0.0030
 2307TIP3   OH228335   6.728   2.670   2.718  0.2347  0.2881  0.0246
 2307TIP3    H128336   6.795   2.643   2.655 -0.4686  1.5765 -1.3038
 2307TIP3    H228337   6.705   2.759   2.692 -2.3562 -0.3162  0.1274
 2308TIP3   OH228338   0.070   1.516   1.315 -0.4626  0.0451  0.1988
 2308TIP3    H128339   0.070   1.486   1.224 -0.8413 -0.3033  0.3159
 2308TIP3    H228340   0.042   1.607   1.310 -1.1246 -0.1678  0.0346
 2309TIP3   OH228341   5.419   6.113   4.231  0.4042  0.0305 -0.4408
 2309TIP3    H128342   5.463   6.196   4.249 -0.8182  0.7173 -0.5708
 2309TIP3    H228343   5.414   6.108   4.136 -0.2976  0.2316 -0.4192
 2310TIP3   OH228344   1.058   5.300  17.186  0.6079 -0.0205 -0.1697
 2310TIP3    H128345   1.050   5.391  17.211 -0.0487 -0.4877  1.3533
 2310TIP3    H228346   1.152   5.284  17.181  0.7192  0.7000 -0.3455
 2311TIP3   OH228347   0.378   0.723  14.001 -0.4637  0.2360 -0.0716
 2311TIP3    H128348   0.285   0.747  14.003 -0.6361 -0.3681 -0.7357
 2311TIP3    H228349   0.379   0.631  13.976  0.3290  0.3611 -0.5318
 2312TIP3   OH228350   2.445   4.968  11.978  0.1419  0.5887 -0.3420
 2312TIP3    H128351   2.523   4.980  11.924 -0.1692 -0.3611 -1.0148
 2312TIP3    H228352   2.416   5.057  11.997  1.6094  0.9610  0.2459
 2313TIP3   OH228353   5.826   5.463  13.441  0.0529 -0.2338 -0.2107
 2313TIP3    H128354   5.771   5.388  13.464 -0.1503 -0.0714 -0.1638
 2313TIP3    H228355   5.905   5.424  13.405  1.0641 -0.5449  2.2283
 2314TIP3   OH228356   1.031   4.597  11.494  0.1562 -0.4412 -0.1867
 2314TIP3    H128357   1.081   4.671  11.459  2.0322 -1.5421  0.0946
 2314TIP3    H228358   1.063   4.521  11.445 -0.9100 -1.2316  0.3309
 2315TIP3   OH228359   2.605   0.472   4.503  0.3566 -0.0643 -0.0131
 2315TIP3    H128360   2.685   0.482   4.452  1.1352  0.0815  1.2168
 2315TIP3    H228361   2.538   0.450   4.439  1.3141  0.1451 -1.0959
 2316TIP3   OH228362   4.344   4.550   4.375  0.1923 -0.0771  0.1478
 2316TIP3    H128363   4.272   4.496   4.410  1.1629 -1.1533  0.5021
 2316TIP3    H228364   4.314   4.640   4.386 -1.2698 -0.5249 -0.0514
 2317TIP3   OH228365   3.104   1.654   3.366 -0.2601  0.4271 -0.0481
 2317TIP3    H128366   3.116   1.726   3.304 -0.2316 -0.6238 -1.2901
 2317TIP3    H228367   3.081   1.579   3.311  0.0604 -0.5950  1.1897
 2318TIP3   OH228368   2.661   0.543  12.384 -0.9364 -0.3183 -0.1176
 2318TIP3    H128369   2.684   0.634  12.400 -0.4969 -0.6784  1.2912
 2318TIP3    H228370   2.743   0.495  12.392 -1.8077 -1.3718  3.2287
 2319TIP3   OH228371   4.652   0.540   1.744  0.1340 -0.0632 -0.7038
 2319TIP3    H128372   4.592   0.555   1.671  0.2907  1.1122 -0.5958
 2319TIP3    H228373   4.614   0.590   1.816  0.3665 -0.6471 -0.1720
 2320TIP3   OH228374   5.434   3.368   1.546  0.0932  0.1485  0.5831
 2320TIP3    H128375   5.340   3.354   1.543  0.1603 -0.6160  1.7865
 2320TIP3    H228376   5.471   3.296   1.495 -0.1043  2.3817 -2.9186
 2321TIP3   OH228377   3.288   2.116  12.170  0.2482  0.5172 -0.1385
 2321TIP3    H128378   3.315   2.025  12.181  1.5202  1.0178  1.0246
 2321TIP3    H228379   3.210   2.125  12.225  0.2532  0.1884 -0.0794
 2322TIP3   OH228380   1.736   3.898   1.024 -0.1412 -0.2522 -0.3311
 2322TIP3    H128381   1.663   3.846   0.992  0.7480 -0.9103 -1.3328
 2322TIP3    H228382   1.783   3.925   0.945  0.5914  0.3277  0.2830
 2323TIP3   OH228383   6.710   2.804   0.058 -0.6550 -0.0952  0.0123
 2323TIP3    H128384   6.766   2.727   0.070  0.2605  0.4993 -0.4386
 2323TIP3    H228385   6.665   2.813   0.143 -0.0306 -0.5414  0.3984
 2324TIP3   OH228386   2.408   3.148   0.296 -0.0296  0.0107  0.1030
 2324TIP3    H128387   2.363   3.228   0.269 -0.7166  0.2678  1.9187
 2324TIP3    H228388   2.385   3.084   0.229  1.7424  1.6808 -2.1914
 2325TIP3   OH228389   6.125   4.566   2.236 -0.0261  0.3582 -0.4595
 2325TIP3    H128390   6.100   4.521   2.155 -0.5093 -0.0213 -0.0993
 2325TIP3    H228391   6.047   4.616   2.261  0.4320  1.2289 -0.7371
 2326TIP3   OH228392   3.033   5.409  11.635  0.1600 -0.3367 -0.0597
 2326TIP3    H128393   2.996   5.325  11.606 -0.0031 -0.4803  0.5610
 2326TIP3    H228394   3.100   5.386  11.698 -0.7098  0.0399  1.0214
 2327TIP3   OH228395   3.669   3.440   1.748 -0.3940 -0.1493 -0.3557
 2327TIP3    H128396   3.598   3.410   1.691 -0.1776  1.2357 -1.3975
 2327TIP3    H228397   3.749   3.418   1.700 -0.2365  2.2318 -1.2671
 2328TIP3   OH228398   4.237   3.279   3.970  0.0781 -0.3338  0.2116
 2328TIP3    H128399   4.219   3.187   3.955  1.0354 -0.6236  0.7962
 2328TIP3    H228400   4.313   3.298   3.914  0.2052 -0.0348  0.4847
 2329TIP3   OH228401   1.675   6.433  13.538 -0.3710  0.3620 -0.3518
 2329TIP3    H128402   1.720   6.403  13.617 -1.0840  0.2415  0.0134
 2329TIP3    H228403   1.632   6.355  13.503  2.2774 -0.2247 -2.4673
 2330TIP3   OH228404   4.378   4.555   3.200  0.0611 -0.2248 -0.2639
 2330TIP3    H128405   4.358   4.496   3.272  0.0361 -0.0533 -0.1316
 2330TIP3    H228406   4.358   4.504   3.121 -0.4338 -0.2220 -0.1405
 2331TIP3   OH228407   2.130   1.769   3.515  0.0182 -0.0006 -0.1059
 2331TIP3    H128408   2.224   1.752   3.512 -0.2045 -1.3039 -0.1403
 2331TIP3    H228409   2.092   1.688   3.550 -1.0581  0.6312  0.2168
 2332TIP3   OH228410   3.065   5.536  12.995  0.6995  0.2047  0.6927
 2332TIP3    H128411   2.973   5.557  13.011  0.4826 -1.5880  2.0242
 2332TIP3    H228412   3.076   5.543  12.901 -0.9459 -0.0470  0.4743
 2333TIP3   OH228413   4.123   1.073  10.680  1.0789 -0.0945 -0.2679
 2333TIP3    H128414   4.040   1.035  10.710  0.7591  1.0890  0.3482
 2333TIP3    H228415   4.152   1.013  10.610 -0.4461 -0.3512 -0.7032
 2334TIP3   OH228416   4.492   1.022   5.317 -0.3619 -0.0097 -0.2545
 2334TIP3    H128417   4.431   1.073   5.263  1.5600  1.6888 -0.8656
 2334TIP3    H228418   4.475   0.931   5.293 -1.7973  0.5281 -1.3180
 2335TIP3   OH228419   1.966   5.871   0.780  0.5102  0.1133 -0.0961
 2335TIP3    H128420   2.032   5.804   0.761 -0.9096 -1.0036 -1.2136
 2335TIP3    H228421   1.958   5.869   0.876  0.8853 -0.9326 -0.0758
 2336TIP3   OH228422   5.814   4.691  12.977  0.3260 -0.6270 -0.1747
 2336TIP3    H128423   5.849   4.670  12.890  1.1847  0.0828 -0.0053
 2336TIP3    H228424   5.744   4.627  12.990  1.4703 -2.0155 -0.5887
 2337TIP3   OH228425   1.363   4.269   5.566 -0.2672  0.0690 -0.2773
 2337TIP3    H128426   1.336   4.308   5.483 -0.1814  1.4237  0.3171
 2337TIP3    H228427   1.404   4.341   5.614 -0.5513 -0.6284  1.0418
 2338TIP3   OH228428   3.793   5.229  15.404 -0.3617 -0.3981 -0.3523
 2338TIP3    H128429   3.786   5.281  15.484  1.0411 -0.7341 -0.0008
 2338TIP3    H228430   3.724   5.163  15.413 -0.1728 -0.4782  0.6171
 2339TIP3   OH228431   0.827   2.757  11.801  0.1428  0.0871  0.0122
 2339TIP3    H128432   0.837   2.724  11.890 -1.1200 -1.0883 -0.2464
 2339TIP3    H228433   0.737   2.790  11.797 -0.0270 -0.4519 -0.9861
 2340TIP3   OH228434   2.083   5.644   5.156 -0.0231  0.2045 -0.1757
 2340TIP3    H128435   2.022   5.717   5.143 -1.5295 -1.0581 -0.4604
 2340TIP3    H228436   2.029   5.566   5.144  1.7881 -0.9652 -0.9085
 2341TIP3   OH228437   1.996   4.673  13.293 -0.1824  0.1930 -0.4251
 2341TIP3    H128438   1.964   4.762  13.308 -0.0396  0.2917 -0.6889
 2341TIP3    H228439   2.048   4.680  13.212 -2.4105 -0.6888 -1.9822
 2342TIP3   OH228440   2.458   2.799  11.734  0.2605 -0.1491 -0.0005
 2342TIP3    H128441   2.373   2.811  11.776  0.7352  2.1463  0.3330
 2342TIP3    H228442   2.522   2.816  11.803  1.0114 -0.1247 -0.6903
 2343TIP3   OH228443   6.281   0.489  14.528 -0.2070 -0.5733 -0.6260
 2343TIP3    H128444   6.335   0.561  14.496 -0.3218 -1.3890 -2.7379
 2343TIP3    H228445   6.334   0.411  14.513  0.2047 -0.9050  2.2941
 2344TIP3   OH228446   4.347   4.387   1.542  0.1642  0.5817 -0.2373
 2344TIP3    H128447   4.347   4.293   1.525  0.7696  0.7422 -1.1246
 2344TIP3    H228448   4.309   4.396   1.630 -0.6443 -0.4310 -0.4773
 2345TIP3   OH228449   1.523   3.113  13.329  0.0564 -0.1251  0.2534
 2345TIP3    H128450   1.598   3.148  13.280 -0.7523  1.3996  0.0808
 2345TIP3    H228451   1.552   3.114  13.420 -0.0940  1.4471  0.3091
 2346TIP3   OH228452   0.371   4.005  16.837  0.2736 -0.0991  0.0977
 2346TIP3    H128453   0.317   4.080  16.861  0.5743  0.1907 -0.1270
 2346TIP3    H228454   0.316   3.929  16.856  0.2846  0.1461  1.1335
 2347TIP3   OH228455   0.788   0.585  15.118 -0.1347  0.2075  0.3043
 2347TIP3    H128456   0.738   0.548  15.190 -0.8712  0.6111  0.0130
 2347TIP3    H228457   0.737   0.563  15.039  0.9078 -0.6488 -0.1403
 2348TIP3   OH228458   3.667   6.012  15.909 -0.2214 -1.0602 -0.5595
 2348TIP3    H128459   3.607   5.971  15.971  1.4245  0.4357  2.1036
 2348TIP3    H228460   3.717   5.938  15.872  1.1273 -1.7512  2.4697
 2349TIP3   OH228461   5.340   2.608   0.742 -0.4605 -0.0281 -0.1809
 2349TIP3    H128462   5.356   2.544   0.812 -0.2256 -0.3190 -0.4971
 2349TIP3    H228463   5.298   2.558   0.673  0.1834  0.0469 -0.6333
 2350TIP3   OH228464   1.076   5.688   2.735 -0.3282 -0.0123 -0.0741
 2350TIP3    H128465   1.090   5.782   2.725  2.3688 -0.5044 -1.1750
 2350TIP3    H228466   1.062   5.655   2.646  0.9061 -0.9553  0.0624
 2351TIP3   OH228467   5.494   3.217   4.917  0.2703 -0.2781  0.0122
 2351TIP3    H128468   5.416   3.272   4.930 -2.3955 -3.3497 -2.0131
 2351TIP3    H228469   5.547   3.231   4.995 -1.4761  3.2437  0.6743
 2352TIP3   OH228470   2.072   5.102  12.195 -0.2691 -0.0029  0.2277
 2352TIP3    H128471   2.028   5.119  12.279 -0.2075  0.1630  0.2259
 2352TIP3    H228472   2.138   5.171  12.188 -0.0636 -0.2050  0.1903
 2353TIP3   OH228473   6.710   6.614  15.151  0.1224 -0.4342 -0.2746
 2353TIP3    H128474   6.783   6.677  15.159  0.2075 -0.2177 -2.4809
 2353TIP3    H228475   6.741   6.551  15.086 -0.7735 -1.6315  0.4642
 2354TIP3   OH228476   1.755   2.234  16.837  0.1046  0.3915 -0.0562
 2354TIP3    H128477   1.665   2.204  16.847  0.2535  0.1910  0.7249
 2354TIP3    H228478   1.801   2.199  16.914  0.9127  0.2394 -0.5968
 2355TIP3   OH228479   0.613   4.189   1.229  0.1397 -0.3386 -0.2602
 2355TIP3    H128480   0.693   4.149   1.195  0.9157  2.0246 -1.2641
 2355TIP3    H228481   0.555   4.194   1.154 -0.0684  0.1847 -0.0638
 2356TIP3   OH228482   5.968   2.749   0.144  0.4792  0.1885  0.0089
 2356TIP3    H128483   6.027   2.675   0.136 -0.1258 -0.5226  1.9188
 2356TIP3    H228484   6.015   2.822   0.104  1.2100 -1.1313 -1.5904
 2357TIP3   OH228485   1.808   2.911   0.351 -0.2895 -0.2013  0.3752
 2357TIP3    H128486   1.729   2.929   0.299  1.3697  0.0302 -2.1508
 2357TIP3    H228487   1.823   2.993   0.400  0.3104  1.0027 -1.7657
 2358TIP3   OH228488   3.093   2.126  11.717 -0.0537 -0.1300  0.3331
 2358TIP3    H128489   3.176   2.163  11.686 -1.0208  1.0840 -0.8616
 2358TIP3    H228490   3.098   2.132  11.813  1.4161 -0.4683  0.2781
 2359TIP3   OH228491   3.585   5.710  10.886 -0.4122  0.7727 -0.4580
 2359TIP3    H128492   3.567   5.782  10.826 -0.6685 -1.0379 -2.5996
 2359TIP3    H228493   3.502   5.697  10.933 -0.1240  2.3752  0.5200
 2360TIP3   OH228494   3.644   5.408  15.911  0.4927 -0.3662 -0.0900
 2360TIP3    H128495   3.711   5.361  15.962 -0.3978  0.8452  2.2536
 2360TIP3    H228496   3.589   5.339  15.875  0.0692 -1.2085  2.1057
 2361TIP3   OH228497   0.452   5.676  15.446  0.1442 -0.2550 -0.1296
 2361TIP3    H128498   0.416   5.763  15.425 -0.1250  0.3017  2.5240
 2361TIP3    H228499   0.384   5.615  15.417  0.3588  0.3768 -2.0719
 2362TIP3   OH228500   4.320   0.919  15.690  0.1179  0.1436  0.2975
 2362TIP3    H128501   4.275   0.848  15.644 -0.3989  1.9171 -1.9975
 2362TIP3    H228502   4.411   0.888  15.697  0.1725 -0.2410 -1.7894
 2363TIP3   OH228503   2.788   5.792   5.968 -0.2928  0.2047  0.2404
 2363TIP3    H128504   2.841   5.803   6.047 -0.8367 -2.8557  1.0910
 2363TIP3    H228505   2.698   5.807   5.997 -0.3190  1.1247 -0.2784
 2364TIP3   OH228506   4.416   4.298   2.738 -0.0070 -0.1329 -0.4743
 2364TIP3    H128507   4.480   4.243   2.784 -0.3102 -0.5961 -0.6056
 2364TIP3    H228508   4.344   4.238   2.716 -0.7788  0.5294  0.2459
 2365TIP3   OH228509   4.115   0.982  17.084  0.1812  0.2315  0.3015
 2365TIP3    H128510   4.174   1.018  17.151 -0.1859 -0.9839  1.2950
 2365TIP3    H228511   4.062   0.918  17.131  1.1900 -2.0264 -1.5552
 2366TIP3   OH228512   0.278   4.523  13.260  0.2499 -0.1898 -0.2780
 2366TIP3    H128513   0.223   4.455  13.222  1.7614 -1.9379  0.6079
 2366TIP3    H228514   0.281   4.502  13.353 -0.5932  2.0526  0.3026
 2367TIP3   OH228515   0.812   3.619   4.121 -0.5555 -0.0737 -0.0308
 2367TIP3    H128516   0.878   3.573   4.171 -0.8068  0.4739  0.8219
 2367TIP3    H228517   0.775   3.553   4.062 -0.7445 -0.8942  0.9959
 2368TIP3   OH228518   1.024   6.520  14.331 -0.7030  0.2370 -0.1515
 2368TIP3    H128519   1.109   6.549  14.299  0.2385 -0.5989  1.5196
 2368TIP3    H228520   1.024   6.425  14.318 -1.5858  0.2842 -0.5798
 2369TIP3   OH228521   2.332   0.739  14.404  0.4357 -0.3604 -0.2990
 2369TIP3    H128522   2.418   0.702  14.425  0.0128 -1.9929 -1.3464
 2369TIP3    H228523   2.276   0.711  14.477  0.6866  0.3821  0.1900
 2370TIP3   OH228524   1.993   3.540   4.027 -0.3123 -0.5422 -0.0590
 2370TIP3    H128525   2.001   3.630   3.995  3.1686 -1.1775 -1.1466
 2370TIP3    H228526   2.029   3.543   4.116 -2.0495 -0.4969  0.6661
 2371TIP3   OH228527   4.840   4.313   0.833  0.3121  0.4943  0.1578
 2371TIP3    H128528   4.747   4.292   0.833  0.5688 -0.7779  2.6174
 2371TIP3    H228529   4.857   4.347   0.745 -2.5986  1.4025 -0.1011
 2372TIP3   OH228530   2.547   4.111  12.802 -0.1745  0.3242  0.4476
 2372TIP3    H128531   2.501   4.195  12.802 -0.7603  0.0153 -0.5769
 2372TIP3    H228532   2.636   4.132  12.774 -1.1461  0.1862 -2.8769
 2373TIP3   OH228533   6.785   6.732  15.726 -0.0346 -0.0766 -0.1327
 2373TIP3    H128534   6.764   6.656  15.781 -0.0338 -0.8382 -1.1731
 2373TIP3    H228535   6.853   6.700  15.666  0.8930  1.1071  0.2543
 2374TIP3   OH228536   5.465   4.115   3.417 -0.0151  0.6695  0.2793
 2374TIP3    H128537   5.501   4.027   3.433 -1.1947  0.5656  2.4855
 2374TIP3    H228538   5.370   4.102   3.416 -0.1596  1.7621 -0.5110
 2375TIP3   OH228539   3.925   4.072  13.796 -0.2969 -0.0976  0.1151
 2375TIP3    H128540   3.890   4.119  13.721 -1.0065  2.5334  2.0325
 2375TIP3    H228541   4.017   4.057  13.774 -0.6317  0.1393 -1.4853
 2376TIP3   OH228542   4.840   0.568   3.061 -0.6250 -0.0058  0.0568
 2376TIP3    H128543   4.845   0.493   3.001  1.6684  0.6519 -0.6294
 2376TIP3    H228544   4.768   0.621   3.027 -1.0830 -0.9882 -0.5191
 2377TIP3   OH228545   0.984   1.904   1.023 -0.0146  0.1522 -0.4076
 2377TIP3    H128546   1.063   1.940   0.982  1.4385  1.2462  3.1685
 2377TIP3    H228547   1.013   1.822   1.064 -1.1328 -0.2689 -0.4204
 2378TIP3   OH228548   4.787   2.288  16.223  0.3513 -0.4378 -0.2229
 2378TIP3    H128549   4.856   2.222  16.211 -0.8159 -1.3091 -2.7070
 2378TIP3    H228550   4.741   2.260  16.302  0.8598 -1.7251 -0.3593
 2379TIP3   OH228551   0.320   2.168   2.668  0.5202 -0.2561 -0.0412
 2379TIP3    H128552   0.329   2.077   2.696  0.4648  0.2809  1.7511
 2379TIP3    H228553   0.410   2.199   2.657  0.5697  0.0499  1.2390
 2380TIP3   OH228554   0.141   4.215  16.641  0.0602 -0.5325 -0.2712
 2380TIP3    H128555   0.066   4.197  16.585 -0.5059  0.9682 -0.0131
 2380TIP3    H228556   0.118   4.179  16.726  0.0987 -1.0521 -0.4794
 2381TIP3   OH228557   1.956   2.641  11.606  0.2648 -0.5566  0.3545
 2381TIP3    H128558   1.962   2.554  11.645 -0.1436 -1.1070 -0.7928
 2381TIP3    H228559   2.032   2.688  11.641  0.1481 -1.1799  1.4533
 2382TIP3   OH228560   4.388   6.516   3.770  0.3562  0.3958  1.0797
 2382TIP3    H128561   4.359   6.585   3.829 -3.3604 -0.3249  0.2154
 2382TIP3    H228562   4.388   6.556   3.683 -1.2007 -0.4715  0.6575
 2383TIP3   OH228563   1.186   4.464   2.406  0.3190 -0.2576  0.4494
 2383TIP3    H128564   1.172   4.554   2.376  0.3216 -1.2811 -2.8628
 2383TIP3    H228565   1.098   4.431   2.422  0.1723 -0.3309 -0.4715
 2384TIP3   OH228566   6.684   4.734  13.762  0.3298 -0.1348  0.0979
 2384TIP3    H128567   6.735   4.699  13.689  1.0904 -0.8736  0.9810
 2384TIP3    H228568   6.747   4.749  13.832 -0.7076 -1.5572  1.3870
 2385TIP3   OH228569   0.135   2.672   5.196 -0.0902  0.1435  0.1946
 2385TIP3    H128570   0.191   2.672   5.118  1.6649 -0.0281  1.4286
 2385TIP3    H228571   0.066   2.608   5.175 -0.7365  1.4933 -1.9602
 2386TIP3   OH228572   0.652   5.551   0.816 -0.2605  0.0133 -0.2614
 2386TIP3    H128573   0.601   5.477   0.851  0.1716  1.1802  3.0301
 2386TIP3    H228574   0.738   5.513   0.797 -0.1094 -0.4236  1.1908
 2387TIP3   OH228575   2.120   1.538   5.828 -0.1331  0.5968  0.1654
 2387TIP3    H128576   2.035   1.582   5.834 -0.3266  0.2254  0.1584
 2387TIP3    H228577   2.157   1.546   5.915 -0.6116 -0.1123  0.4396
 2388TIP3   OH228578   6.212   4.414   5.029  0.5924 -0.1288  0.1396
 2388TIP3    H128579   6.279   4.352   5.004  2.4109  1.4844  0.8843
 2388TIP3    H228580   6.233   4.438   5.120 -2.1224 -1.0570  1.0538
 2389TIP3   OH228581   4.562   1.231   4.199  0.2139  0.0552 -0.0462
 2389TIP3    H128582   4.650   1.214   4.232  0.1568 -0.7143 -0.2933
 2389TIP3    H228583   4.569   1.221   4.104  0.3433  2.1083 -0.2698
 2390TIP3   OH228584   1.163   1.489  14.193 -0.5210 -0.1258 -0.6596
 2390TIP3    H128585   1.105   1.427  14.148 -3.2219  1.9264 -0.1725
 2390TIP3    H228586   1.201   1.439  14.265 -1.6879 -1.5383 -0.9980
 2391TIP3   OH228587   4.271   4.511   2.504  0.0711  0.4005 -0.1143
 2391TIP3    H128588   4.202   4.543   2.446  0.3233 -0.1986 -0.7545
 2391TIP3    H228589   4.319   4.447   2.451 -0.0948 -0.6447  0.9719
 2392TIP3   OH228590   5.577   3.869  15.085  0.0582  0.5866 -0.0578
 2392TIP3    H128591   5.671   3.856  15.076 -0.1537 -1.2200  0.1346
 2392TIP3    H228592   5.567   3.964  15.098  1.6533  1.1185 -2.2942
 2393TIP3   OH228593   2.270   2.120   4.692 -0.1459 -0.0915 -0.4159
 2393TIP3    H128594   2.352   2.081   4.721  0.2261  1.1669  0.2218
 2393TIP3    H228595   2.265   2.204   4.737 -0.7700  0.7736 -2.0534
 2394TIP3   OH228596   1.964   4.747  16.574  0.4225 -0.2634  0.1509
 2394TIP3    H128597   1.927   4.717  16.491  0.3693  0.3442 -0.0491
 2394TIP3    H228598   1.893   4.737  16.638  0.3794 -0.4814  0.0692
 2395TIP3   OH228599   3.522   2.646  15.759  0.9177  0.5557  0.2560
 2395TIP3    H128600   3.534   2.666  15.852 -0.5485  0.4989  0.4690
 2395TIP3    H228601   3.452   2.704  15.731 -0.6508 -1.4542 -0.0955
 2396TIP3   OH228602   6.740   0.777  17.220 -0.1760  0.4196 -0.0038
 2396TIP3    H128603   6.807   0.840  17.194  0.2288  0.6003  1.4289
 2396TIP3    H228604   6.770   0.744  17.305 -1.6637  0.1497  0.4290
 2397TIP3   OH228605   5.577   3.766  13.710 -0.3904  0.1566  0.2416
 2397TIP3    H128606   5.566   3.823  13.786  0.9134  0.8644 -0.0779
 2397TIP3    H228607   5.667   3.783  13.681 -0.3022 -1.3791 -0.4114
 2398TIP3   OH228608   3.023   6.090  12.392 -0.3446  0.2001  0.5994
 2398TIP3    H128609   2.976   6.021  12.345  1.3164 -0.3814 -0.2196
 2398TIP3    H228610   3.087   6.124  12.330  1.6558 -0.3290  2.2983
 2399TIP3   OH228611   6.759   1.147  14.293  0.5839  0.6267 -0.1872
 2399TIP3    H128612   6.844   1.102  14.290  0.1059 -0.3556  0.5051
 2399TIP3    H228613   6.717   1.113  14.372 -0.7602  0.5544 -0.9124
 2400TIP3   OH228614   5.365   5.565   0.401 -0.0583  0.0201  0.3405
 2400TIP3    H128615   5.378   5.492   0.462 -0.3167  0.2154  0.6319
 2400TIP3    H228616   5.300   5.532   0.339  0.8023 -0.4650 -0.3092
 2401TIP3   OH228617   2.745   4.986   1.249 -0.1416 -0.6011  0.1630
 2401TIP3    H128618   2.831   4.960   1.217  0.6717  0.9280  1.0414
 2401TIP3    H228619   2.747   4.968   1.343 -1.2060 -1.6712 -0.0138
 2402TIP3   OH228620   1.360   4.301   5.273 -0.9527  0.2962  0.4032
 2402TIP3    H128621   1.377   4.265   5.186  0.0764 -0.5593  0.9512
 2402TIP3    H228622   1.404   4.386   5.272 -2.1699  0.9523 -0.3894
 2403TIP3   OH228623   0.259   3.982   0.789  0.2156 -0.3557 -0.2864
 2403TIP3    H128624   0.237   3.965   0.880 -2.4076  0.0021 -0.8050
 2403TIP3    H228625   0.354   3.971   0.784  0.1374 -2.3078  2.0426
 2404TIP3   OH228626   5.688   4.834   1.090 -0.6602  0.2307  0.3479
 2404TIP3    H128627   5.665   4.742   1.077  1.2035 -0.1766 -0.2072
 2404TIP3    H228628   5.656   4.878   1.012  0.2191 -0.2912 -0.3157
 2405TIP3   OH228629   2.492   1.334   1.231 -0.3182 -0.0509  0.4025
 2405TIP3    H128630   2.585   1.343   1.251 -0.4827  1.4336  0.5569
 2405TIP3    H228631   2.489   1.272   1.158  0.9088  0.9685 -0.5435
 2406TIP3   OH228632   0.112   0.021   2.652  0.0048  0.0825 -0.1444
 2406TIP3    H128633   0.186  -0.031   2.622  0.4826 -0.4227  1.8892
 2406TIP3    H228634   0.147   0.109   2.664 -0.0168  0.1210 -0.3620
 2407TIP3   OH228635   2.493   3.742  14.878  0.3684 -0.7257  0.3592
 2407TIP3    H128636   2.485   3.708  14.789 -0.2471 -0.7321  0.4109
 2407TIP3    H228637   2.433   3.688  14.930  0.2284 -0.2931  0.6490
 2408TIP3   OH228638   0.798   0.058  15.089 -0.0688 -0.4118 -0.1192
 2408TIP3    H128639   0.767   0.109  15.014  1.0905  0.0518 -0.2978
 2408TIP3    H228640   0.858  -0.006  15.051  1.3118  0.4837  0.5095
 2409TIP3   OH228641   4.716   5.773  12.016  0.0915 -0.0308  0.1546
 2409TIP3    H128642   4.627   5.762  12.049  0.1565 -0.2295  0.2669
 2409TIP3    H228643   4.746   5.856  12.054 -1.7019  2.5038 -3.6647
 2410TIP3   OH228644   0.751   0.886   5.000 -0.1043  0.2446  0.5172
 2410TIP3    H128645   0.837   0.925   5.015  0.4396 -0.6659 -0.1643
 2410TIP3    H228646   0.695   0.925   5.066  0.5842  1.6636  0.2901
 2411TIP3   OH228647   1.668   1.293  11.953  0.4050  0.1271  0.0927
 2411TIP3    H128648   1.681   1.337  12.037 -2.0840 -0.2021  0.6937
 2411TIP3    H228649   1.692   1.202  11.971 -2.0789 -0.3739  1.0473
 2412TIP3   OH228650   5.496   4.499  15.854 -1.0181  0.0483  0.3152
 2412TIP3    H128651   5.423   4.559  15.843 -0.6723  0.1229 -1.9659
 2412TIP3    H228652   5.535   4.522  15.938 -3.0794  0.5723  1.1584
 2413TIP3   OH228653   0.341   4.314  14.866 -0.5398  0.3475  0.2249
 2413TIP3    H128654   0.336   4.243  14.931  3.0306 -1.0627 -0.9368
 2413TIP3    H228655   0.340   4.394  14.918 -0.6553 -0.6634  1.8253
 2414TIP3   OH228656   0.352   5.408  16.551 -0.4759  1.1050  1.0670
 2414TIP3    H128657   0.406   5.405  16.473  1.7192  1.3572  2.5400
 2414TIP3    H228658   0.360   5.499  16.582 -2.9168  1.5441  0.5227
 2415TIP3   OH228659   4.418   4.260   5.081 -0.4715  0.1291 -0.2111
 2415TIP3    H128660   4.353   4.246   5.012 -0.7553  1.1423 -0.1614
 2415TIP3    H228661   4.417   4.179   5.132 -0.6348 -0.4267 -1.0826
 2416TIP3   OH228662   1.864   4.256  10.577  0.1451  0.0639  0.0835
 2416TIP3    H128663   1.788   4.241  10.634  0.3729 -1.9191 -0.1041
 2416TIP3    H228664   1.853   4.346  10.546 -0.2616  1.0460  2.8533
 2417TIP3   OH228665   0.115   1.130  11.456 -0.5389 -0.4831 -0.3574
 2417TIP3    H128666   0.099   1.192  11.527  0.3368 -0.5853 -0.0649
 2417TIP3    H228667   0.080   1.173  11.378  1.0790  0.8655 -0.3559
 2418TIP3   OH228668   3.588   4.953   3.844  0.0123  0.3200  0.0286
 2418TIP3    H128669   3.563   4.905   3.765 -1.5774  2.0510 -0.5611
 2418TIP3    H228670   3.591   4.887   3.913 -1.1752 -0.7915 -0.9653
 2419TIP3   OH228671   1.779   5.735  13.205 -0.4594  0.5344 -0.0639
 2419TIP3    H128672   1.795   5.744  13.299 -2.6266  1.2204  0.2671
 2419TIP3    H228673   1.861   5.763  13.165  0.5629  0.0599  1.6200
 2420TIP3   OH228674   1.610   0.767   0.838 -0.9274  0.4253  0.9799
 2420TIP3    H128675   1.699   0.733   0.832 -1.0256  0.4305 -0.9030
 2420TIP3    H228676   1.554   0.690   0.830 -1.1050  0.5338  1.1591
 2421TIP3   OH228677   6.490   1.254   1.476 -0.7663 -0.6328 -0.8658
 2421TIP3    H128678   6.436   1.254   1.397 -0.4961 -0.9559 -1.0489
 2421TIP3    H228679   6.484   1.344   1.509  0.3124 -0.1002 -2.0584
 2422TIP3   OH228680   6.563   1.318  13.202  0.2646  0.1949 -0.3488
 2422TIP3    H128681   6.492   1.310  13.265  1.6673  0.0489  1.2582
 2422TIP3    H228682   6.551   1.404  13.162 -0.4075  0.4557  0.4077
 2423TIP3   OH228683   4.861   2.317   0.169  0.1040 -0.2554 -0.3615
 2423TIP3    H128684   4.867   2.222   0.183  2.6323  0.2739  2.6254
 2423TIP3    H228685   4.922   2.335   0.097  1.3567 -0.6231  0.5930
 2424TIP3   OH228686   3.744   4.422  12.528  0.4881 -0.4064 -0.1844
 2424TIP3    H128687   3.659   4.406  12.570  1.4035 -0.4083  1.7050
 2424TIP3    H228688   3.721   4.453  12.440 -1.4468 -1.6283 -0.1503
 2425TIP3   OH228689   2.201   5.847  16.754 -0.1640 -0.1375 -0.2481
 2425TIP3    H128690   2.274   5.789  16.734  1.3382  1.8027 -0.5840
 2425TIP3    H228691   2.190   5.840  16.849  1.5915  0.7887  0.0523
 2426TIP3   OH228692   0.122   5.688  11.159 -0.3618  0.4739 -0.2558
 2426TIP3    H128693   0.132   5.666  11.067  1.2322 -0.7999  0.1925
 2426TIP3    H228694   0.135   5.605  11.205 -0.2791  1.2587  1.1645
 2427TIP3   OH228695   5.109   6.507  15.600  0.0861 -0.6514  0.1131
 2427TIP3    H128696   5.191   6.504  15.550 -0.1167 -0.8066 -0.2124
 2427TIP3    H228697   5.076   6.596  15.586  0.5179 -0.3833  0.7659
 2428TIP3   OH228698   1.269   4.754   5.910 -0.3402  0.1189 -0.2430
 2428TIP3    H128699   1.215   4.679   5.935 -0.5102  0.0276 -0.8781
 2428TIP3    H228700   1.348   4.746   5.964 -1.5708  1.0515  1.7640
 2429TIP3   OH228701   2.329   6.636  14.127  0.7791 -0.5234  0.5559
 2429TIP3    H128702   2.312   6.680  14.210  1.5326 -0.2601  0.5767
 2429TIP3    H228703   2.420   6.657  14.107  0.2676  0.3616 -0.9215
 2430TIP3   OH228704   3.449   6.724   6.056  0.3773 -0.4528 -0.5274
 2430TIP3    H128705   3.524   6.703   6.111 -1.0489 -1.7909  0.9230
 2430TIP3    H228706   3.376   6.736   6.117 -0.4560  1.6164 -1.8502
 2431TIP3   OH228707   0.058   3.834  11.080 -0.0285  0.0962  0.5994
 2431TIP3    H128708  -0.022   3.838  11.028 -0.6810  1.4854  1.6571
 2431TIP3    H228709   0.129   3.835  11.016 -0.8329  0.6594 -0.2968
 2432TIP3   OH228710   3.555   3.228   2.727 -0.5442  0.6186  0.2280
 2432TIP3    H128711   3.579   3.306   2.677 -1.1860  2.0545  2.1002
 2432TIP3    H228712   3.482   3.190   2.679 -0.1738  1.0994 -0.7421
 2433TIP3   OH228713   1.600   3.609  13.876 -0.1100  0.4730 -0.1086
 2433TIP3    H128714   1.530   3.667  13.846 -1.4360 -0.8191  0.4161
 2433TIP3    H228715   1.663   3.668  13.918 -1.1486  1.5970 -0.0845
 2434TIP3   OH228716   0.677   5.012  14.850  0.1161 -0.0149 -0.6499
 2434TIP3    H128717   0.650   5.104  14.845  0.4018  0.0350 -1.3425
 2434TIP3    H228718   0.624   4.968  14.783 -0.8082 -0.5607  0.4126
 2435TIP3   OH228719   0.868   4.859   5.506  0.5778  0.9497 -0.5567
 2435TIP3    H128720   0.960   4.859   5.532  0.1666  1.3676  0.8870
 2435TIP3    H228721   0.852   4.949   5.476  0.5501  0.9477 -0.5472
 2436TIP3   OH228722   2.122   0.979  11.733  0.2181  0.1288 -0.6289
 2436TIP3    H128723   2.171   0.897  11.724 -1.6023 -0.9464 -0.9642
 2436TIP3    H228724   2.125   1.018  11.646  1.6184  0.7387 -0.3168
 2437TIP3   OH228725   3.347   6.611   5.271  0.5926 -0.0116  0.3389
 2437TIP3    H128726   3.352   6.704   5.249  0.4477 -0.4843 -1.7386
 2437TIP3    H228727   3.263   6.583   5.237  0.6876 -0.9399  0.8649
 2438TIP3   OH228728   1.232   3.401   4.427 -0.2384  0.3733  0.5889
 2438TIP3    H128729   1.257   3.318   4.388 -1.6274  0.5252 -0.6625
 2438TIP3    H228730   1.310   3.430   4.474  2.4828  1.4651 -4.2667
 2439TIP3   OH228731   2.659   1.590   2.095  0.2115 -0.2144  0.3496
 2439TIP3    H128732   2.668   1.519   2.031  0.8088  1.3325 -1.3327
 2439TIP3    H228733   2.599   1.652   2.053  2.0456  1.6882  0.4563
 2440TIP3   OH228734   1.368   6.783  12.156 -0.1136 -0.6568  0.2398
 2440TIP3    H128735   1.308   6.724  12.201  0.2738 -0.5720  0.8565
 2440TIP3    H228736   1.380   6.743  12.069  0.8222 -1.9402  0.9435
 2441TIP3   OH228737   4.778   0.746   0.747 -0.4406  0.4645 -0.4810
 2441TIP3    H128738   4.686   0.748   0.772 -1.4288  2.9474 -3.9084
 2441TIP3    H228739   4.823   0.796   0.815 -1.5271 -1.0088  1.3640
 2442TIP3   OH228740   0.711   1.639   0.586 -0.5995  0.6228 -0.3332
 2442TIP3    H128741   0.622   1.673   0.597 -0.3568  0.9346  0.7415
 2442TIP3    H228742   0.761   1.682   0.655  0.3069  0.1589 -0.6993
 2443TIP3   OH228743   6.156   2.105  10.874  0.4170  0.1008 -0.6716
 2443TIP3    H128744   6.171   2.013  10.896  1.5020  0.6355  0.9573
 2443TIP3    H228745   6.067   2.122  10.904 -0.1687 -0.6872 -1.9424
 2444TIP3   OH228746   2.909   0.081  14.018  0.3336  0.2864 -0.5268
 2444TIP3    H128747   2.912   0.157  14.076 -0.8008 -0.5245  0.6139
 2444TIP3    H228748   2.819   0.079  13.985  0.2722 -0.7235 -0.3166
 2445TIP3   OH228749   1.015   4.522   5.772 -0.4253  0.3338  0.6022
 2445TIP3    H128750   0.967   4.584   5.827  0.6150  1.1115  0.6559
 2445TIP3    H228751   1.072   4.475   5.832 -2.2313 -1.7137  0.7739
 2446TIP3   OH228752   5.266   3.704  14.866 -0.2868 -0.0677  0.1879
 2446TIP3    H128753   5.274   3.745  14.952  0.0869 -0.7162  0.4653
 2446TIP3    H228754   5.274   3.776  14.804  1.4717  0.1391  0.6465
 2447TIP3   OH228755   3.304   5.029   0.174  0.4509 -1.1689  0.0384
 2447TIP3    H128756   3.379   4.999   0.123  1.4247 -0.6760  1.1573
 2447TIP3    H228757   3.257   5.088   0.115  1.9500 -0.0530 -0.0787
 2448TIP3   OH228758   0.324   4.509   0.535 -0.4381  0.5320  0.0629
 2448TIP3    H128759   0.319   4.413   0.537 -0.3661  0.5400  0.6020
 2448TIP3    H228760   0.235   4.536   0.510 -0.0277  0.2760 -1.7464
 2449TIP3   OH228761   5.092   5.353  11.752  0.3571 -0.4430 -0.6151
 2449TIP3    H128762   5.026   5.321  11.813 -0.0664 -0.2327 -0.9599
 2449TIP3    H228763   5.058   5.329  11.666 -0.6783  2.1975 -0.9780
 2450TIP3   OH228764   4.900   5.942   0.404 -0.4107  0.3074  0.0564
 2450TIP3    H128765   4.888   5.877   0.334 -0.7974  1.7054 -1.1968
 2450TIP3    H228766   4.904   6.026   0.358 -1.5305  1.3335  1.7912
 2451TIP3   OH228767   6.047   3.658  13.878  0.4437  0.2201  0.4248
 2451TIP3    H128768   5.978   3.633  13.939  0.7823 -0.2054  0.6307
 2451TIP3    H228769   6.046   3.754  13.878 -0.6472  0.2127 -0.1347
 2452TIP3   OH228770   5.604   5.561   3.195 -0.0565 -0.0017  0.1347
 2452TIP3    H128771   5.667   5.588   3.263 -0.2930 -1.4016  0.9382
 2452TIP3    H228772   5.536   5.629   3.197  1.9548  2.1343 -1.5145
 2453TIP3   OH228773   0.238   1.162   3.183  0.7804  0.3482  0.3617
 2453TIP3    H128774   0.194   1.082   3.154  1.8876 -1.2204  2.8159
 2453TIP3    H228775   0.331   1.145   3.166  0.8518  1.9709 -0.9816
 2454TIP3   OH228776   3.176   2.126  12.466  0.7666  0.5341 -0.1494
 2454TIP3    H128777   3.184   2.092  12.555  0.1412 -0.3770 -0.4370
 2454TIP3    H228778   3.085   2.156  12.461  0.8190  0.6366 -0.4652
 2455TIP3   OH228779   2.861   5.143  14.530  0.2285 -0.5951  0.2613
 2455TIP3    H128780   2.826   5.168  14.616  2.0862  1.3466  0.4888
 2455TIP3    H228781   2.817   5.200  14.468 -0.3913 -1.3336  0.0085
 2456TIP3   OH228782   5.236   6.565   0.912 -0.4406  0.0171 -0.5053
 2456TIP3    H128783   5.270   6.650   0.883 -1.3876  0.6042  0.0741
 2456TIP3    H228784   5.237   6.511   0.834 -1.1331  0.9950 -1.2051
 2457TIP3   OH228785   6.750   1.623   2.221 -0.5110 -0.7101 -0.2893
 2457TIP3    H128786   6.712   1.675   2.291 -3.2810  1.1151 -2.9953
 2457TIP3    H228787   6.827   1.673   2.193 -0.6040 -0.3711  0.0591
 2458TIP3   OH228788   1.233   6.675  14.216  0.2324  0.4611 -0.3110
 2458TIP3    H128789   1.230   6.724  14.299  1.2089 -1.5425  0.9537
 2458TIP3    H228790   1.314   6.704  14.174 -0.5170  1.8567 -0.8143
 2459TIP3   OH228791   3.868   0.947   3.634  0.3635 -0.5645  0.4093
 2459TIP3    H128792   3.791   0.897   3.606 -0.2455  0.4812  0.1986
 2459TIP3    H228793   3.884   0.917   3.724  2.7811 -4.4962 -1.1823
 2460TIP3   OH228794   1.563   4.365  13.741  0.1773 -0.2240 -0.0648
 2460TIP3    H128795   1.609   4.359  13.657 -1.8739 -0.0380 -1.2446
 2460TIP3    H228796   1.471   4.371  13.717 -0.3749  0.8830  2.1820
 2461TIP3   OH228797   2.802   2.771  15.983 -0.1890 -0.4432  0.0148
 2461TIP3    H128798   2.857   2.833  15.936  0.6892 -0.9739  0.3326
 2461TIP3    H228799   2.845   2.686  15.971 -0.1468 -0.6470  1.4616
 2462TIP3   OH228800   2.330   5.976   2.354  0.0509 -0.2016 -0.1961
 2462TIP3    H128801   2.407   5.981   2.410  0.5396 -0.0786 -0.8619
 2462TIP3    H228802   2.270   5.917   2.400  0.2634  0.2371  0.6491
 2463TIP3   OH228803   4.644   4.147  14.327 -0.3433  0.1156  0.2496
 2463TIP3    H128804   4.671   4.068  14.280  2.2715  0.9258  0.3419
 2463TIP3    H228805   4.704   4.215  14.298 -0.2032  1.2235  2.9311
 2464TIP3   OH228806   2.891   0.440  15.224  0.2227 -0.1451  0.7656
 2464TIP3    H128807   2.966   0.452  15.166  0.0813 -0.9119  0.4041
 2464TIP3    H228808   2.833   0.513  15.204  1.0328  0.6559  1.3067
 2465TIP3   OH228809   4.708   6.117   4.950  0.1697 -0.1506  0.3102
 2465TIP3    H128810   4.761   6.080   4.879 -0.7638  1.3028 -1.1826
 2465TIP3    H228811   4.643   6.049   4.969  1.8554 -1.4848  1.3862
 2466TIP3   OH228812   4.682   2.490  14.254  0.3393 -0.0210  0.6927
 2466TIP3    H128813   4.671   2.438  14.334 -0.0210  2.1785  2.1081
 2466TIP3    H228814   4.776   2.497  14.242  0.3977 -0.0308  1.1408
 2467TIP3   OH228815   4.313   0.802   5.012  0.0542 -0.4008 -0.1138
 2467TIP3    H128816   4.328   0.830   4.921 -2.9801 -0.0708 -0.5587
 2467TIP3    H228817   4.270   0.716   5.004 -0.1035 -0.4355  1.0111
 2468TIP3   OH228818   3.357   0.438  14.097 -0.4310 -0.6340  0.0949
 2468TIP3    H128819   3.322   0.485  14.021  0.5442  0.9923  0.6368
 2468TIP3    H228820   3.335   0.493  14.172 -0.4628 -1.7104  0.8856
 2469TIP3   OH228821   3.404   3.572   3.901  0.1595  0.7459  0.1997
 2469TIP3    H128822   3.484   3.604   3.940  0.2036  2.3018 -1.1158
 2469TIP3    H228823   3.428   3.551   3.811 -0.4611 -0.6352  0.3387
 2470TIP3   OH228824   5.648   4.244   3.237 -0.1604 -0.0695  0.3026
 2470TIP3    H128825   5.732   4.266   3.276  1.2224 -2.8591 -0.9976
 2470TIP3    H228826   5.605   4.188   3.302  1.4402 -3.3421 -1.3852
 2471TIP3   OH228827   5.929   5.694   0.489  0.0491  0.5545 -0.1502
 2471TIP3    H128828   5.997   5.733   0.434 -1.3909  2.6160 -0.5555
 2471TIP3    H228829   5.870   5.651   0.427  1.4098 -2.0065  0.2660
 2472TIP3   OH228830   1.679   0.927  13.105  0.4417  0.2725 -0.0208
 2472TIP3    H128831   1.638   0.985  13.041  0.7739 -0.0546 -0.5331
 2472TIP3    H228832   1.631   0.844  13.097  0.7845  0.0863 -0.1788
 2473TIP3   OH228833   1.751   2.602   5.649  0.1931  0.2703  0.5093
 2473TIP3    H128834   1.783   2.512   5.645 -1.1501 -0.1695 -1.2508
 2473TIP3    H228835   1.818   2.653   5.604 -0.2353 -0.2409 -0.7345
 2474TIP3   OH228836   6.446   5.470  13.848 -0.0040  0.0494 -0.7537
 2474TIP3    H128837   6.539   5.471  13.825  0.5925  0.0565  1.4880
 2474TIP3    H228838   6.414   5.557  13.825  0.7826  0.3556 -0.6851
 2475TIP3   OH228839   6.076   2.255   2.179  0.3697 -0.2089 -0.5122
 2475TIP3    H128840   5.994   2.235   2.223  0.1363 -0.8480 -1.2338
 2475TIP3    H228841   6.144   2.236   2.244  0.0396 -1.3508 -0.5052
 2476TIP3   OH228842   5.987   6.724   3.718  0.5113  0.6600  0.6362
 2476TIP3    H128843   6.011   6.692   3.805  0.7432  0.3732  0.4669
 2476TIP3    H228844   6.067   6.715   3.666  0.2327  0.3516  0.2590
 2477TIP3   OH228845   5.887   2.156   4.792  0.6638 -0.2922  0.1730
 2477TIP3    H128846   5.869   2.154   4.886 -0.5478 -2.2254 -0.0652
 2477TIP3    H228847   5.869   2.067   4.762  0.4528  0.4431 -2.0021
 2478TIP3   OH228848   3.047   2.432   5.413 -0.4487  0.4608  0.0611
 2478TIP3    H128849   2.966   2.457   5.458  0.3016  1.1765  1.0545
 2478TIP3    H228850   3.045   2.482   5.331 -1.1449  0.2442 -0.0606
 2479TIP3   OH228851   2.239   6.160  13.478  0.0726 -0.0621  0.5110
 2479TIP3    H128852   2.235   6.191  13.568  0.0076 -0.7322  0.7407
 2479TIP3    H228853   2.172   6.092  13.473  0.0778 -0.0321 -0.0405
 2480TIP3   OH228854   2.141   4.753   5.165 -0.3371 -0.6597  0.1011
 2480TIP3    H128855   2.082   4.721   5.097 -1.0985  0.3577  0.2668
 2480TIP3    H228856   2.223   4.771   5.119 -0.6701 -0.5160 -0.4448
 2481TIP3   OH228857   5.108   2.951  16.994  0.3019  0.8737 -0.1647
 2481TIP3    H128858   5.066   2.868  17.018  1.0170  0.6821  0.4538
 2481TIP3    H228859   5.153   2.932  16.912  2.2030  0.0464  1.0370
 2482TIP3   OH228860   4.123   3.033  11.113  0.0270  0.5074  0.2465
 2482TIP3    H128861   4.028   3.034  11.101  0.3943  0.0443 -3.4491
 2482TIP3    H228862   4.145   2.940  11.124  0.0343  0.6598  1.6382
 2483TIP3   OH228863   1.526   5.295  13.273 -0.1768  0.3121  1.0360
 2483TIP3    H128864   1.539   5.377  13.321 -1.0397  0.8841  0.3165
 2483TIP3    H228865   1.614   5.270  13.244  0.0891  0.9836  1.2597
 2484TIP3   OH228866   5.263   2.829   1.683 -0.1951  0.7728 -0.0364
 2484TIP3    H128867   5.178   2.867   1.664 -0.1692  1.7502  1.6917
 2484TIP3    H228868   5.244   2.750   1.734 -0.0662  1.1933  0.6721
 2485TIP3   OH228869   3.058   3.124  13.428 -0.1420 -0.3644  0.5522
 2485TIP3    H128870   2.966   3.108  13.403 -0.4840  1.2631  0.7409
 2485TIP3    H228871   3.059   3.108  13.522 -0.7317  1.7660  0.9344
 2486TIP3   OH228872   1.160   6.622   0.076  0.0880 -0.2688 -0.9360
 2486TIP3    H128873   1.119   6.707   0.066  0.7848 -0.1946 -3.3078
 2486TIP3    H228874   1.252   6.641   0.095 -0.3353 -0.4741  1.4504
 2487TIP3   OH228875   4.404   5.333   4.244  0.0621 -1.1114  0.2892
 2487TIP3    H128876   4.395   5.249   4.199 -2.8505 -1.1039  0.7654
 2487TIP3    H228877   4.401   5.398   4.175  1.6104 -1.3566 -0.0183
 2488TIP3   OH228878   4.654   5.407   2.297 -0.2023  0.0170  0.7942
 2488TIP3    H128879   4.568   5.433   2.329 -0.6161  2.1822 -1.9287
 2488TIP3    H228880   4.715   5.468   2.339 -0.3526  0.5604  0.2246
 2489TIP3   OH228881   2.151   2.429   2.112 -0.2605 -0.7110  0.2169
 2489TIP3    H128882   2.078   2.394   2.163 -0.0595 -2.2389 -0.5087
 2489TIP3    H228883   2.181   2.355   2.059  1.8289 -0.1201  0.5229
 2490TIP3   OH228884   1.593   3.891   3.113 -0.1529  0.1223  0.0938
 2490TIP3    H128885   1.598   3.805   3.155 -0.9152 -0.0973 -0.2464
 2490TIP3    H228886   1.600   3.872   3.019  0.7725  0.5345  0.0757
 2491TIP3   OH228887   2.270   5.714  15.727 -0.4565  0.1488  0.7510
 2491TIP3    H128888   2.352   5.684  15.766  0.4978  2.5978  0.7134
 2491TIP3    H228889   2.269   5.809  15.742 -2.1806  0.5030 -1.2699
 2492TIP3   OH228890   3.863   4.964   6.081 -0.1843 -0.2285 -0.2420
 2492TIP3    H128891   3.769   4.981   6.086 -0.2429 -0.9731  1.9184
 2492TIP3    H228892   3.882   4.914   6.161  2.0644  0.0080 -0.6048
 2493TIP3   OH228893   4.097   1.092   3.063  0.2925  0.2881  0.0618
 2493TIP3    H128894   4.093   1.041   3.144  1.0125  0.6428  0.3215
 2493TIP3    H228895   4.167   1.155   3.077 -1.4835  2.2708  0.2708
 2494TIP3   OH228896   0.538   2.564   3.899 -0.0369 -0.4956 -0.0614
 2494TIP3    H128897   0.611   2.616   3.865  1.6311 -1.4134  2.0050
 2494TIP3    H228898   0.464   2.624   3.898  1.2946  1.2067 -0.0339
 2495TIP3   OH228899   3.846   5.668  10.960 -0.0714 -0.1363  0.1250
 2495TIP3    H128900   3.755   5.687  10.939 -0.2501 -1.5035 -0.4066
 2495TIP3    H228901   3.885   5.642  10.876  1.0715  1.3986  0.1531
 2496TIP3   OH228902   5.052   0.593   4.941 -0.0615  0.1589 -0.5274
 2496TIP3    H128903   4.992   0.664   4.960  0.1656  0.4592 -0.9302
 2496TIP3    H228904   4.996   0.517   4.925 -0.3355  0.4666 -1.0147
 2497TIP3   OH228905   1.826   2.442   5.332 -0.0932 -0.8549 -0.0584
 2497TIP3    H128906   1.745   2.404   5.365 -0.8555  1.3570  0.7104
 2497TIP3    H228907   1.874   2.469   5.411  1.4001 -2.1128 -0.5051
 2498TIP3   OH228908   4.926   6.004   2.649 -0.1174  0.0549  0.2161
 2498TIP3    H128909   4.895   6.075   2.593  3.5626  1.7374  0.1620
 2498TIP3    H228910   4.853   5.988   2.709 -1.8922  2.3099 -1.2289
 2499TIP3   OH228911   4.532   4.296  15.354 -0.0833  0.9479 -0.5684
 2499TIP3    H128912   4.441   4.285  15.328  0.1582  0.7077 -1.3008
 2499TIP3    H228913   4.568   4.358  15.290 -0.1090  2.1631  0.5601
 2500TIP3   OH228914   1.601   5.428  12.344  0.1400 -0.2794  0.0160
 2500TIP3    H128915   1.529   5.476  12.303 -1.5006 -1.0256  1.9315
 2500TIP3    H228916   1.610   5.349  12.291 -0.3745 -0.1346 -0.2923
 2501TIP3   OH228917   1.530   1.517  12.512  0.0424  0.2689 -0.2059
 2501TIP3    H128918   1.441   1.528  12.481 -0.4876 -3.1112 -0.1251
 2501TIP3    H228919   1.523   1.509  12.607  0.4998  0.6858 -0.1334
 2502TIP3   OH228920   0.497   0.252  11.249 -0.2047 -0.2958 -0.3285
 2502TIP3    H128921   0.531   0.184  11.306 -1.2330 -0.6928 -0.1778
 2502TIP3    H228922   0.404   0.230  11.238 -0.2695  0.4002 -1.2472
 2503TIP3   OH228923   5.211   2.799   3.672  0.1693  0.2619  0.1469
 2503TIP3    H128924   5.197   2.808   3.766  0.2538  0.0974  0.1749
 2503TIP3    H228925   5.291   2.748   3.665  0.5238  0.8411 -0.0124
 2504TIP3   OH228926   2.277   0.112   3.157 -0.1923  0.5231 -0.0379
 2504TIP3    H128927   2.343   0.141   3.220  1.9529  0.7722 -2.3394
 2504TIP3    H228928   2.238   0.193   3.125 -0.8941  0.4190  0.5417
 2505TIP3   OH228929   5.479   4.103  12.139 -0.2071 -0.2093 -0.1450
 2505TIP3    H128930   5.394   4.072  12.170 -0.9886  1.8317 -0.1672
 2505TIP3    H228931   5.459   4.155  12.061  0.9638  0.9440  0.2930
 2506TIP3   OH228932   1.263   1.414  15.519  1.0559 -0.0337 -0.6509
 2506TIP3    H128933   1.304   1.328  15.508  1.6978  0.1900 -0.0671
 2506TIP3    H228934   1.169   1.397  15.516  1.1616 -0.9202  0.5625
 2507TIP3   OH228935   4.443   5.178   3.611 -0.1905  0.1444 -0.4150
 2507TIP3    H128936   4.518   5.162   3.669 -0.5334  0.1893  0.0457
 2507TIP3    H228937   4.472   5.146   3.526  0.0752 -0.5632 -0.0673
 2508TIP3   OH228938   6.674   2.233   1.422 -0.4333  0.3860 -0.0240
 2508TIP3    H128939   6.592   2.258   1.378 -0.3855  1.3389  0.4197
 2508TIP3    H228940   6.700   2.312   1.470  1.3728  0.4724 -1.0949
 2509TIP3   OH228941   2.733   4.449   1.349  0.6180  0.1012  0.0734
 2509TIP3    H128942   2.695   4.363   1.370  0.7502  0.0583  0.1328
 2509TIP3    H228943   2.692   4.509   1.411 -0.9317  0.4161 -1.2175
 2510TIP3   OH228944   4.435   4.040  14.664 -0.3635  0.3048  0.1171
 2510TIP3    H128945   4.359   3.989  14.691 -1.7771  2.3705  0.1855
 2510TIP3    H228946   4.497   3.975  14.629 -1.3337 -1.6128  1.8853
 2511TIP3   OH228947   0.405   5.367   3.814  0.8015  0.4923 -0.1446
 2511TIP3    H128948   0.433   5.339   3.728  1.0024  0.9272 -0.2201
 2511TIP3    H228949   0.474   5.338   3.873  0.5376 -0.0410 -0.0908
 2512TIP3   OH228950   3.683   0.342  13.315  0.2683 -0.2068 -0.1481
 2512TIP3    H128951   3.685   0.395  13.235  0.7054 -0.3220 -0.2147
 2512TIP3    H228952   3.603   0.368  13.359 -0.4499 -0.8012 -1.0836
 2513TIP3   OH228953   0.266   6.551   4.623 -0.0643  0.4007  0.1515
 2513TIP3    H128954   0.210   6.600   4.562 -0.4591 -1.4775 -1.0433
 2513TIP3    H228955   0.217   6.471   4.641  2.1723 -1.2491 -0.8503
 2514TIP3   OH228956   4.886   6.210   0.521 -0.9447  0.1419  0.3327
 2514TIP3    H128957   4.887   6.272   0.594 -0.4390  0.1164  0.3486
 2514TIP3    H228958   4.958   6.238   0.465 -2.0275  0.8527 -0.7327
 2515TIP3   OH228959   5.138   6.011  11.888 -0.0333  0.0497  0.2565
 2515TIP3    H128960   5.135   6.068  11.811  0.8695 -3.1172 -2.2532
 2515TIP3    H228961   5.231   6.008  11.913 -0.4178  1.6097  1.9183
 2516TIP3   OH228962   4.110   3.591  14.935  0.0289 -0.5468  0.3670
 2516TIP3    H128963   4.029   3.542  14.951 -0.4507  0.4480  1.0216
 2516TIP3    H228964   4.095   3.636  14.852 -0.4062  0.2650  0.8779
 2517TIP3   OH228965   6.657   2.726  17.040 -0.1860 -0.1491  0.1615
 2517TIP3    H128966   6.669   2.756  17.129 -0.6842 -0.0441  0.1937
 2517TIP3    H228967   6.695   2.794  16.985 -1.1972  0.4816  0.2369
 2518TIP3   OH228968   4.734   3.554  16.161  0.0490 -0.0762  0.5671
 2518TIP3    H128969   4.724   3.512  16.247  0.4860 -0.8915  0.2246
 2518TIP3    H228970   4.828   3.556  16.147 -0.0633 -0.7178 -0.2768
 2519TIP3   OH228971   6.273   3.238  14.050 -0.1695  0.0135 -0.4703
 2519TIP3    H128972   6.302   3.251  14.140  0.9954 -0.5177 -0.7634
 2519TIP3    H228973   6.344   3.190  14.008  0.0974  1.8734 -2.1946
 2520TIP3   OH228974   1.976   2.664   3.865 -0.0606  0.1060 -0.2651
 2520TIP3    H128975   1.913   2.736   3.861 -0.7139 -0.4207  0.3252
 2520TIP3    H228976   1.945   2.609   3.937  1.4940  0.2097  0.4944
 2521TIP3   OH228977   4.705   5.840  12.844 -0.0569  0.1329 -0.2850
 2521TIP3    H128978   4.676   5.908  12.904 -1.3427  1.0158 -1.8519
 2521TIP3    H228979   4.646   5.766  12.861 -0.4048  0.3760 -0.4335
 2522TIP3   OH228980   0.009   3.159  16.347  0.0392  0.2575  0.1704
 2522TIP3    H128981  -0.060   3.099  16.375 -0.6038  0.5744 -0.7090
 2522TIP3    H228982   0.046   3.118  16.268  1.1186 -0.1022  0.8462
 2523TIP3   OH228983   0.893   5.393  16.140 -0.4018  0.5089 -0.4648
 2523TIP3    H128984   0.965   5.341  16.104  0.5218  1.2588  0.2642
 2523TIP3    H228985   0.818   5.334  16.141  0.0756 -0.1354 -1.7014
 2524TIP3   OH228986   0.938   2.404  10.942 -0.1502  0.1323  0.5924
 2524TIP3    H128987   0.956   2.489  10.903  0.4796 -1.1147 -1.9516
 2524TIP3    H228988   1.018   2.353  10.927 -1.4438 -1.7204 -0.2857
 2525TIP3   OH228989   4.458   3.909  13.704 -0.3418 -0.5757 -0.0885
 2525TIP3    H128990   4.469   3.999  13.673  1.0024 -0.0305  1.8908
 2525TIP3    H228991   4.536   3.863  13.671 -0.5051 -0.7757 -0.2019
 2526TIP3   OH228992   4.727   3.477  11.583 -0.8315 -0.1834  0.2323
 2526TIP3    H128993   4.721   3.526  11.501 -1.4275  1.6632  1.3615
 2526TIP3    H228994   4.636   3.457  11.606 -0.9789  2.8959  2.5455
 2527TIP3   OH228995   2.012   3.194   6.373  0.1943 -0.4568  0.2620
 2527TIP3    H128996   2.046   3.106   6.389  0.4730 -0.8773 -2.4079
 2527TIP3    H228997   2.087   3.252   6.387  0.5074 -0.8334  0.1405
 2528TIP3   OH228998   4.161   3.555  16.367  0.1936 -0.2472  0.0234
 2528TIP3    H128999   4.124   3.537  16.281  0.6092  0.2009 -0.2534
 2528TIP3    H229000   4.177   3.650  16.366 -0.9479 -0.0381  1.0337
 2529TIP3   OH229001   6.740   3.632  13.828 -0.1099  0.3789  0.0972
 2529TIP3    H129002   6.647   3.609  13.827  0.0276 -0.2350  0.5707
 2529TIP3    H229003   6.742   3.727  13.832 -0.7268  0.3781  0.4630
 2530TIP3   OH229004   0.276   4.559  15.034  0.2149 -0.1109  0.2792
 2530TIP3    H129005   0.366   4.583  15.054  0.0175  1.5380 -0.6556
 2530TIP3    H229006   0.223   4.615  15.091 -0.2404  1.1137 -1.2823
 2531TIP3   OH229007   5.515   5.889  12.976 -0.4975  0.4671  0.7792
 2531TIP3    H129008   5.568   5.927  13.046  0.6895  0.0143  0.1495
 2531TIP3    H229009   5.517   5.955  12.906  1.0443 -0.4458 -0.0723
 2532TIP3   OH229010   2.210   2.334  16.380 -0.2444 -0.2036  0.0286
 2532TIP3    H129011   2.139   2.315  16.442 -0.5419 -0.6946 -0.4587
 2532TIP3    H229012   2.222   2.253  16.332  0.0458  0.1490 -0.5021
 2533TIP3   OH229013   6.210   1.686  16.239  0.2171 -0.3300  0.5102
 2533TIP3    H129014   6.305   1.688  16.246  0.3038  1.9842 -1.1142
 2533TIP3    H229015   6.179   1.696  16.330  1.4912  1.3280  0.7747
 2534TIP3   OH229016   5.783   0.232   5.172 -0.0256  0.7365  0.5769
 2534TIP3    H129017   5.823   0.318   5.185 -1.4653  1.3025  1.2756
 2534TIP3    H229018   5.706   0.231   5.229 -1.2161 -0.2156 -1.0051
 2535TIP3   OH229019   1.942   4.189  13.807 -0.6341  0.0920 -0.3073
 2535TIP3    H129020   1.940   4.259  13.741 -2.2423 -1.3573 -1.8472
 2535TIP3    H229021   1.850   4.174  13.830 -0.1789 -0.2953  1.3431
 2536TIP3   OH229022   2.096   1.235   5.795 -0.3506 -0.2318  0.2275
 2536TIP3    H129023   2.012   1.190   5.780 -0.4711  0.0324  0.1044
 2536TIP3    H229024   2.072   1.326   5.808 -0.2039 -0.3831  1.5875
 2537TIP3   OH229025   2.963   1.406  16.388 -0.5664  0.1223  0.0349
 2537TIP3    H129026   2.898   1.435  16.452  0.6297  1.6216  0.6082
 2537TIP3    H229027   2.915   1.402  16.306 -1.9344 -1.0649  0.8745
 2538TIP3   OH229028   6.551   5.913  13.311  0.3816 -0.0758  0.2649
 2538TIP3    H129029   6.463   5.948  13.323  0.2568 -0.7764  1.4932
 2538TIP3    H229030   6.609   5.979  13.349  0.3049 -0.1468  0.5042
 2539TIP3   OH229031   0.792   0.297  11.174 -0.0007 -0.5646  0.3556
 2539TIP3    H129032   0.851   0.354  11.224  0.2756 -0.8856  0.3925
 2539TIP3    H229033   0.757   0.236  11.239 -2.2744  1.1650  0.8224
 2540TIP3   OH229034   3.915   2.330  16.433 -0.6342 -0.3438  0.2982
 2540TIP3    H129035   3.966   2.333  16.352  0.9922 -0.7783  1.2947
 2540TIP3    H229036   3.929   2.241  16.467 -0.3876  0.1940  1.6389
 2541TIP3   OH229037   1.526   5.776   6.430  0.0462  0.1548 -0.7537
 2541TIP3    H129038   1.589   5.844   6.406  0.1968 -0.6653 -2.8732
 2541TIP3    H229039   1.441   5.814   6.411  0.0016  0.5277  0.1644
 2542TIP3   OH229040   2.687   5.804  11.456  0.2351 -0.2395 -0.0737
 2542TIP3    H129041   2.691   5.759  11.372 -1.5493  0.7276 -0.7059
 2542TIP3    H229042   2.601   5.845  11.458  1.8950  3.5274  0.2314
 2543TIP3   OH229043   0.034   0.533  11.391  0.0971 -0.5329 -0.0033
 2543TIP3    H129044  -0.008   0.608  11.348  0.8502 -1.0353 -1.6551
 2543TIP3    H229045  -0.027   0.509  11.461 -1.1801  0.2943 -0.7905
 2544TIP3   OH229046   3.005   1.392  14.004  0.7950  0.0421  0.4603
 2544TIP3    H129047   3.021   1.359  13.916 -0.6465  0.7785 -0.0785
 2544TIP3    H229048   3.058   1.334  14.061 -0.2553 -2.0315 -0.6229
 2545TIP3   OH229049   4.380   0.371  16.794  0.7378 -0.3334  0.4727
 2545TIP3    H129050   4.331   0.452  16.782 -1.2887 -1.0201  3.4431
 2545TIP3    H229051   4.447   0.393  16.859  1.0843 -0.6739  0.2336
 2546TIP3   OH229052   1.245   4.543  14.889 -0.2610 -0.2468 -0.2600
 2546TIP3    H129053   1.193   4.476  14.933 -1.3879 -0.0527 -1.2712
 2546TIP3    H229054   1.217   4.538  14.798 -0.3704  1.6070 -0.3390
 2547TIP3   OH229055   4.103   0.075  13.693  0.0948 -0.1303  0.4949
 2547TIP3    H129056   4.143   0.071  13.606 -0.8223 -1.3188  0.1047
 2547TIP3    H229057   4.143   0.002  13.741 -1.3988 -1.1768  0.1783
 2548TIP3   OH229058   0.075   0.607   1.552 -0.3186  0.5776  0.1613
 2548TIP3    H129059   0.098   0.518   1.579 -0.4116  0.8265  1.0904
 2548TIP3    H229060  -0.020   0.611   1.565 -0.1232  1.2428  1.4293
 2549TIP3   OH229061   5.070   3.685   0.616  0.0291  0.3851 -0.3538
 2549TIP3    H129062   5.068   3.698   0.522 -0.8245  1.4944 -0.1992
 2549TIP3    H229063   5.066   3.590   0.628  2.3539  0.1245 -1.4570
 2550TIP3   OH229064   6.034   6.525  13.768 -0.1975  0.3093  0.5265
 2550TIP3    H129065   6.014   6.540  13.860  0.1763  1.4477  0.4259
 2550TIP3    H229066   6.128   6.540  13.761 -0.2404  0.3304 -0.0597
 2551TIP3   OH229067   2.766   2.524   2.580  0.1726 -0.9481 -0.0011
 2551TIP3    H129068   2.803   2.559   2.499  0.0715 -0.7283  0.0480
 2551TIP3    H229069   2.803   2.579   2.649  0.4029 -1.2488  0.1199
 2552TIP3   OH229070   3.016   5.811  13.902 -0.0083  0.4851  0.1313
 2552TIP3    H129071   2.950   5.781  13.964 -1.4345 -0.7139 -1.9082
 2552TIP3    H229072   3.099   5.788  13.944 -0.9251 -0.1071  1.6813
 2553TIP3   OH229073   2.320   2.644  16.267  0.0333  0.1440 -0.0165
 2553TIP3    H129074   2.349   2.724  16.223  1.4305 -0.7631 -0.7454
 2553TIP3    H229075   2.273   2.675  16.344 -0.2332  1.6928 -0.7867
 2554TIP3   OH229076   3.238   3.851   1.689  0.1367  0.2500 -0.8575
 2554TIP3    H129077   3.331   3.855   1.667  0.5459 -0.5326  0.6560
 2554TIP3    H229078   3.194   3.846   1.605  1.5642 -0.9853 -1.5479
 2555TIP3   OH229079   6.319   1.754  15.837  0.3607  0.1252 -0.1041
 2555TIP3    H129080   6.343   1.836  15.881  1.1462 -0.4620  0.5770
 2555TIP3    H229081   6.403   1.715  15.813 -0.0355 -0.1419 -1.0567
 2556TIP3   OH229082   5.795   6.654   3.514 -0.6399  0.4255  0.1637
 2556TIP3    H129083   5.827   6.564   3.505 -0.6467  0.3555  0.8361
 2556TIP3    H229084   5.870   6.702   3.550 -0.6808  0.6636 -0.0643
 2557TIP3   OH229085   5.838   6.533   0.699  0.5175 -0.1555  0.0784
 2557TIP3    H129086   5.932   6.519   0.685  0.5366  0.4792 -0.4253
 2557TIP3    H229087   5.830   6.628   0.709  0.2197 -0.3800  2.1901
 2558TIP3   OH229088   1.239   2.400  12.627  0.3330 -0.0151 -1.0546
 2558TIP3    H129089   1.188   2.340  12.683 -0.5156 -0.6958 -2.5133
 2558TIP3    H229090   1.309   2.345  12.592  0.8118  0.3879 -0.7300
 2559TIP3   OH229091   1.165   5.256  12.958  0.2858 -0.3174  0.1600
 2559TIP3    H129092   1.147   5.333  12.905 -1.1478 -0.2879  0.6720
 2559TIP3    H229093   1.226   5.288  13.025  0.0560  0.2652  0.0994
 2560TIP3   OH229094   6.062   6.708  15.931  0.1012 -0.0757  0.4941
 2560TIP3    H129095   6.076   6.760  15.852  1.3123 -0.4441  0.4698
 2560TIP3    H229096   6.088   6.766  16.003  1.8098 -0.7536  0.4453
 2561TIP3   OH229097   2.024   5.975  12.404  0.2754 -0.4546  0.0401
 2561TIP3    H129098   2.013   6.047  12.342 -1.1089 -1.1441 -0.5442
 2561TIP3    H229099   2.038   5.898  12.348 -2.2289 -1.3005  0.4768
 2562TIP3   OH229100   4.219   6.225   3.687 -0.0928 -0.5748 -0.4255
 2562TIP3    H129101   4.310   6.225   3.657 -0.4147 -2.5534 -1.4683
 2562TIP3    H229102   4.170   6.262   3.614 -0.1619  0.2256  0.0262
 2563TIP3   OH229103   4.554   5.105   4.471  0.0546  0.0335 -0.4120
 2563TIP3    H129104   4.582   5.158   4.396 -0.5942 -0.3783 -0.9502
 2563TIP3    H229105   4.463   5.131   4.487  0.3689  0.5491  0.6184
 2564TIP3   OH229106   4.084   5.062   4.085  0.5912 -0.7884  0.0590
 2564TIP3    H129107   4.019   5.007   4.043 -1.6702  2.1907 -0.4767
 2564TIP3    H229108   4.034   5.124   4.138  3.1627 -1.0167  2.9626
 2565TIP3   OH229109   0.579   1.899  16.597  0.0430 -0.2026 -0.5341
 2565TIP3    H129110   0.532   1.961  16.653  1.0548  1.4856 -1.5199
 2565TIP3    H229111   0.513   1.833  16.574 -1.5527  1.5008 -0.9599
 2566TIP3   OH229112   1.124   5.243   6.101  0.0662 -0.6494 -0.0431
 2566TIP3    H129113   1.094   5.162   6.059  2.4224 -1.3601 -0.4466
 2566TIP3    H229114   1.211   5.258   6.064  0.0885  1.5110  0.8160
 2567TIP3   OH229115   1.340   5.560  16.088 -0.1263 -0.0851 -0.9315
 2567TIP3    H129116   1.398   5.619  16.040 -1.0521  1.7254  0.0999
 2567TIP3    H229117   1.359   5.577  16.180 -0.5570 -1.2603 -0.6126
 2568TIP3   OH229118   3.972   0.689  13.710 -0.6355 -0.8472 -0.0934
 2568TIP3    H129119   3.905   0.627  13.682  0.3810 -1.3987 -1.3187
 2568TIP3    H229120   3.973   0.681  13.806 -0.4334 -2.8186 -0.2448
 2569TIP3   OH229121   4.751   1.018  14.204  0.0257 -0.4444  0.2278
 2569TIP3    H129122   4.781   0.968  14.279 -0.7050 -1.8120 -0.3640
 2569TIP3    H229123   4.713   1.097  14.241  0.9045 -0.4729  1.1998
 2570TIP3   OH229124   6.150   3.230   5.319  0.2041  0.1084  0.1600
 2570TIP3    H129125   6.141   3.319   5.351  0.4928  0.4292 -0.6250
 2570TIP3    H229126   6.144   3.175   5.397 -1.5913  0.7117  0.4808
 2571TIP3   OH229127   0.862   4.311  16.816 -0.0674 -0.3263  0.3554
 2571TIP3    H129128   0.931   4.342  16.875 -0.2591  0.2484  0.2793
 2571TIP3    H229129   0.796   4.273  16.874 -0.3656  0.4537  0.5301
 2572TIP3   OH229130   3.072   4.457   5.669  0.0397  0.8223  0.2093
 2572TIP3    H129131   3.086   4.402   5.593  1.5493  0.0139  1.0556
 2572TIP3    H229132   2.997   4.418   5.714  0.2604  0.2555  0.0819
 2573TIP3   OH229133   5.730   5.269  11.787  0.6044 -0.7530 -0.1761
 2573TIP3    H129134   5.743   5.352  11.833 -2.4440 -1.2367  1.7263
 2573TIP3    H229135   5.796   5.211  11.825  0.0706 -0.3113  1.4901
 2574TIP3   OH229136   0.365   5.775   2.532  0.3704 -0.1777  0.3723
 2574TIP3    H129137   0.347   5.869   2.533  2.1309  0.2059 -1.4678
 2574TIP3    H229138   0.301   5.737   2.593 -0.8818  2.1031  0.4974
 2575TIP3   OH229139   6.210   4.601  14.646 -0.4599 -0.1592  0.5990
 2575TIP3    H129140   6.258   4.607  14.564  0.2044  1.5654  1.0911
 2575TIP3    H229141   6.150   4.676  14.645 -0.2315  0.0599  1.7991
 2576TIP3   OH229142   6.611   4.315  10.870 -0.2951 -0.4183  0.1377
 2576TIP3    H129143   6.576   4.241  10.821 -0.0032  0.3333 -1.2194
 2576TIP3    H229144   6.582   4.392  10.822 -0.1796  0.3406  1.2574
 2577TIP3   OH229145   6.212   0.610   3.243  0.2817 -0.1090  0.1450
 2577TIP3    H129146   6.239   0.562   3.164 -0.3020  1.0800 -0.7894
 2577TIP3    H229147   6.252   0.561   3.315  0.1643 -1.6679 -0.8278
 2578TIP3   OH229148   0.980   5.929  11.979  0.1201  0.3001 -0.3087
 2578TIP3    H129149   0.938   5.993  11.921  0.4075  0.8337  0.0656
 2578TIP3    H229150   0.985   5.974  12.063 -1.9333 -1.1006  0.6224
 2579TIP3   OH229151   1.647   5.148  13.640  0.3389  0.0646  0.3171
 2579TIP3    H129152   1.639   5.086  13.713 -3.8190 -0.1052 -0.1723
 2579TIP3    H229153   1.677   5.229  13.681 -0.7690 -0.3625  2.0258
 2580TIP3   OH229154   1.015   5.449  13.665  0.3218 -0.0644 -0.0426
 2580TIP3    H129155   0.975   5.418  13.746 -0.2644 -1.2357 -0.7762
 2580TIP3    H229156   1.057   5.532  13.690 -2.2785  1.0513  0.8071
 2581TIP3   OH229157   5.585   3.608  16.212  0.4144  0.4786  0.7591
 2581TIP3    H129158   5.607   3.673  16.279 -0.1376  0.7554  0.6732
 2581TIP3    H229159   5.518   3.553  16.253  2.1174 -1.1085  1.4585
 2582TIP3   OH229160   5.656   5.265  17.139  0.2031  0.5233  0.0298
 2582TIP3    H129161   5.670   5.334  17.075 -1.3200  0.6593 -0.1818
 2582TIP3    H229162   5.565   5.238  17.125  0.2688 -0.3547  1.2404
 2583TIP3   OH229163   1.357   0.749  14.760  0.2262  0.4528  0.0753
 2583TIP3    H129164   1.395   0.665  14.784  0.2193  0.2463 -0.6136
 2583TIP3    H229165   1.325   0.786  14.842  0.5730 -0.0458  0.4365
 2584TIP3   OH229166   1.634   2.638  14.226  0.2076  0.3388 -0.2125
 2584TIP3    H129167   1.698   2.623  14.156  1.4710  0.4138  0.8974
 2584TIP3    H229168   1.672   2.709  14.278 -0.6372  0.1793  0.6349
 2585TIP3   OH229169   6.134   2.156   4.985  0.1368  0.2096 -0.0198
 2585TIP3    H129170   6.058   2.151   5.044  0.8225  1.5231  1.0125
 2585TIP3    H229171   6.126   2.243   4.944  0.7181  0.0732 -0.4227
 2586TIP3   OH229172   0.391   2.666   2.428 -0.5477 -0.4860  0.2917
 2586TIP3    H129173   0.483   2.648   2.444  0.2047  1.8890 -1.0718
 2586TIP3    H229174   0.373   2.625   2.343 -0.7000 -0.7170  0.4325
 2587TIP3   OH229175   0.423   4.880  13.731 -0.0798 -0.1562  0.1053
 2587TIP3    H129176   0.388   4.969  13.732 -2.0110 -0.8448 -1.6751
 2587TIP3    H229177   0.513   4.889  13.761  0.2085  2.6258 -1.4023
 2588TIP3   OH229178   6.360   1.910   1.443 -0.3295 -0.1361 -0.2241
 2588TIP3    H129179   6.399   1.962   1.513  0.5977  0.3136 -1.0670
 2588TIP3    H229180   6.276   1.953   1.424 -0.2874  0.1133  0.1635
 2589TIP3   OH229181   1.274   4.268   4.225  0.5309 -0.3235  0.1405
 2589TIP3    H129182   1.320   4.283   4.308  0.1647 -0.8048  0.4313
 2589TIP3    H229183   1.340   4.228   4.168  0.6949 -0.2790  0.3003
 2590TIP3   OH229184   1.024   2.917   4.726  0.0273 -0.2857  0.1798
 2590TIP3    H129185   1.030   2.916   4.822  0.2909 -0.9363  0.1567
 2590TIP3    H229186   1.017   2.825   4.701  0.5607 -0.1579 -0.4604
 2591TIP3   OH229187   0.967   2.278   0.139  0.1577 -0.2966  0.1950
 2591TIP3    H129188   0.904   2.259   0.069 -0.3809  0.7051  0.3871
 2591TIP3    H229189   0.936   2.361   0.177 -0.2062 -1.3964  2.3593
 2592TIP3   OH229190   1.983   6.137   0.692  0.0797  0.8691  0.9274
 2592TIP3    H129191   1.989   6.043   0.707 -1.6250  0.7405  0.8471
 2592TIP3    H229192   1.955   6.172   0.777  2.1837  1.5019  1.4094
 2593TIP3   OH229193   2.496   5.701   4.770 -0.2312 -0.6249  0.1832
 2593TIP3    H129194   2.508   5.608   4.754 -1.6810 -0.9651  0.9791
 2593TIP3    H229195   2.500   5.710   4.866 -1.6325 -0.1074  0.2063
 2594TIP3   OH229196   1.487   6.203   5.291  0.4760  0.0764 -0.1777
 2594TIP3    H129197   1.561   6.264   5.294  1.0309 -0.6319  0.7269
 2594TIP3    H229198   1.524   6.122   5.256 -0.2845  0.2667 -1.4850
 2595TIP3   OH229199   4.540   2.730  16.254 -0.6807 -0.3839 -0.2402
 2595TIP3    H129200   4.453   2.688  16.253 -1.6124  1.4244  1.0987
 2595TIP3    H229201   4.553   2.756  16.346  0.8436  0.2393 -0.6184
 2596TIP3   OH229202   6.253   1.308   5.019  0.4488 -0.8927 -0.3338
 2596TIP3    H129203   6.269   1.379   4.956  1.3522 -0.0118  0.8655
 2596TIP3    H229204   6.282   1.229   4.974 -0.3159 -0.4705 -1.5899
 2597TIP3   OH229205   2.200   0.234  13.255 -0.0744 -0.6090 -0.1976
 2597TIP3    H129206   2.215   0.310  13.199  0.1675 -0.3947  0.1522
 2597TIP3    H229207   2.192   0.271  13.343  1.0519 -1.0751  0.1155
 2598TIP3   OH229208   2.113   1.106  10.985 -0.7005  0.1415  0.3526
 2598TIP3    H129209   2.148   1.047  10.919 -0.2534 -1.3314  1.8757
 2598TIP3    H229210   2.019   1.109  10.967 -0.5966 -0.3555 -0.2762
 2599TIP3   OH229211   1.851   2.473  13.473 -0.4719  0.8300 -0.4037
 2599TIP3    H129212   1.870   2.530  13.547  0.5054  0.2512 -0.2000
 2599TIP3    H229213   1.937   2.450  13.437 -0.9376  1.1250 -1.7293
 2600TIP3   OH229214   3.083   5.498  12.730  0.5142 -0.4102 -0.8242
 2600TIP3    H129215   2.993   5.481  12.703 -0.0630  0.4974  0.4848
 2600TIP3    H229216   3.115   5.562  12.666 -0.9904  2.0876  0.8443
 2601TIP3   OH229217   2.748   0.466   5.196 -0.0367 -0.1026  0.4335
 2601TIP3    H129218   2.788   0.416   5.268 -0.5969  0.5041  1.1723
 2601TIP3    H229219   2.736   0.402   5.126 -0.9749 -1.0683  1.4556
 2602TIP3   OH229220   0.106   5.693  14.131 -0.1125  0.7350 -0.2725
 2602TIP3    H129221   0.043   5.632  14.168  0.1516  1.1124  0.8137
 2602TIP3    H229222   0.177   5.637  14.099 -0.0437  0.4405  0.3821
 2603TIP3   OH229223   3.704   5.551   5.575 -0.0628  0.0416  0.0004
 2603TIP3    H129224   3.775   5.497   5.609 -0.9296 -1.0353  0.1522
 2603TIP3    H229225   3.747   5.618   5.522  1.1194  0.0651  0.9719
 2604TIP3   OH229226   4.124   3.292  16.844  0.2979 -0.2951 -0.4887
 2604TIP3    H129227   4.044   3.251  16.812  0.3550 -0.5587 -0.2950
 2604TIP3    H229228   4.150   3.239  16.919  0.8807 -0.4598 -0.8034
 2605TIP3   OH229229   2.747   1.976  12.653  0.0035  0.2688  0.3384
 2605TIP3    H129230   2.697   1.903  12.617  0.8154  0.1946 -0.6933
 2605TIP3    H229231   2.784   1.943  12.734  1.4128 -0.9066 -0.7584
 2606TIP3   OH229232   4.353   0.799   1.700 -0.2916  0.1567  0.0221
 2606TIP3    H129233   4.261   0.812   1.726  0.5096  0.4902  2.8209
 2606TIP3    H229234   4.391   0.887   1.700  0.0960  0.0035 -1.0303
 2607TIP3   OH229235   4.943   0.331  11.349  0.2370  0.1017  0.0423
 2607TIP3    H129236   4.892   0.359  11.425  0.7586 -1.1016  0.8608
 2607TIP3    H229237   4.964   0.239  11.367  2.1018  0.3782 -0.5834
 2608TIP3   OH229238   3.989   1.214  16.597 -0.3513  0.0766  0.4863
 2608TIP3    H129239   4.073   1.187  16.635 -0.0044  2.1598  1.2618
 2608TIP3    H229240   4.012   1.255  16.514 -0.7950 -1.1500 -0.2543
 2609TIP3   OH229241   1.279   3.236   0.240 -0.6152  0.4611  0.1380
 2609TIP3    H129242   1.274   3.145   0.266  0.5329 -0.1325 -1.6236
 2609TIP3    H229243   1.206   3.279   0.286 -0.2533 -1.0190  2.1399
 2610TIP3   OH229244   3.022   1.553   1.855 -0.3078 -0.0760 -0.1044
 2610TIP3    H129245   2.996   1.468   1.890  1.2312 -0.2408  0.6566
 2610TIP3    H229246   2.998   1.550   1.763 -0.5518 -1.2034 -0.0056
 2611TIP3   OH229247   0.295   5.406   6.281  0.2804 -0.2506 -0.2785
 2611TIP3    H129248   0.344   5.325   6.267  0.7593  0.1316 -0.8316
 2611TIP3    H229249   0.346   5.473   6.236 -0.5710  0.2126 -0.5562
 2612TIP3   OH229250   2.631   0.782  11.994  0.0457  0.0711 -0.4382
 2612TIP3    H129251   2.592   0.831  12.067  2.6871  2.1421 -0.3523
 2612TIP3    H229252   2.601   0.827  11.915  1.0104  0.7588 -0.4239
 2613TIP3   OH229253   5.289   2.734  16.606  0.2808 -0.0591 -0.3866
 2613TIP3    H129254   5.247   2.681  16.538  2.2533 -0.4288 -1.3307
 2613TIP3    H229255   5.218   2.790  16.639 -1.1324 -1.1982 -1.4285
 2614TIP3   OH229256   2.228   1.567   3.762  0.4455  0.0230  0.2106
 2614TIP3    H129257   2.145   1.570   3.809  0.5197 -0.8614  0.4142
 2614TIP3    H229258   2.268   1.652   3.777 -0.1688  0.2471  0.5842
 2615TIP3   OH229259   4.537   0.467   2.454 -0.0498  0.6297 -0.1879
 2615TIP3    H129260   4.564   0.377   2.435  0.1955  0.5058  0.6833
 2615TIP3    H229261   4.442   0.462   2.464  0.0007  0.4004  0.1944
 2616TIP3   OH229262   3.670   0.093   2.245 -0.5878  0.2475 -0.0979
 2616TIP3    H129263   3.670  -0.002   2.260  1.0639  0.1497 -0.5698
 2616TIP3    H229264   3.601   0.107   2.180 -0.2207 -0.7506 -0.7186
 2617TIP3   OH229265   0.056   1.933  13.110 -0.6331 -0.8373 -0.4841
 2617TIP3    H129266   0.087   1.905  13.196 -0.4685 -2.6627 -1.1201
 2617TIP3    H229267  -0.011   2.000  13.129 -0.2795 -0.9086  1.0344
 2618TIP3   OH229268   2.916   1.180  10.669  0.6231  0.2699 -0.0678
 2618TIP3    H129269   2.947   1.270  10.658  0.3246  0.2213 -1.2745
 2618TIP3    H229270   2.857   1.165  10.596  0.5009 -0.8389  0.2478
 2619TIP3   OH229271   4.278   1.724  15.265 -0.2394  0.1652 -0.1463
 2619TIP3    H129272   4.331   1.803  15.258 -0.1304  0.1895  0.8923
 2619TIP3    H229273   4.332   1.663  15.315 -0.2825 -0.6076 -1.0251
 2620TIP3   OH229274   3.039   1.963   6.230 -0.3837 -0.4141  0.0757
 2620TIP3    H129275   2.977   1.910   6.180  0.1617 -1.9476  1.0030
 2620TIP3    H229276   2.986   2.004   6.299 -0.6289 -0.4912 -0.0659
 2621TIP3   OH229277   1.879   5.518  12.325  0.6484 -0.6768 -0.0872
 2621TIP3    H129278   1.797   5.479  12.356  0.4195 -1.0157 -1.1269
 2621TIP3    H229279   1.884   5.495  12.232  0.8567  1.1817 -0.5524
 2622TIP3   OH229280   0.567   6.336  14.467  0.4716 -0.4551 -0.7960
 2622TIP3    H129281   0.530   6.337  14.555 -0.0643 -0.3066 -1.0242
 2622TIP3    H229282   0.588   6.428  14.448  2.2345 -0.7083 -0.1273
 2623TIP3   OH229283   2.621   2.385   0.246 -0.2677 -0.3080 -0.6003
 2623TIP3    H129284   2.671   2.379   0.328 -0.6544 -0.2433 -0.3589
 2623TIP3    H229285   2.609   2.479   0.233 -0.0905 -0.3139 -0.8019
 2624TIP3   OH229286   5.580   5.441   3.477 -0.1222  0.0546 -0.1858
 2624TIP3    H129287   5.530   5.521   3.466 -1.0100 -0.6187 -1.1686
 2624TIP3    H229288   5.520   5.371   3.452  1.0362 -0.8268 -0.6080
 2625TIP3   OH229289   6.517   1.016   2.835  0.2604 -0.0300  0.1593
 2625TIP3    H129290   6.512   0.929   2.874  0.1381  0.0042  0.2205
 2625TIP3    H229291   6.581   1.008   2.765  0.0675 -0.2310  0.0071
 2626TIP3   OH229292   4.268   1.148   4.179 -0.6649 -0.4450 -0.1823
 2626TIP3    H129293   4.358   1.148   4.213 -0.2542  0.9893 -1.2170
 2626TIP3    H229294   4.243   1.056   4.178  1.2061 -0.9687 -0.9775
 2627TIP3   OH229295   0.939   2.674  14.139  0.1706 -0.0640 -0.1785
 2627TIP3    H129296   0.977   2.705  14.056  3.0177 -0.2118  1.0170
 2627TIP3    H229297   0.974   2.734  14.205 -2.8070  0.6095  0.8337
 2628TIP3   OH229298   3.491   1.818  16.938  0.4926  0.3653 -0.4767
 2628TIP3    H129299   3.476   1.765  16.859 -1.0167  0.8686 -0.5279
 2628TIP3    H229300   3.530   1.756  17.000  2.1474  0.0720 -1.7587
 2629TIP3   OH229301   2.928   1.658  12.980  0.4361  0.0750  0.2602
 2629TIP3    H129302   2.921   1.653  13.075 -1.2575  1.8412  0.2579
 2629TIP3    H229303   2.838   1.662  12.949  0.9844  0.3482 -1.3702
 2630TIP3   OH229304   5.551   0.110  13.532 -0.1596 -0.0333 -0.5830
 2630TIP3    H129305   5.597   0.169  13.472  0.4783 -0.7271 -0.7765
 2630TIP3    H229306   5.505   0.049  13.474 -0.7887  0.2523 -0.3818
 2631TIP3   OH229307   6.407   6.566   5.918  0.6491  0.8940  0.4187
 2631TIP3    H129308   6.442   6.530   6.000  1.4823 -1.1131 -0.7666
 2631TIP3    H229309   6.475   6.624   5.886 -0.1904  2.6449  1.7412
 2632TIP3   OH229310   4.373   3.456  13.533  0.9110 -0.1291 -0.2603
 2632TIP3    H129311   4.411   3.384  13.583 -1.2454 -1.0050  0.1730
 2632TIP3    H229312   4.409   3.535  13.573  2.9535 -0.9353 -0.4619
 2633TIP3   OH229313   4.794   3.503  15.682 -0.2855  0.5865  0.1757
 2633TIP3    H129314   4.720   3.541  15.729 -1.3935 -2.8446  1.3927
 2633TIP3    H229315   4.756   3.466  15.603  0.2162 -0.5959  0.4764
 2634TIP3   OH229316   3.696   5.404   4.284  0.6983  0.5455  0.2002
 2634TIP3    H129317   3.705   5.499   4.277  0.0862  0.7754  2.1994
 2634TIP3    H229318   3.690   5.387   4.378  0.9313 -1.4890 -0.1255
 2635TIP3   OH229319   2.561   0.157  14.446  0.6697  0.0999 -0.0488
 2635TIP3    H129320   2.572   0.094  14.517 -0.5107  1.0648  1.0044
 2635TIP3    H229321   2.596   0.239  14.479  2.4079 -0.0178 -1.5063
 2636TIP3   OH229322   1.993   1.541   5.069  0.2898 -0.0109 -0.0336
 2636TIP3    H129323   1.903   1.528   5.037  0.6582 -1.1130 -0.6368
 2636TIP3    H229324   2.000   1.485   5.146 -0.1779  1.6480  1.2552
 2637TIP3   OH229325   0.339   6.572  16.013  0.7151  0.0768 -0.4832
 2637TIP3    H129326   0.341   6.537  15.924  1.2775 -2.2474  0.4164
 2637TIP3    H229327   0.371   6.500  16.068 -1.8396  0.6769  1.8689
 2638TIP3   OH229328   0.258   3.212   4.479 -0.5924 -0.2755 -0.1705
 2638TIP3    H129329   0.211   3.251   4.405  0.0395 -0.9269 -0.9259
 2638TIP3    H229330   0.350   3.213   4.452 -0.1675  0.8865  1.2522
 2639TIP3   OH229331   3.997   2.281   1.355  0.2031  0.1787 -0.1828
 2639TIP3    H129332   3.977   2.329   1.274 -0.4616  0.2351  0.0135
 2639TIP3    H229333   4.024   2.349   1.417 -4.6728  0.9003  1.3929
 2640TIP3   OH229334   3.119   3.058  16.312  0.2820 -0.1641 -0.7171
 2640TIP3    H129335   3.208   3.067  16.280  1.0278 -0.1376  1.2755
 2640TIP3    H229336   3.104   3.136  16.366 -1.5401  0.6519 -2.3141
 2641TIP3   OH229337   5.592   0.549   2.894  0.0610 -0.0213 -0.0260
 2641TIP3    H129338   5.674   0.515   2.931 -1.1387 -1.1913  1.6742
 2641TIP3    H229339   5.548   0.591   2.968 -1.5463 -0.7450 -0.5429
 2642TIP3   OH229340   3.146   5.065  14.844  0.1870  0.1565 -0.0597
 2642TIP3    H129341   3.063   5.060  14.892  0.3397 -0.8992  0.1088
 2642TIP3    H229342   3.170   5.158  14.847 -1.3002  0.5721 -0.6349
 2643TIP3   OH229343   0.236   6.162   2.850 -0.1617 -0.0073 -0.3779
 2643TIP3    H129344   0.158   6.131   2.896  0.2548  0.2160  0.5085
 2643TIP3    H229345   0.283   6.213   2.916  1.1550 -0.8411 -0.6504
 2644TIP3   OH229346   1.603   0.884   4.247 -0.5256  0.8979 -0.1760
 2644TIP3    H129347   1.580   0.918   4.161  1.4359 -0.0906 -1.1259
 2644TIP3    H229348   1.555   0.802   4.254 -2.3477  1.9881  0.5878
 2645TIP3   OH229349   4.460   3.356  10.810  0.1228  0.4066  0.2990
 2645TIP3    H129350   4.435   3.366  10.718  0.6543  0.6091  0.1762
 2645TIP3    H229351   4.471   3.262  10.822 -1.9151  0.2024  0.6781
 2646TIP3   OH229352   2.977   0.663   5.328 -0.1625 -0.4353  0.1273
 2646TIP3    H129353   2.988   0.584   5.276  1.6440 -0.1053 -0.0220
 2646TIP3    H229354   2.937   0.632   5.410 -3.0862 -0.9306 -1.4308
 2647TIP3   OH229355   4.643   1.257  14.295  0.1251  1.0543 -0.0562
 2647TIP3    H129356   4.701   1.330  14.271 -0.9891  2.0018  0.0810
 2647TIP3    H229357   4.571   1.298  14.342  0.6165 -0.4181  2.0330
 2648TIP3   OH229358   2.445   4.395   1.151 -0.4949 -0.3072  0.0844
 2648TIP3    H129359   2.478   4.314   1.110 -1.3828 -0.8552  0.4515
 2648TIP3    H229360   2.394   4.365   1.226 -0.2107  0.6338  0.6600
 2649TIP3   OH229361   4.716   3.901   2.812 -0.2358 -0.0721  0.3953
 2649TIP3    H129362   4.656   3.901   2.886 -0.0271 -0.1275  0.5651
 2649TIP3    H229363   4.712   3.991   2.778 -0.3809 -0.0644  0.4353
 2650TIP3   OH229364   0.741   2.943  12.246  0.1620 -0.1397  0.2267
 2650TIP3    H129365   0.756   2.984  12.331  1.0735  1.2294 -0.5817
 2650TIP3    H229366   0.747   3.015  12.183  0.0320 -1.2333 -1.0528
 2651TIP3   OH229367   2.090   4.713   2.336  0.3648 -0.5182 -0.0289
 2651TIP3    H129368   2.066   4.636   2.387 -0.2531  0.6860  1.5510
 2651TIP3    H229369   2.007   4.743   2.298  0.8492 -1.5209 -1.9467
 2652TIP3   OH229370   2.950   1.877  16.196  0.2399 -0.3693 -0.0070
 2652TIP3    H129371   2.883   1.894  16.130  0.6316 -0.6412 -0.4694
 2652TIP3    H229372   2.999   1.802  16.164  2.2389  1.2113 -0.8201
 2653TIP3   OH229373   0.204   0.318  11.647 -0.3813  0.0718 -0.2789
 2653TIP3    H129374   0.177   0.409  11.638 -2.5538 -0.5796 -0.6233
 2653TIP3    H229375   0.216   0.306  11.741 -0.1428  0.6876 -0.2265
 2654TIP3   OH229376   5.139   0.849  14.837 -0.0028  0.1546  0.3381
 2654TIP3    H129377   5.145   0.754  14.832  2.6921  0.3651 -1.6320
 2654TIP3    H229378   5.185   0.872  14.917  0.2617 -0.1201  0.2651
 2655TIP3   OH229379   3.577   5.215   1.343 -0.1416  0.3988  0.0210
 2655TIP3    H129380   3.537   5.182   1.263 -0.7131  1.9411 -0.3452
 2655TIP3    H229381   3.567   5.310   1.338 -1.1605  0.4577  2.4460
 2656TIP3   OH229382   2.860   3.656  15.070  0.0380  0.0823 -0.0700
 2656TIP3    H129383   2.880   3.564  15.050  1.3319 -0.0043  1.4847
 2656TIP3    H229384   2.930   3.706  15.027 -2.0060  0.5901 -2.9998
 2657TIP3   OH229385   5.880   5.984   5.086 -0.1633  0.6308  0.4446
 2657TIP3    H129386   5.871   6.047   5.157  2.3067 -1.6566  2.9129
 2657TIP3    H229387   5.805   5.925   5.095 -0.6688  1.2290  0.1835
 2658TIP3   OH229388   0.351   0.400   5.919 -0.0435  0.2788  0.7266
 2658TIP3    H129389   0.379   0.421   6.008  0.9369  0.7503  0.3064
 2658TIP3    H229390   0.259   0.428   5.916 -0.7121 -1.6027  2.2221
 2659TIP3   OH229391   2.545   4.591   1.937  0.3497 -0.3420 -0.1105
 2659TIP3    H129392   2.516   4.658   1.876 -1.5517 -0.1978  0.9240
 2659TIP3    H229393   2.475   4.585   2.002  1.4830 -1.7968  1.0227
 2660TIP3   OH229394   4.427   5.906   1.303 -0.2206  0.0773  0.5997
 2660TIP3    H129395   4.519   5.933   1.302  0.1527 -1.1443  0.0035
 2660TIP3    H229396   4.417   5.852   1.224 -1.8779  1.5855 -0.2549
 2661TIP3   OH229397   3.887   1.508   3.644  0.6455  0.0762 -0.1008
 2661TIP3    H129398   3.813   1.451   3.622  1.3642 -1.0117  0.2950
 2661TIP3    H229399   3.940   1.510   3.564  2.4811 -2.6858  1.0070
 2662TIP3   OH229400   5.091   2.124  11.488  0.3833  0.0214  0.1096
 2662TIP3    H129401   5.121   2.212  11.509 -0.3096  0.2288  0.2382
 2662TIP3    H229402   5.078   2.082  11.573  0.6639 -0.1836  0.0497
 2663TIP3   OH229403   3.471   2.965  11.675  0.3376  0.4764 -0.1579
 2663TIP3    H129404   3.471   2.886  11.728 -2.2839  1.7124  1.7534
 2663TIP3    H229405   3.553   2.960  11.625  2.7432 -0.9050  3.6988
 2664TIP3   OH229406   4.753   6.737   1.297  0.0713  0.1114  0.7394
 2664TIP3    H129407   4.752   6.641   1.290 -0.8005  0.0387  1.6482
 2664TIP3    H229408   4.688   6.766   1.233  1.5939  0.2084 -0.7954
 2665TIP3   OH229409   6.459   4.241   4.566  0.2139  0.5426  0.2202
 2665TIP3    H129410   6.417   4.301   4.504  0.7179  0.3655 -0.3021
 2665TIP3    H229411   6.386   4.200   4.613 -0.1616  0.9139 -0.0324
 2666TIP3   OH229412   3.917   3.205  10.860 -0.0037  0.8214  0.3713
 2666TIP3    H129413   3.847   3.141  10.858  2.9185 -2.5599  1.3139
 2666TIP3    H229414   3.884   3.275  10.916 -2.3301 -1.0574  1.4242
 2667TIP3   OH229415   5.423   3.999  14.139 -0.0092 -0.3627 -0.1304
 2667TIP3    H129416   5.385   3.917  14.171 -1.0247 -0.2828 -1.1097
 2667TIP3    H229417   5.425   4.056  14.216 -1.2290 -0.6076  0.0902
 2668TIP3   OH229418   5.540   5.717   3.418  0.1802  0.0122  0.1171
 2668TIP3    H129419   5.538   5.746   3.509 -1.7946 -2.6198  0.9791
 2668TIP3    H229420   5.462   5.757   3.378 -0.2132 -0.6876  0.1860
 2669TIP3   OH229421   2.757   0.907   2.889 -0.0628 -0.0355 -0.1624
 2669TIP3    H129422   2.710   0.883   2.808 -3.1489  2.7707  0.6672
 2669TIP3    H229423   2.845   0.930   2.860 -0.7212 -0.3856 -2.5584
 2670TIP3   OH229424   4.646   1.009  11.390  0.2435 -0.3222 -0.2067
 2670TIP3    H129425   4.656   0.915  11.372  0.0320 -0.8303  2.1476
 2670TIP3    H229426   4.735   1.040  11.406 -0.0310 -0.9478  2.7208
 2671TIP3   OH229427   1.022   0.887  13.950  0.4158 -0.3136  0.0655
 2671TIP3    H129428   1.029   0.794  13.970 -0.5407 -0.0665  1.6420
 2671TIP3    H229429   0.976   0.925  14.025  0.6169  1.4015 -0.6389
 2672TIP3   OH229430   0.837   1.883   0.349  0.0703  0.4263 -0.2561
 2672TIP3    H129431   0.892   1.955   0.317  2.9289 -1.2552  0.6489
 2672TIP3    H229432   0.847   1.886   0.444  0.7129 -1.4945 -0.2369
 2673TIP3   OH229433   2.550   2.049   5.006 -0.4155  0.2732 -0.5911
 2673TIP3    H129434   2.478   1.986   5.002 -0.6037  0.3196  1.4369
 2673TIP3    H229435   2.511   2.127   5.045  0.6447  0.4312  0.1507
 2674TIP3   OH229436   0.197   3.861   2.840  0.1755  0.2792  0.0763
 2674TIP3    H129437   0.107   3.887   2.822  0.0055  0.6010  1.3582
 2674TIP3    H229438   0.192   3.766   2.854  0.2736  0.0614 -1.2750
 2675TIP3   OH229439   3.073   2.708  14.562  0.2086  0.2409 -0.4390
 2675TIP3    H129440   3.093   2.780  14.501 -0.0511  0.6426 -0.0487
 2675TIP3    H229441   3.127   2.635  14.530 -0.5995  0.1696 -1.6956
 2676TIP3   OH229442   6.662   1.590  13.185 -0.1495 -0.4026  0.8632
 2676TIP3    H129443   6.723   1.530  13.229  1.2308  1.3100  1.3557
 2676TIP3    H229444   6.642   1.656  13.252 -0.2051  0.6894 -0.2206
 2677TIP3   OH229445   3.000   4.206  15.920  0.0537  0.0426 -0.2255
 2677TIP3    H129446   2.968   4.295  15.937 -0.9924 -0.1141 -1.3507
 2677TIP3    H229447   3.062   4.189  15.991  0.0647  1.5744  0.1479
 2678TIP3   OH229448   1.790   4.640  13.555 -0.0840  0.0702 -0.6524
 2678TIP3    H129449   1.783   4.684  13.640  0.0996  0.4346 -0.8260
 2678TIP3    H229450   1.877   4.601  13.556 -0.4778 -0.8276 -0.2438
 2679TIP3   OH229451   6.545   5.955   4.422  0.2204 -0.3073 -0.3551
 2679TIP3    H129452   6.451   5.939   4.412  0.3642 -0.7109 -1.0831
 2679TIP3    H229453   6.586   5.870   4.407  0.5301 -0.7919  2.8230
 2680TIP3   OH229454   6.637   4.050  13.116 -0.4450  0.6122  0.5620
 2680TIP3    H129455   6.719   4.073  13.072 -0.4008  1.4261  1.0533
 2680TIP3    H229456   6.604   3.974  13.067  0.3021  0.6436 -0.0046
 2681TIP3   OH229457   2.003   4.382  10.761 -0.3880  0.3788  0.5569
 2681TIP3    H129458   1.933   4.392  10.825 -0.6455 -0.5032  0.4252
 2681TIP3    H229459   1.963   4.332  10.690  0.7265 -1.2604  1.0575
 2682TIP3   OH229460   5.351   4.110  13.755  0.0353  0.1491 -0.5208
 2682TIP3    H129461   5.287   4.152  13.812 -0.3523 -1.3479  0.1902
 2682TIP3    H229462   5.315   4.023  13.738  1.4421 -0.3917 -0.8369
 2683TIP3   OH229463   3.406   2.533   4.741 -0.5275  0.4150 -0.1085
 2683TIP3    H129464   3.447   2.595   4.801 -0.7502  0.9816 -0.5410
 2683TIP3    H229465   3.370   2.587   4.671 -1.5936 -0.1257  0.0107
 2684TIP3   OH229466   0.422   6.448   2.776  0.2686  0.0074 -0.0966
 2684TIP3    H129467   0.469   6.368   2.754 -2.2312 -1.1100 -1.6229
 2684TIP3    H229468   0.338   6.418   2.812  0.0247  1.9242  1.0337
 2685TIP3   OH229469   2.752   1.347  15.881  0.7209 -0.0580 -0.3744
 2685TIP3    H129470   2.668   1.304  15.864  0.6200 -0.2045  0.4853
 2685TIP3    H229471   2.756   1.416  15.815 -0.4059  0.3935  0.0079
 2686TIP3   OH229472   1.606   2.467  12.724 -0.4819 -0.1939  0.4773
 2686TIP3    H129473   1.568   2.433  12.643  0.7862 -0.2881 -0.0835
 2686TIP3    H229474   1.559   2.549  12.740 -0.4121  0.0713 -0.6177
 2687TIP3   OH229475   3.018   3.044   4.447  0.1040  0.3020  0.0669
 2687TIP3    H129476   3.066   2.964   4.469  0.1575  0.4941  0.6367
 2687TIP3    H229477   2.952   3.052   4.515 -1.2600 -0.3845 -1.1410
 2688TIP3   OH229478   5.314   6.189  11.348  0.2555  0.3700 -0.2327
 2688TIP3    H129479   5.392   6.165  11.399  1.7601  1.1020 -2.1360
 2688TIP3    H229480   5.312   6.284  11.351  0.4570  0.4214 -1.6791
 2689TIP3   OH229481   4.510   5.976   4.662 -0.2746 -0.2473 -0.1128
 2689TIP3    H129482   4.541   6.048   4.608 -1.0404  0.6675  0.6647
 2689TIP3    H229483   4.568   5.903   4.639 -0.1741  0.3042 -1.6794
 2690TIP3   OH229484   1.062   3.769   3.384 -0.4573  0.0022  0.2908
 2690TIP3    H129485   1.036   3.862   3.381  1.0212  0.4190  0.2756
 2690TIP3    H229486   0.982   3.724   3.409 -1.0408  1.3614  0.9582
 2691TIP3   OH229487   5.720   3.889  14.164  0.0912  0.0730 -0.0211
 2691TIP3    H129488   5.637   3.934  14.149 -0.4668 -1.4443 -1.5976
 2691TIP3    H229489   5.708   3.845  14.248 -0.1911  0.9626  0.4141
 2692TIP3   OH229490   5.063   2.124  14.067 -0.4538 -0.0436  0.1839
 2692TIP3    H129491   4.972   2.100  14.083 -0.4734  0.6521  1.2261
 2692TIP3    H229492   5.105   2.117  14.153  1.1587 -3.1385 -0.7990
 2693TIP3   OH229493   3.508   0.747   6.011 -0.4906 -0.2507  0.2925
 2693TIP3    H129494   3.476   0.803   6.081 -0.7595 -1.5691  1.2354
 2693TIP3    H229495   3.603   0.757   6.013 -0.5683  0.5519  0.1215
 2694TIP3   OH229496   6.234   5.813   1.447  0.9636  0.5446  0.3367
 2694TIP3    H129497   6.250   5.784   1.537  2.1256  0.4170  0.0942
 2694TIP3    H229498   6.229   5.732   1.396 -0.6005  0.5795  0.4314
 2695TIP3   OH229499   4.070   2.380  13.525 -0.6277  0.0142 -0.3160
 2695TIP3    H129500   4.110   2.352  13.443 -0.5149  1.4770 -0.7828
 2695TIP3    H229501   3.995   2.321  13.537  0.2641 -1.1991 -0.6668
 2696TIP3   OH229502   3.029   3.737  16.057  0.5624 -0.1255  0.1650
 2696TIP3    H129503   3.117   3.772  16.043  0.8667 -0.1997  1.8380
 2696TIP3    H229504   2.973   3.815  16.065  0.7053 -0.0575  0.5138
 2697TIP3   OH229505   1.486   5.352  15.544 -0.2497  0.3475  0.2356
 2697TIP3    H129506   1.513   5.428  15.596 -0.4259  1.8581 -1.8300
 2697TIP3    H229507   1.567   5.321  15.505 -0.3885  0.3198 -0.0270
 2698TIP3   OH229508   2.103   3.416  13.177 -0.1101  0.4457  0.1298
 2698TIP3    H129509   2.075   3.468  13.101  1.6628  0.5154 -0.5104
 2698TIP3    H229510   2.028   3.417  13.236 -0.4856  2.8971 -0.3245
 2699TIP3   OH229511   5.521   2.764   6.364 -0.5229  0.1912 -0.1214
 2699TIP3    H129512   5.535   2.850   6.405 -1.1271 -0.3559  1.2556
 2699TIP3    H229513   5.432   2.769   6.329 -0.0522  0.6140 -1.2924
 2700TIP3   OH229514   4.106   4.595  12.838  0.1062  0.1868  0.8473
 2700TIP3    H129515   4.189   4.552  12.821 -0.2538 -0.4163  0.5777
 2700TIP3    H229516   4.118   4.685  12.807  0.9991  0.4016  1.7884
 2701TIP3   OH229517   1.056   2.327  14.561  0.0628 -0.3107  0.1868
 2701TIP3    H129518   1.110   2.274  14.502 -1.4473 -2.6304  0.8321
 2701TIP3    H229519   0.969   2.326  14.521 -0.7421 -1.1127  1.9200
 2702TIP3   OH229520   4.656   3.273  13.475 -0.3170 -0.6181 -0.0194
 2702TIP3    H129521   4.670   3.184  13.443 -3.0203 -1.0053 -0.1875
 2702TIP3    H229522   4.630   3.263  13.566  0.2908  0.0827  0.2443
 2703TIP3   OH229523   6.255   4.376   1.836 -0.0939 -0.0383 -0.0158
 2703TIP3    H129524   6.219   4.391   1.749  0.0854  1.6249  0.1959
 2703TIP3    H229525   6.340   4.420   1.835 -0.2840  0.3561  1.1529
 2704TIP3   OH229526   3.573   3.434   3.110 -0.0799  0.2734 -0.3489
 2704TIP3    H129527   3.523   3.511   3.136 -0.3082  0.2375 -0.6840
 2704TIP3    H229528   3.632   3.418   3.184 -0.7605  0.1515  0.1694
 2705TIP3   OH229529   0.434   0.881   4.512 -0.1845  0.2344 -0.3760
 2705TIP3    H129530   0.394   0.963   4.482  2.1660  2.1158  1.4900
 2705TIP3    H229531   0.435   0.888   4.607  1.7793 -1.1038 -0.2666
 2706TIP3   OH229532   2.077   2.733   0.089  0.1265 -0.3971 -0.1795
 2706TIP3    H129533   2.078   2.759   0.181 -0.5390  0.2137 -0.3418
 2706TIP3    H229534   2.031   2.649   0.088  1.0409 -0.9174  0.1647
 2707TIP3   OH229535   5.297   0.138   0.182 -0.1624 -0.2273  0.5397
 2707TIP3    H129536   5.204   0.132   0.164  0.2252 -1.1637 -1.2297
 2707TIP3    H229537   5.339   0.084   0.114  1.7193  1.0601  0.6232
 2708TIP3   OH229538   4.041   4.908  13.830 -0.0174  0.8727 -0.4294
 2708TIP3    H129539   3.975   4.976  13.840 -0.5520  0.4609 -1.1423
 2708TIP3    H229540   3.995   4.834  13.790  0.3529 -0.2390  1.1518
 2709TIP3   OH229541   2.678   2.535  14.501 -0.0133  0.6906  0.2072
 2709TIP3    H129542   2.617   2.545  14.428 -0.4695 -1.7889  0.2124
 2709TIP3    H229543   2.643   2.461  14.552  2.2035  0.1483  1.0148
 2710TIP3   OH229544   4.299   3.407  11.883 -0.0380 -0.6409  0.8925
 2710TIP3    H129545   4.303   3.312  11.889  1.1587 -0.6657  0.0205
 2710TIP3    H229546   4.321   3.437  11.971 -3.3639 -1.1793  1.9575
 2711TIP3   OH229547   4.559   1.589  13.217 -0.3030  0.3286  0.2772
 2711TIP3    H129548   4.514   1.549  13.291 -1.3606  1.8271  0.4739
 2711TIP3    H229549   4.637   1.535  13.203  0.4151  0.5736  3.0950
 2712TIP3   OH229550   0.901   5.595   2.513  0.2179 -0.0454 -0.2792
 2712TIP3    H129551   0.934   5.606   2.423 -0.2415  0.2114 -0.4212
 2712TIP3    H229552   0.806   5.589   2.502  0.3047 -2.2774 -0.0207
 2713TIP3   OH229553   5.523   4.035  12.995 -0.0137  0.2280  0.0126
 2713TIP3    H129554   5.598   4.016  13.051  0.5433  0.8353 -0.5223
 2713TIP3    H229555   5.537   4.125  12.965  1.0751 -0.9371 -3.1915
 2714TIP3   OH229556   5.027   6.638   2.489 -0.7430 -0.4112  0.7254
 2714TIP3    H129557   5.064   6.617   2.575  0.9978  0.2718  0.1635
 2714TIP3    H229558   5.030   6.555   2.441 -0.7217 -0.5434  0.9532
 2715TIP3   OH229559   0.182   5.667   3.443  0.4842 -0.4048 -0.0307
 2715TIP3    H129560   0.247   5.631   3.504 -0.6253  0.1274  1.5013
 2715TIP3    H229561   0.211   5.757   3.427  0.8596 -0.5934 -0.4047
 2716TIP3   OH229562   2.009   5.818  13.051  0.0421 -0.2786 -0.0016
 2716TIP3    H129563   2.085   5.760  13.051 -0.0386 -0.4259  2.1321
 2716TIP3    H229564   1.973   5.810  12.962  2.3455 -0.3993 -0.9657
 2717TIP3   OH229565   3.734   5.683   2.008 -0.0536 -0.4386  0.5713
 2717TIP3    H129566   3.711   5.746   1.940  0.1445 -0.5564  0.3927
 2717TIP3    H229567   3.738   5.599   1.963 -0.6958 -0.6381  0.8882
 2718TIP3   OH229568   4.947   6.753   6.238 -0.6173  0.5147 -0.3714
 2718TIP3    H129569   4.964   6.661   6.258  0.0715  0.4110 -1.4462
 2718TIP3    H229570   5.030   6.797   6.255 -1.6155  1.3795  2.6418
 2719TIP3   OH229571   3.219   1.699   3.898  0.3877 -0.1615 -0.5097
 2719TIP3    H129572   3.212   1.656   3.813 -1.7743 -0.7180 -0.0782
 2719TIP3    H229573   3.177   1.784   3.886  0.2962 -0.1394 -0.0739
 2720TIP3   OH229574   3.823   4.513  16.576 -0.3800  0.4108 -0.5528
 2720TIP3    H129575   3.731   4.502  16.600  0.2472 -0.8264  1.3788
 2720TIP3    H229576   3.832   4.606  16.558 -1.6163  0.8344  0.9070
 2721TIP3   OH229577   4.791   3.583  14.409 -0.6256 -0.2269  0.1079
 2721TIP3    H129578   4.758   3.517  14.471  2.0625  0.4803  2.4196
 2721TIP3    H229579   4.886   3.576  14.417 -0.2901  3.3153 -0.2822
 2722TIP3   OH229580   1.664   3.749  16.528  0.6367  0.2734  0.1533
 2722TIP3    H129581   1.597   3.705  16.476 -0.3311  1.6481  0.2178
 2722TIP3    H229582   1.665   3.839  16.494  2.3231  0.3132  0.2680
 2723TIP3   OH229583   4.707   1.474  12.391 -0.8491 -0.5051 -0.6054
 2723TIP3    H129584   4.690   1.465  12.297 -0.0749 -0.3483 -0.7635
 2723TIP3    H229585   4.620   1.477  12.431 -1.1965  0.1143 -1.3896
 2724TIP3   OH229586   6.530   0.929   5.122  0.5862 -1.1160  0.1021
 2724TIP3    H129587   6.620   0.943   5.095  0.4411  0.5299  0.4048
 2724TIP3    H229588   6.512   0.837   5.103  2.3402 -1.4606  0.1035
 2725TIP3   OH229589   4.662   3.922  12.437  0.5840  0.0972  0.7349
 2725TIP3    H129590   4.600   3.991  12.462  0.1858  0.3408 -0.8563
 2725TIP3    H229591   4.732   3.928  12.502 -0.5375  0.5199  1.9263
 2726TIP3   OH229592   5.534   1.487  16.280  0.3446  0.2586  0.1399
 2726TIP3    H129593   5.462   1.535  16.320 -1.3762 -1.2187 -1.0691
 2726TIP3    H229594   5.558   1.421  16.346  0.9519  1.0900  0.7544
 2727TIP3   OH229595   5.342   1.926   4.021 -0.0453  0.1941  0.3585
 2727TIP3    H129596   5.326   1.890   3.934 -0.8447  0.7363  0.2676
 2727TIP3    H229597   5.332   2.021   4.009 -0.7576  0.2256  1.1582
 2728TIP3   OH229598   2.466   1.635  15.789 -0.3501 -0.6026  0.0144
 2728TIP3    H129599   2.561   1.628  15.787 -0.3486 -0.5675 -0.0260
 2728TIP3    H229600   2.442   1.668  15.703 -0.3532 -0.0731  0.2154
 2729TIP3   OH229601   6.172   6.393   1.082 -0.3128  0.5666  0.1575
 2729TIP3    H129602   6.129   6.381   0.998 -2.0472 -0.8954  1.2122
 2729TIP3    H229603   6.230   6.317   1.091  0.4870  1.1398 -0.0575
 2730TIP3   OH229604   0.121   2.929   1.250  0.0301  0.3463 -0.1743
 2730TIP3    H129605   0.153   2.936   1.340 -0.7205  0.8224  0.0642
 2730TIP3    H229606   0.183   2.980   1.198  0.9938 -0.6852 -0.0767
 2731TIP3   OH229607   3.929   5.124   1.351 -0.1766  0.0389 -0.1404
 2731TIP3    H129608   3.881   5.043   1.335 -1.4355  0.6157  0.6014
 2731TIP3    H229609   3.891   5.158   1.432  0.9392  0.9276  0.0132
 2732TIP3   OH229610   1.413   4.767  12.002  0.4433 -0.0599 -0.9145
 2732TIP3    H129611   1.477   4.734  12.066 -0.5328 -1.8437 -0.8062
 2732TIP3    H229612   1.429   4.716  11.923  0.1220  0.5168 -1.3572
 2733TIP3   OH229613   6.300   1.781   6.393  0.6968  0.0563  0.3173
 2733TIP3    H129614   6.375   1.722   6.379  0.8276  0.8651 -2.6545
 2733TIP3    H229615   6.340   1.863   6.422  0.8892  0.1809 -0.2937
 2734TIP3   OH229616   4.943   3.402   5.782  0.1371  0.2963  0.2640
 2734TIP3    H129617   5.018   3.393   5.842 -0.4924  1.1146  1.1837
 2734TIP3    H229618   4.935   3.316   5.741  0.8412 -0.1539  1.0505
 2735TIP3   OH229619   3.075   6.572  11.914  0.1281  0.3081 -0.5347
 2735TIP3    H129620   3.157   6.550  11.958 -0.4353  2.0695  1.4567
 2735TIP3    H229621   3.018   6.496  11.930  0.5313  0.1606  0.2161
 2736TIP3   OH229622   0.994   6.396   1.096  0.0021 -0.1271  0.3258
 2736TIP3    H129623   0.984   6.304   1.074 -0.7280 -0.0842  0.4935
 2736TIP3    H229624   0.962   6.443   1.018 -1.2227  0.0052  0.9010
 2737TIP3   OH229625   6.540   0.724  14.383  0.8017  0.5098  0.7077
 2737TIP3    H129626   6.506   0.810  14.359  0.4080 -0.2817 -1.6785
 2737TIP3    H229627   6.577   0.689  14.302 -0.3196 -2.1479  1.2807
 2738TIP3   OH229628   0.530   3.646   5.190 -0.3458 -0.1952  0.1267
 2738TIP3    H129629   0.509   3.571   5.247  0.4137  0.2206  0.9679
 2738TIP3    H229630   0.446   3.690   5.177 -0.5110 -0.2294  1.0324
 2739TIP3   OH229631   2.910   2.167   3.755 -0.2627 -0.2383  0.2251
 2739TIP3    H129632   2.827   2.207   3.730  1.3760  3.1670 -0.1097
 2739TIP3    H229633   2.955   2.151   3.672  0.0927 -0.5525  0.4750
 2740TIP3   OH229634   1.639   3.701   6.008  0.2146 -0.1101 -0.1114
 2740TIP3    H129635   1.557   3.661   5.980  0.2659 -0.8356  0.7809
 2740TIP3    H229636   1.618   3.795   6.016 -0.7177 -0.3851  0.7801
 2741TIP3   OH229637   1.774   2.161   0.277 -0.6764  0.5732  0.0227
 2741TIP3    H129638   1.866   2.136   0.272 -0.7058  0.8168 -2.3681
 2741TIP3    H229639   1.776   2.253   0.303 -0.2625  0.3956  0.6253
 2742TIP3   OH229640   5.699   0.814   1.723  0.0088  0.0521 -0.3194
 2742TIP3    H129641   5.705   0.784   1.632 -0.3398 -0.1388 -0.2831
 2742TIP3    H229642   5.707   0.909   1.718  0.0304  0.0388 -0.5449
 2743TIP3   OH229643   0.543   3.929  15.295 -0.4062  0.2717 -0.6208
 2743TIP3    H129644   0.613   3.910  15.233 -0.7061  0.0705 -0.9030
 2743TIP3    H229645   0.463   3.899  15.251 -0.4240 -1.6234  0.6288
 2744TIP3   OH229646   2.277   6.343   2.583  0.7187 -0.8226 -0.1883
 2744TIP3    H129647   2.352   6.400   2.567 -0.2922 -0.0175 -2.2661
 2744TIP3    H229648   2.226   6.347   2.502  0.5724 -4.6553 -0.3592
 2745TIP3   OH229649   2.601   0.809   0.110  0.7063 -0.2027 -0.2652
 2745TIP3    H129650   2.638   0.888   0.150 -1.1703  0.5612 -0.0167
 2745TIP3    H229651   2.510   0.806   0.140  0.8021 -2.5762 -0.1168
 2746TIP3   OH229652   6.331   6.273  15.856 -0.6201  0.0894  0.0152
 2746TIP3    H129653   6.413   6.233  15.827 -1.5677 -1.4525 -0.5994
 2746TIP3    H229654   6.355   6.363  15.879  1.0119 -0.0052 -1.2381
 2747TIP3   OH229655   0.917   0.448   0.814 -0.1294 -0.3065 -0.8527
 2747TIP3    H129656   0.872   0.453   0.899 -1.2155 -1.4024 -1.3535
 2747TIP3    H229657   0.928   0.539   0.787 -1.0304 -0.0002 -0.1956
 2748TIP3   OH229658   6.619   3.389  13.164  0.7925 -0.2015 -0.2969
 2748TIP3    H129659   6.599   3.305  13.124 -0.5707 -0.7741  1.5138
 2748TIP3    H229660   6.713   3.402  13.148  1.1907 -2.4217  0.0633
 2749TIP3   OH229661   1.101   4.768   0.083 -0.2707  0.6220 -0.1107
 2749TIP3    H129662   1.186   4.813   0.076  0.1877 -0.0588  0.9512
 2749TIP3    H229663   1.124   4.677   0.104 -1.1805 -0.2152 -2.5521
 2750TIP3   OH229664   4.095   5.542   5.176 -0.2718  0.4854 -0.1623
 2750TIP3    H129665   4.149   5.535   5.255  1.2696 -2.2788 -1.4121
 2750TIP3    H229666   4.152   5.583   5.111 -0.4061 -0.4084 -0.8461
 2751TIP3   OH229667   0.445   1.279  14.188 -0.2052 -0.2205 -0.6849
 2751TIP3    H129668   0.413   1.341  14.254  0.8609  0.6083 -0.9363
 2751TIP3    H229669   0.365   1.238  14.154 -0.9120  0.8445 -0.3422
 2752TIP3   OH229670   5.521   4.658  14.084 -0.5587 -0.5491 -0.2395
 2752TIP3    H129671   5.608   4.618  14.080 -0.7403 -0.9019 -0.7310
 2752TIP3    H229672   5.490   4.657  13.993 -0.3294  1.2430 -0.3599
 2753TIP3   OH229673   1.960   6.783  15.167  0.1667 -0.1280  0.1813
 2753TIP3    H129674   1.874   6.821  15.181 -0.1872 -1.3438  1.3710
 2753TIP3    H229675   1.946   6.689  15.168  1.2519 -0.3341 -1.3436
 2754TIP3   OH229676   2.427   4.669  13.606 -0.1412  0.1404 -0.2090
 2754TIP3    H129677   2.423   4.693  13.513 -1.0607 -0.7751 -0.4248
 2754TIP3    H229678   2.511   4.702  13.636  0.3356  0.1179 -1.4782
 2755TIP3   OH229679   4.543   4.185  13.908 -0.0690  0.3837  0.4103
 2755TIP3    H129680   4.602   4.126  13.955  0.4194  2.7224  2.8869
 2755TIP3    H229681   4.464   4.133  13.893  0.5608 -1.0752  2.0278
 2756TIP3   OH229682   5.330   5.720  13.174 -0.0384  0.0210 -0.1588
 2756TIP3    H129683   5.398   5.764  13.124 -0.1170 -0.2742 -0.5268
 2756TIP3    H229684   5.369   5.636  13.200 -0.0221  0.1422  0.2120
 2757TIP3   OH229685   5.248   3.579  11.520  0.3328 -0.0226  0.2607
 2757TIP3    H129686   5.256   3.639  11.594  1.4301  1.2479 -0.8758
 2757TIP3    H229687   5.317   3.514  11.533  1.4992  1.0632 -0.4303
 2758TIP3   OH229688   2.040   5.312  14.459 -0.7716 -0.1052 -0.0476
 2758TIP3    H129689   2.091   5.392  14.473 -0.8243 -0.3735  1.7641
 2758TIP3    H229690   2.015   5.316  14.366 -0.2915  1.6912 -0.1254
 2759TIP3   OH229691   3.552   1.684   6.525  0.5333 -0.3519 -0.5409
 2759TIP3    H129692   3.518   1.720   6.607  0.6780 -0.5854 -0.3802
 2759TIP3    H229693   3.588   1.760   6.479 -0.5941 -0.0266 -0.9028
 2760TIP3   OH229694   2.972   6.166  16.971  0.0872  0.7928  0.6868
 2760TIP3    H129695   2.918   6.165  17.050 -1.1490 -0.5084 -0.1538
 2760TIP3    H229696   2.926   6.108  16.910  2.5731 -0.5780  0.0535
 2761TIP3   OH229697   1.473   0.451   5.387  0.1258  0.3724 -0.1542
 2761TIP3    H129698   1.526   0.381   5.424  0.9393  0.3802 -1.2902
 2761TIP3    H229699   1.486   0.445   5.292 -0.7349  1.3047 -0.3540
 2762TIP3   OH229700   1.650   2.304  16.024 -0.2057 -0.2045 -0.0740
 2762TIP3    H129701   1.577   2.249  15.996  0.9512 -2.5991  1.3512
 2762TIP3    H229702   1.714   2.297  15.952 -1.3017  1.8103 -1.2724
 2763TIP3   OH229703   1.194   0.151  12.435 -0.3832  1.0461 -0.4957
 2763TIP3    H129704   1.246   0.157  12.355  0.6329  3.1029  0.2878
 2763TIP3    H229705   1.255   0.176  12.505 -1.3563 -0.3633  0.8859
 2764TIP3   OH229706   4.422   1.067  14.406  0.3351  0.0875  0.1349
 2764TIP3    H129707   4.431   1.157  14.436 -0.6833 -0.0414  0.8662
 2764TIP3    H229708   4.451   1.068  14.315  3.1332  0.5758  0.9848
 2765TIP3   OH229709   0.356   2.931   3.417  0.1796 -0.6804 -0.5230
 2765TIP3    H129710   0.274   2.886   3.396  0.0507 -0.9734  0.5296
 2765TIP3    H229711   0.357   2.933   3.513  1.6027 -1.0402 -0.5238
 2766TIP3   OH229712   4.863   4.415  11.771 -0.4111  0.2539  0.2494
 2766TIP3    H129713   4.838   4.401  11.862  1.3432  2.0113  1.0361
 2766TIP3    H229714   4.939   4.359  11.757  1.5406  2.6231  0.9797
 2767TIP3   OH229715   6.356   4.223   4.288  0.0778  0.2409  0.6945
 2767TIP3    H129716   6.450   4.231   4.304 -0.0998  0.0138  1.9138
 2767TIP3    H229717   6.342   4.130   4.268 -0.1809 -0.1395  2.5901
 2768TIP3   OH229718   6.782   2.179   0.119 -0.6808 -0.4741 -0.1426
 2768TIP3    H129719   6.759   2.147   0.206  0.6416 -2.7422 -0.5532
 2768TIP3    H229720   6.852   2.242   0.134  1.1247 -2.5195  0.3549
 2769TIP3   OH229721   0.860   3.829  11.969 -0.6174  0.1031  0.1869
 2769TIP3    H129722   0.788   3.857  11.912  0.9635  0.8397 -1.4861
 2769TIP3    H229723   0.885   3.909  12.016 -0.6585 -0.0793  0.5188
 2770TIP3   OH229724   0.575   1.271   3.866 -0.1450  0.0285 -0.0407
 2770TIP3    H129725   0.640   1.206   3.838 -0.3518 -0.8175  1.4171
 2770TIP3    H229726   0.505   1.220   3.906 -2.0314  0.8739 -2.0965
 2771TIP3   OH229727   5.388   4.716   1.718  0.1120 -0.7346 -0.0504
 2771TIP3    H129728   5.313   4.730   1.659  1.4065 -0.5750 -1.6983
 2771TIP3    H229729   5.361   4.757   1.800 -0.7837  1.2537 -1.2838
 2772TIP3   OH229730   5.590   5.367   1.620 -0.0333  0.4513  0.2622
 2772TIP3    H129731   5.617   5.283   1.582 -0.0375  0.1659  0.8900
 2772TIP3    H229732   5.614   5.432   1.553 -1.3399 -0.1785 -0.8403
 2773TIP3   OH229733   0.495   1.762  12.109 -0.1639 -0.2727 -0.4587
 2773TIP3    H129734   0.451   1.699  12.052  1.5261 -1.1380 -0.8230
 2773TIP3    H229735   0.562   1.712  12.154 -1.3775  0.4530  2.2228
 2774TIP3   OH229736   6.228   5.923   0.507 -0.0493 -0.2118  0.4871
 2774TIP3    H129737   6.156   5.920   0.443 -1.1302  0.8680  1.6318
 2774TIP3    H229738   6.296   5.973   0.462 -0.0443 -1.1323 -0.5631
 2775TIP3   OH229739   1.067   0.295   4.338 -0.4500  0.2251  0.1427
 2775TIP3    H129740   1.136   0.356   4.362 -0.0996 -0.1713  0.1598
 2775TIP3    H229741   1.062   0.234   4.412  0.4742 -0.8658 -0.6844
 2776TIP3   OH229742   2.263   6.465  16.246  0.3753 -0.2894 -0.4433
 2776TIP3    H129743   2.238   6.397  16.308  0.3206  0.7937  0.7373
 2776TIP3    H229744   2.255   6.547  16.295 -0.5067  0.6648 -2.1235
 2777TIP3   OH229745   2.531   2.710  15.998 -0.1622 -0.2575 -0.2580
 2777TIP3    H129746   2.513   2.801  16.019 -1.1819  0.0719 -2.5045
 2777TIP3    H229747   2.627   2.704  16.000 -0.0861  0.8811 -0.2291
 2778TIP3   OH229748   2.836   2.103   5.797  0.9686  0.0944  0.4807
 2778TIP3    H129749   2.750   2.114   5.836  0.5242  1.4326 -0.8139
 2778TIP3    H229750   2.896   2.101   5.871  0.1995  3.0869  1.2726
 2779TIP3   OH229751   1.160   0.778  14.587  0.1729  0.2036 -0.0437
 2779TIP3    H129752   1.232   0.774  14.650  1.3072  1.2772 -1.2454
 2779TIP3    H229753   1.123   0.690  14.587  0.3575  0.1018  1.8691
 2780TIP3   OH229754   3.975   4.028   3.395  0.6313  0.0148 -0.5046
 2780TIP3    H129755   3.943   4.105   3.349 -0.6448 -0.3745 -0.3009
 2780TIP3    H229756   4.035   4.062   3.461 -1.0118  0.9702  0.5392
 2781TIP3   OH229757   5.667   0.114  12.016 -0.4233  0.6187  0.8471
 2781TIP3    H129758   5.659   0.040  12.075 -0.4336  0.3215  0.4804
 2781TIP3    H229759   5.587   0.112  11.963  0.7971 -0.7438 -1.0001
 2782TIP3   OH229760   0.273   0.147  13.196 -0.2954 -0.1299  0.2558
 2782TIP3    H129761   0.203   0.147  13.131 -1.1406  0.8318  1.1483
 2782TIP3    H229762   0.256   0.225  13.250  0.4623 -0.8337  1.5431
 2783TIP3   OH229763   2.413   1.799  11.512  0.4223 -0.7659  0.6901
 2783TIP3    H129764   2.318   1.796  11.498  0.4945 -0.8000  0.2031
 2783TIP3    H229765   2.437   1.709  11.531  0.4866 -0.9131 -0.0647
 2784TIP3   OH229766   5.252   2.718   5.396 -0.3054  0.4653 -0.0246
 2784TIP3    H129767   5.166   2.681   5.374 -0.6299  2.0290 -1.4752
 2784TIP3    H229768   5.256   2.800   5.346  1.3504  1.2274  1.3323
 2785TIP3   OH229769   2.991   5.915  16.609 -0.2161 -0.4027 -0.1625
 2785TIP3    H129770   3.086   5.913  16.622 -0.1870 -0.7073 -0.4028
 2785TIP3    H229771   2.969   5.825  16.583 -0.5628 -0.3196 -0.1599
 2786TIP3   OH229772   4.980   2.221   0.759 -0.0316  0.4418  0.8083
 2786TIP3    H129773   5.041   2.184   0.823 -0.5487 -1.0074  0.4787
 2786TIP3    H229774   4.965   2.150   0.697 -0.0065  1.6442 -0.5853
 2787TIP3   OH229775   2.832   1.769   6.103  0.4005  0.2956  0.5392
 2787TIP3    H129776   2.904   1.746   6.044  0.5738  0.8695  0.5203
 2787TIP3    H229777   2.782   1.835   6.056  1.6615  2.2274  1.7865
 2788TIP3   OH229778   6.707   4.706   1.740 -0.1436 -0.3100  0.4543
 2788TIP3    H129779   6.768   4.633   1.744 -1.7340 -1.6096  1.7364
 2788TIP3    H229780   6.756   4.776   1.698  1.1548 -2.3782 -1.6068
 2789TIP3   OH229781   3.865   2.937  13.532  0.6636  0.0870 -0.7065
 2789TIP3    H129782   3.885   3.001  13.464 -1.7012 -0.3195 -1.8429
 2789TIP3    H229783   3.788   2.890  13.499  0.2017 -0.9373  1.7016
 2790TIP3   OH229784   2.935   6.116  16.405  0.2784  0.3844  0.2046
 2790TIP3    H129785   2.963   6.167  16.481 -0.4417  0.0216  0.7166
 2790TIP3    H229786   2.930   6.026  16.437 -0.4451  0.2906 -0.1619
 2791TIP3   OH229787   0.554   1.102  14.631  0.4995 -0.0653  0.0420
 2791TIP3    H129788   0.558   1.177  14.691  1.7100 -0.8004  0.9237
 2791TIP3    H229789   0.485   1.046  14.667  0.3588  0.0969  0.0247
 2792TIP3   OH229790   3.147   5.926  12.005  0.1856 -0.1807 -0.4812
 2792TIP3    H129791   3.188   5.874  11.936  0.5364 -0.8282  0.2021
 2792TIP3    H229792   3.060   5.946  11.971 -0.2309 -1.8578 -0.4525
 2793TIP3   OH229793   5.078   6.392  15.129 -0.0581  0.5517  0.3789
 2793TIP3    H129794   5.058   6.484  15.148 -0.8405  0.2302  1.1377
 2793TIP3    H229795   5.068   6.348  15.213 -2.1641 -0.6648 -0.4787
 2794TIP3   OH229796   1.152   1.317   0.438  0.1853 -0.1924 -0.5336
 2794TIP3    H129797   1.204   1.396   0.447 -0.5221  0.1104  1.1516
 2794TIP3    H229798   1.063   1.348   0.420 -0.4549 -0.5038  1.8948
 2795TIP3   OH229799   0.188   4.790   4.892 -0.3890  0.1764 -0.8348
 2795TIP3    H129800   0.160   4.827   4.808  0.1542 -0.0569 -1.1168
 2795TIP3    H229801   0.232   4.863   4.936 -1.3355  0.5111 -0.4395
 2796TIP3   OH229802   2.836   3.257   1.417  0.3644 -0.0341 -0.6807
 2796TIP3    H129803   2.844   3.326   1.352  0.4247  0.2012 -0.4221
 2796TIP3    H229804   2.914   3.265   1.471 -0.3349  0.6345  0.2545
 2797TIP3   OH229805   0.186   4.495  10.773  0.6862  0.2343 -0.5349
 2797TIP3    H129806   0.258   4.451  10.728  0.7394  0.6495 -0.8602
 2797TIP3    H229807   0.210   4.588  10.770  0.0117  0.4003 -0.8593
 2798TIP3   OH229808   3.121   3.953   4.341 -0.3328 -0.9038  0.1526
 2798TIP3    H129809   3.067   4.020   4.300  0.2615 -0.6151 -0.1624
 2798TIP3    H229810   3.127   3.883   4.277 -0.2083 -0.8695  0.1266
 2799TIP3   OH229811   0.738   1.959  16.988  0.2249  0.0403  0.3351
 2799TIP3    H129812   0.686   2.039  16.980  0.1775 -0.1314 -1.2266
 2799TIP3    H229813   0.769   1.960  17.079 -3.9324 -0.7881  1.8886
 2800TIP3   OH229814   5.771   2.044  11.554 -0.2412  0.3162 -0.4440
 2800TIP3    H129815   5.741   2.046  11.645 -0.9295  0.7143 -0.6721
 2800TIP3    H229816   5.826   2.122  11.545  3.9416 -2.2894  0.9709
 2801TIP3   OH229817   0.114   1.552  14.684  0.1252  0.2600 -0.3313
 2801TIP3    H129818   0.073   1.519  14.604  1.5820 -1.2108 -0.5086
 2801TIP3    H229819   0.046   1.605  14.726 -0.8741  0.4833 -2.1927
 2802TIP3   OH229820   3.565   3.699  15.281  0.3222  0.8200  0.2795
 2802TIP3    H129821   3.545   3.619  15.233 -0.2583  0.2804  1.4265
 2802TIP3    H229822   3.587   3.763  15.212  1.6680 -0.5489 -0.5789
 2803TIP3   OH229823   5.255   5.495   3.666 -0.2150 -0.1842 -0.2374
 2803TIP3    H129824   5.204   5.555   3.721  0.9846  0.7546 -0.1163
 2803TIP3    H229825   5.328   5.468   3.722  0.4937  0.0392 -1.0424
 2804TIP3   OH229826   3.009   3.337   3.611 -0.1725  0.6055 -0.0242
 2804TIP3    H129827   3.039   3.360   3.698 -1.8273  1.8487  0.2461
 2804TIP3    H229828   3.031   3.413   3.557  2.2867 -0.7911 -1.0670
 2805TIP3   OH229829   4.277   1.210  12.200 -0.0722 -0.5845  0.2669
 2805TIP3    H129830   4.256   1.292  12.154  1.2065  0.9421  2.2818
 2805TIP3    H229831   4.227   1.215  12.281  1.7590 -0.7056  1.4335
 2806TIP3   OH229832   4.482   0.462   6.090  0.1178  0.5741  0.0535
 2806TIP3    H129833   4.517   0.451   6.178  0.6851  0.0601 -0.2336
 2806TIP3    H229834   4.532   0.534   6.053 -0.9071  1.5595  0.5476
 2807TIP3   OH229835   0.268   4.677  12.450 -0.0763 -0.4956  0.5892
 2807TIP3    H129836   0.224   4.756  12.418 -0.0555 -0.9509 -0.5888
 2807TIP3    H229837   0.231   4.662  12.537 -0.7952  0.2521  0.4135
 2808TIP3   OH229838   3.263   3.013  11.352  0.4812 -0.5245  0.2672
 2808TIP3    H129839   3.338   3.071  11.363 -0.1364  0.0318  1.6275
 2808TIP3    H229840   3.191   3.057  11.397 -0.5119 -1.3517 -0.4845
 2809TIP3   OH229841   1.882   0.423   3.690  0.3882 -0.3939  0.5128
 2809TIP3    H129842   1.935   0.498   3.720  0.7507  0.5101 -2.2977
 2809TIP3    H229843   1.795   0.459   3.677  0.0197 -0.9899  1.3170
 2810TIP3   OH229844   1.297   1.793  12.223  0.6761 -0.5390  0.0545
 2810TIP3    H129845   1.294   1.883  12.257 -0.4577 -0.6241  0.1894
 2810TIP3    H229846   1.323   1.741  12.299  1.5819 -0.3008 -0.0833
 2811TIP3   OH229847   3.112   2.600   3.238  0.1191 -0.5487  0.3356
 2811TIP3    H129848   3.024   2.600   3.200  0.2185 -0.9551  0.0979
 2811TIP3    H229849   3.170   2.589   3.163  0.2294 -3.4018  0.7762
 2812TIP3   OH229850   2.402   0.502   5.178  0.4008  0.5901 -0.0693
 2812TIP3    H129851   2.387   0.448   5.256  1.9138 -1.5675 -1.2136
 2812TIP3    H229852   2.443   0.442   5.115 -1.0236  2.2057 -2.6428
 2813TIP3   OH229853   3.207   1.850   0.427 -0.2045  0.1860 -0.0656
 2813TIP3    H129854   3.171   1.773   0.470  1.2271  0.2701  1.3773
 2813TIP3    H229855   3.222   1.912   0.499 -0.9824  1.6709 -1.1494
 2814TIP3   OH229856   2.024   5.753  12.151  0.0356  0.1283  0.3931
 2814TIP3    H129857   2.117   5.747  12.129 -0.1202 -0.5521 -0.0993
 2814TIP3    H229858   1.993   5.663  12.147 -0.6124  0.3355  0.7043
 2815TIP3   OH229859   2.153   1.134   6.193 -0.0706 -0.1872  0.3416
 2815TIP3    H129860   2.186   1.052   6.229 -1.8136 -1.6181 -1.1555
 2815TIP3    H229861   2.231   1.184   6.170  1.1337 -3.0364 -2.1854
 2816TIP3   OH229862   1.593   4.463   1.980 -0.6488 -0.2007 -0.5542
 2816TIP3    H129863   1.674   4.438   2.025 -0.3180 -0.6322 -1.3883
 2816TIP3    H229864   1.537   4.497   2.050  0.3139  0.2771  0.0000
 2817TIP3   OH229865   5.346   2.570   2.598  0.1322  0.4923  1.0217
 2817TIP3    H129866   5.395   2.517   2.661 -0.1464 -0.7499  0.2084
 2817TIP3    H229867   5.257   2.573   2.634 -0.4599 -1.6549 -0.1184
 2818TIP3   OH229868   5.816   3.122   2.817 -0.0186  0.3402 -0.0761
 2818TIP3    H129869   5.735   3.155   2.855 -1.4843 -0.9745 -1.9678
 2818TIP3    H229870   5.825   3.169   2.734  3.0684  3.0801  1.6715
 2819TIP3   OH229871   1.590   6.517   1.249  0.0368  0.5727 -0.4620
 2819TIP3    H129872   1.594   6.608   1.222  0.2100  0.2336 -1.6047
 2819TIP3    H229873   1.576   6.468   1.168  1.3148 -0.5278 -0.0418
 2820TIP3   OH229874   2.085   0.591  11.177  0.0033 -0.0462  0.2670
 2820TIP3    H129875   2.099   0.616  11.268  0.8611  0.5159 -0.0133
 2820TIP3    H229876   2.128   0.506  11.168  0.2440  0.0747  0.2865
 2821TIP3   OH229877   0.918   2.491  13.850 -0.4498 -0.4660  0.8680
 2821TIP3    H129878   0.967   2.450  13.779 -0.3448  0.8114  0.2027
 2821TIP3    H229879   0.917   2.424  13.919  0.3329 -1.3264  0.0661
 2822TIP3   OH229880   4.291   0.849   2.851 -0.6868  0.5659 -0.4728
 2822TIP3    H129881   4.277   0.768   2.899  0.0118  0.4405 -0.4879
 2822TIP3    H229882   4.384   0.868   2.859 -0.9469  1.6914  0.0341
 2823TIP3   OH229883   3.198   0.057   5.685 -0.4947 -0.1791 -0.2595
 2823TIP3    H129884   3.276   0.079   5.737 -0.9873 -2.6757  1.6355
 2823TIP3    H229885   3.224  -0.022   5.637 -0.6364  1.1230 -2.5405
 2824TIP3   OH229886   3.613   4.733   3.648 -0.0068  0.9277  0.2000
 2824TIP3    H129887   3.535   4.734   3.592  1.1574 -0.3616 -1.4927
 2824TIP3    H229888   3.660   4.654   3.623  0.8773  0.6486  2.5994
 2825TIP3   OH229889   0.247   6.732  16.832  0.5704 -0.4146 -0.1793
 2825TIP3    H129890   0.306   6.784  16.777  0.7001  0.2571  0.5962
 2825TIP3    H229891   0.160   6.755  16.800  0.6390  0.0820 -0.0202
 2826TIP3   OH229892   1.803   4.971  14.974 -0.0916  1.1460  0.3903
 2826TIP3    H129893   1.771   4.881  14.962  0.7491  0.4375  3.1666
 2826TIP3    H229894   1.796   5.010  14.887  1.0575 -2.0974 -1.2444
 2827TIP3   OH229895   5.658   5.929  13.403  0.0175  0.2008 -0.3762
 2827TIP3    H129896   5.684   5.847  13.362 -0.5008  0.1900 -0.6898
 2827TIP3    H229897   5.564   5.919  13.420 -0.1551  0.9198 -0.8825
 2828TIP3   OH229898   0.000   4.527  14.340 -0.0218  0.1099  0.0663
 2828TIP3    H129899  -0.052   4.606  14.353  0.5913  0.6550 -0.6894
 2828TIP3    H229900   0.051   4.545  14.260 -1.8964 -2.1194 -1.7068
 2829TIP3   OH229901   0.978   1.917   2.860  0.3058 -0.1202  0.0542
 2829TIP3    H129902   0.999   1.983   2.794  0.9661 -0.0567  0.3296
 2829TIP3    H229903   0.884   1.928   2.875  0.3984  0.7123  0.0554
 2830TIP3   OH229904   4.331   5.539   1.124 -0.2688  0.3289 -0.1314
 2830TIP3    H129905   4.361   5.588   1.200  1.0832  0.4062 -0.7111
 2830TIP3    H229906   4.336   5.601   1.051  2.6701 -0.9544 -1.1222
 2831TIP3   OH229907   6.046   5.601   3.250  0.0810 -0.5368  0.4248
 2831TIP3    H129908   5.989   5.675   3.270  0.9882  0.8545 -1.8893
 2831TIP3    H229909   5.998   5.525   3.283 -2.5014  0.7352 -0.2012
 2832TIP3   OH229910   6.639   0.977  16.688  0.4356  0.5479  0.4310
 2832TIP3    H129911   6.588   0.997  16.610  0.2791  1.7502  0.8335
 2832TIP3    H229912   6.594   0.903  16.728 -0.2409  0.7717  0.0875
 2833TIP3   OH229913   5.221   3.751   3.522 -0.0767  0.0213  0.2174
 2833TIP3    H129914   5.139   3.705   3.506  0.1770 -0.0136 -1.0855
 2833TIP3    H229915   5.200   3.843   3.509  0.1862 -0.0275 -0.6376
 2834TIP3   OH229916   4.296   3.357  13.860 -0.8094 -0.0924  0.1478
 2834TIP3    H129917   4.203   3.365  13.839  0.1355  0.6268 -4.1841
 2834TIP3    H229918   4.325   3.446  13.875 -0.8561 -0.3421  1.7630
 2835TIP3   OH229919   0.701   2.713  15.757  0.2036  0.1626 -0.5189
 2835TIP3    H129920   0.662   2.728  15.671  0.3297 -0.5873 -0.7142
 2835TIP3    H229921   0.795   2.711  15.741  0.2975  1.3245 -0.1521
 2836TIP3   OH229922   5.704   4.706  11.108  0.5408  0.0484 -0.4534
 2836TIP3    H129923   5.712   4.739  11.019 -0.1797  1.5533  0.0303
 2836TIP3    H229924   5.687   4.784  11.162 -0.7859 -1.0446  0.7622
 2837TIP3   OH229925   3.962   0.835  11.818  0.4790  0.0912 -0.7245
 2837TIP3    H129926   3.878   0.794  11.841  1.1775 -0.1969  1.4262
 2837TIP3    H229927   3.945   0.929  11.825 -0.0707  0.0866 -1.8332
 2838TIP3   OH229928   4.032   3.132  12.703 -0.1673 -0.5759  0.5657
 2838TIP3    H129929   4.030   3.222  12.671 -3.0862 -1.0685 -0.8503
 2838TIP3    H229930   4.079   3.083  12.636  3.1198  0.1418  2.2434
 2839TIP3   OH229931   3.606   2.799  16.233  0.3506 -0.6397  0.8265
 2839TIP3    H129932   3.692   2.835  16.255 -0.4923  1.6067  0.6257
 2839TIP3    H229933   3.562   2.788  16.318  1.0694 -2.4922  0.9871
 2840TIP3   OH229934   0.753   5.811  12.517  0.1586  0.6045  0.3886
 2840TIP3    H129935   0.790   5.897  12.536  3.0549 -0.6390  0.5808
 2840TIP3    H229936   0.741   5.810  12.422 -0.8074  1.5459  0.4869
 2841TIP3   OH229937   1.741   0.663   2.582 -0.5368  0.3660 -0.0450
 2841TIP3    H129938   1.669   0.653   2.521  0.2964  0.1221 -1.0098
 2841TIP3    H229939   1.727   0.749   2.622 -0.7941  0.7762 -0.9858
 2842TIP3   OH229940   0.925   4.750  14.758 -0.3689 -0.0819  0.6486
 2842TIP3    H129941   0.874   4.795  14.691  1.5585 -0.4596 -1.1112
 2842TIP3    H229942   0.883   4.664  14.765  0.8937 -0.9740 -1.9315
 2843TIP3   OH229943   4.885   4.287  14.227 -0.3428 -0.1732  0.0693
 2843TIP3    H129944   4.838   4.300  14.145  1.3094  0.4152 -0.8080
 2843TIP3    H229945   4.971   4.254  14.201 -0.2661 -1.2573  1.6421
 2844TIP3   OH229946   2.657   3.507   0.657  0.5893 -0.3397  0.2289
 2844TIP3    H129947   2.684   3.416   0.648 -0.8249 -0.6737 -0.8616
 2844TIP3    H229948   2.695   3.536   0.740  0.4494 -2.1347  0.9302
 2845TIP3   OH229949   3.467   4.894  15.023  0.2183  0.4109  0.5182
 2845TIP3    H129950   3.440   4.975  14.981 -0.1173  0.8681  1.5955
 2845TIP3    H229951   3.396   4.832  15.004  0.3465  0.4489 -0.0759
 2846TIP3   OH229952   4.837   6.277  11.535 -0.0663 -0.1608  1.0979
 2846TIP3    H129953   4.865   6.361  11.497 -0.9346 -1.1852 -1.9370
 2846TIP3    H229954   4.810   6.299  11.624  0.7582  2.5887  0.7185
 2847TIP3   OH229955   1.338   0.996  12.195 -0.1024 -0.2455  0.0365
 2847TIP3    H129956   1.371   1.013  12.283 -2.5518 -0.0166  0.9551
 2847TIP3    H229957   1.243   0.996  12.205 -0.4250  0.3133 -2.7194
 2848TIP3   OH229958   6.432   5.714   3.587  0.3677  0.7436 -0.3047
 2848TIP3    H129959   6.409   5.659   3.511 -0.2255  0.2868  0.2022
 2848TIP3    H229960   6.366   5.692   3.653  0.8026  1.2476  0.2965
 2849TIP3   OH229961   1.813   3.441  14.859  0.3744 -0.3069  0.3796
 2849TIP3    H129962   1.845   3.505  14.795  0.8752 -1.8262 -0.9370
 2849TIP3    H229963   1.729   3.413  14.824 -0.6587  0.8972  1.8647
 2850TIP3   OH229964   2.072   5.660  13.532 -0.4983  0.0113 -1.3320
 2850TIP3    H129965   2.041   5.604  13.604 -1.4421  0.3188 -1.4918
 2850TIP3    H229966   2.094   5.743  13.574  0.1892 -0.2330 -1.2058
 2851TIP3   OH229967   4.031   6.309   5.379  0.3620 -0.1864 -0.2225
 2851TIP3    H129968   4.059   6.227   5.339  3.6814  0.4160  0.7399
 2851TIP3    H229969   4.050   6.376   5.313  1.1801  0.2444  0.4526
 2852TIP3   OH229970   5.384   1.831  14.886 -0.1021  0.4610 -0.8387
 2852TIP3    H129971   5.403   1.908  14.832 -1.5281  1.6215  0.2434
 2852TIP3    H229972   5.290   1.819  14.878  0.0559 -0.9512 -0.6783
 2853TIP3   OH229973   4.463   2.639  14.256 -0.1477  0.1679 -0.0104
 2853TIP3    H129974   4.542   2.586  14.255 -0.2491  0.0248 -0.5342
 2853TIP3    H229975   4.463   2.681  14.342  0.6474  0.3912 -0.1153
 2854TIP3   OH229976   6.136   2.900  10.477 -0.2174  0.2166 -0.4781
 2854TIP3    H129977   6.210   2.842  10.461 -0.1720 -0.4712  2.1108
 2854TIP3    H229978   6.176   2.986  10.492  0.1365 -0.3359  1.8274
 2855TIP3   OH229979   1.478   1.238   5.992  0.0639 -0.7256 -0.1347
 2855TIP3    H129980   1.424   1.237   6.071  2.0154  1.6803  1.3007
 2855TIP3    H229981   1.470   1.150   5.956 -1.4455 -1.6397  2.3432
 2856TIP3   OH229982   3.468   5.203  16.303 -0.1279  0.9103  0.1010
 2856TIP3    H129983   3.530   5.145  16.259 -2.3646 -0.7744 -0.9461
 2856TIP3    H229984   3.463   5.170  16.393 -0.7044  0.0125 -0.2518
 2857TIP3   OH229985   0.698   3.757   2.819 -0.1696  0.1659  0.0610
 2857TIP3    H129986   0.764   3.810   2.772  0.1629  1.1106  1.5493
 2857TIP3    H229987   0.714   3.777   2.911 -0.8943 -1.5766  0.5734
 2858TIP3   OH229988   3.429   6.404  14.461  0.0133 -0.2123  0.1566
 2858TIP3    H129989   3.340   6.435  14.478  0.9938  1.5344  2.3236
 2858TIP3    H229990   3.463   6.378  14.546  2.0448  0.4430 -0.4135
 2859TIP3   OH229991   0.040   2.971   2.055 -0.1053  0.2766 -0.1127
 2859TIP3    H129992   0.060   3.050   2.104 -1.7277  0.5631  0.1194
 2859TIP3    H229993   0.048   2.900   2.120 -2.7441  0.7078  0.7426
 2860TIP3   OH229994   0.313   2.273   2.367  0.3850  0.0779  0.2807
 2860TIP3    H129995   0.354   2.187   2.361 -0.2114 -0.2118  0.3439
 2860TIP3    H229996   0.239   2.261   2.425  0.9284  0.8888  1.1552
 2861TIP3   OH229997   2.788   1.582  12.703 -0.5137 -1.3370 -0.0681
 2861TIP3    H129998   2.861   1.529  12.669  0.2180 -1.0527  1.0056
 2861TIP3    H229999   2.716   1.520  12.712  0.2754 -2.1260  0.9703
 2862TIP3   OH230000   1.903   6.165   1.997 -0.5086 -1.0093 -0.2781
 2862TIP3    H130001   1.979   6.175   2.055  0.7066 -1.1600 -1.8141
 2862TIP3    H230002   1.831   6.143   2.056 -0.2377  2.8787  1.6391
 2863TIP3   OH230003   4.426   2.650  16.898  0.2476 -0.0828  0.2404
 2863TIP3    H130004   4.472   2.657  16.981  0.2547  1.5751  0.1241
 2863TIP3    H230005   4.402   2.558  16.890  2.0161 -0.6309  1.1219
 2864TIP3   OH230006   1.844   2.700   0.749 -0.3246 -0.0769 -0.0686
 2864TIP3    H130007   1.819   2.770   0.690  0.2603 -1.9051 -2.5588
 2864TIP3    H230008   1.761   2.657   0.771 -0.6001  0.9178  0.9016
 2865TIP3   OH230009   1.739   3.055   3.597 -0.5340  0.1334 -0.4228
 2865TIP3    H130010   1.814   3.084   3.649 -2.1686  2.0674  0.8960
 2865TIP3    H230011   1.753   3.094   3.511  0.6669 -0.6568 -0.6019
 2866TIP3   OH230012   1.175   3.989   5.047 -0.1794  0.0690 -0.2833
 2866TIP3    H130013   1.156   3.954   5.134  1.6549 -0.0930  0.0738
 2866TIP3    H230014   1.091   4.023   5.016 -0.6327  1.0665  1.9659
 2867TIP3   OH230015   0.804   6.695  14.271 -0.3944 -0.1376  0.5087
 2867TIP3    H130016   0.891   6.665  14.295 -0.5872 -1.4102 -0.3639
 2867TIP3    H230017   0.819   6.755  14.198 -0.1788  0.3243  0.9308
 2868TIP3   OH230018   3.950   2.150   4.630 -0.2457 -0.3206 -0.5896
 2868TIP3    H130019   3.974   2.057   4.631  0.2993 -0.1763 -0.3197
 2868TIP3    H230020   3.935   2.169   4.537  2.2416 -0.0235 -0.9560
 2869TIP3   OH230021   5.699   2.094   5.732  0.9449 -1.0291 -0.3388
 2869TIP3    H130022   5.632   2.111   5.665 -0.9378 -1.8747  1.2846
 2869TIP3    H230023   5.736   2.180   5.752 -1.1409 -0.2485  0.2467
 2870TIP3   OH230024   4.695   4.187   1.132 -0.6964 -0.3061  0.6357
 2870TIP3    H130025   4.688   4.098   1.098  0.0474 -0.3853  0.6879
 2870TIP3    H230026   4.778   4.219   1.098  0.0194 -0.3520  2.3254
 2871TIP3   OH230027   0.080   1.167  12.904 -0.4923 -0.2610 -0.2139
 2871TIP3    H130028   0.167   1.203  12.888 -0.1483 -0.4224  1.2761
 2871TIP3    H230029   0.082   1.138  12.995 -1.7470 -1.2855 -0.5041
 2872TIP3   OH230030   2.470   2.401  17.196  0.4274 -0.0719  0.3793
 2872TIP3    H130031   2.546   2.350  17.168  1.4018  0.4871  1.9363
 2872TIP3    H230032   2.405   2.336  17.222  1.1889 -0.5236  1.1392
 2873TIP3   OH230033   3.338   0.086   2.634  0.3003 -0.3818  0.0935
 2873TIP3    H130034   3.351   0.055   2.724  1.5074  0.3201  0.1803
 2873TIP3    H230035   3.293   0.014   2.590 -1.9585 -0.0155  1.7263
 2874TIP3   OH230036   4.818   4.089  11.731 -0.1547 -0.2178 -0.1392
 2874TIP3    H130037   4.861   4.030  11.670  0.3440 -0.2322  0.2263
 2874TIP3    H230038   4.886   4.152  11.756  0.2419 -1.4809  2.0577
 2875TIP3   OH230039   2.142   0.641   6.558 -0.4021 -0.3664 -0.0540
 2875TIP3    H130040   2.164   0.548   6.563 -0.8810 -0.5462 -1.2262
 2875TIP3    H230041   2.183   0.679   6.636 -0.6443 -1.6403  0.7117
 2876TIP3   OH230042   1.227   1.581   4.311 -0.6381 -0.0908  0.1678
 2876TIP3    H130043   1.135   1.557   4.304 -0.8616  0.6360  0.5061
 2876TIP3    H230044   1.232   1.632   4.392  0.0715 -0.1741  0.1788
 2877TIP3   OH230045   2.105   1.314   1.795  1.0484 -0.2236 -0.3255
 2877TIP3    H130046   2.100   1.303   1.700 -0.9217  1.9189 -0.5355
 2877TIP3    H230047   2.196   1.339   1.812  1.2261  0.1125 -1.7390
 2878TIP3   OH230048   0.106   0.917   1.632 -0.4797  0.1170 -0.0169
 2878TIP3    H130049   0.198   0.903   1.610  0.0450  2.0060  0.8163
 2878TIP3    H230050   0.059   0.848   1.585  1.3829 -1.0916 -0.1769
 2879TIP3   OH230051   4.020   3.969  15.757  0.3367 -0.6397  0.0506
 2879TIP3    H130052   4.056   3.923  15.833  0.7469  1.2030  0.9884
 2879TIP3    H230053   4.035   3.909  15.684  0.4323 -2.2079  1.3143
 2880TIP3   OH230054   1.689   0.737   6.152 -0.2802  0.0228  0.2150
 2880TIP3    H130055   1.672   0.694   6.236 -1.3692 -0.6622 -0.3360
 2880TIP3    H230056   1.614   0.794   6.139  1.4584  2.6195  1.2306
 2881TIP3   OH230057   4.059   1.174  12.391 -0.0174 -0.2035  0.4298
 2881TIP3    H130058   3.964   1.163  12.390 -0.0382 -0.0617 -0.6215
 2881TIP3    H230059   4.078   1.216  12.475 -1.0061  0.7904  0.1748
 2882TIP3   OH230060   2.133   5.124  14.150 -0.2399 -0.0277 -0.6542
 2882TIP3    H130061   2.104   5.128  14.242  0.5462 -1.0843 -0.3542
 2882TIP3    H230062   2.056   5.151  14.100  0.0847  3.0903  0.4214
 2883TIP3   OH230063   3.185   3.716  13.508  0.4442 -0.2649  1.0028
 2883TIP3    H130064   3.155   3.625  13.511  0.0749 -0.1301  1.3012
 2883TIP3    H230065   3.223   3.732  13.594  1.7159 -0.5525  0.5153
 2884TIP3   OH230066   5.944   3.484  11.301 -0.2598  0.2480 -0.7593
 2884TIP3    H130067   5.982   3.455  11.384 -1.3241  1.2390  0.0966
 2884TIP3    H230068   5.947   3.406  11.245  2.9370  0.2634 -0.7193
 2885TIP3   OH230069   3.720   2.432  15.997  0.0799 -0.1097 -0.3136
 2885TIP3    H130070   3.652   2.499  16.013  0.4213 -0.1615  1.4723
 2885TIP3    H230071   3.802   2.479  16.008  0.3387 -0.2820 -1.4845
 2886TIP3   OH230072   6.661   3.398   5.243 -0.0850  0.1285  0.6124
 2886TIP3    H130073   6.591   3.352   5.195  1.1612  0.7694 -1.8979
 2886TIP3    H230074   6.715   3.328   5.279  0.0378 -0.3819 -0.5378
 2887TIP3   OH230075   3.684   5.570   0.989 -0.4839  0.3248  1.0652
 2887TIP3    H130076   3.741   5.569   0.912 -1.8161 -0.3625  0.0743
 2887TIP3    H230077   3.656   5.661   0.996 -0.5500  0.3454  0.5832
 2888TIP3   OH230078   6.659   3.247   3.220 -0.1873 -0.1177 -0.3281
 2888TIP3    H130079   6.626   3.186   3.155  0.8581 -0.1024 -0.8838
 2888TIP3    H230080   6.580   3.287   3.258 -0.8007 -0.1506 -1.5509
 2889TIP3   OH230081   5.626   1.600   4.124  0.1768 -0.0574  0.3850
 2889TIP3    H130082   5.674   1.683   4.133 -0.0747  0.1419 -0.1030
 2889TIP3    H230083   5.626   1.582   4.030 -0.2328 -0.3355  0.4372
 2890TIP3   OH230084   6.653   5.332   4.425  0.3348 -0.0104  0.2613
 2890TIP3    H130085   6.563   5.360   4.444  0.7754  0.9939  0.8711
 2890TIP3    H230086   6.670   5.263   4.490 -0.7053 -1.6416 -1.1648
 2891TIP3   OH230087   3.623   1.863  13.933  0.3297  0.6365  0.0169
 2891TIP3    H130088   3.569   1.890  14.007 -0.5396 -1.3899  0.1281
 2891TIP3    H230089   3.565   1.811  13.878  2.1802 -1.7646  0.2318
 2892TIP3   OH230090   6.007   4.106   4.992 -0.4737 -0.1531  0.4189
 2892TIP3    H130091   6.053   4.184   4.961  0.3420 -0.1643  1.5706
 2892TIP3    H230092   6.011   4.113   5.088 -3.2785  0.0926  0.5657
 2893TIP3   OH230093   4.889   2.721  14.817  0.2330 -0.0931 -0.4898
 2893TIP3    H130094   4.794   2.725  14.816  0.2745  0.9536 -2.0833
 2893TIP3    H230095   4.909   2.628  14.826 -0.9463 -0.3484 -0.4898
 2894TIP3   OH230096   4.553   2.766   5.643  0.1573  0.3780  0.3686
 2894TIP3    H130097   4.633   2.785   5.693  1.9225  0.1048 -2.2431
 2894TIP3    H230098   4.557   2.672   5.626 -1.1281  0.2259  0.8912
 2895TIP3   OH230099   0.287   5.718  12.837  1.0612  0.2838  0.5888
 2895TIP3    H130100   0.255   5.717  12.927  0.8160 -0.3890  0.4910
 2895TIP3    H230101   0.382   5.715  12.845  1.0427  0.3253  0.8283
 2896TIP3   OH230102   2.842   1.238   0.431 -0.1695 -0.6927  0.4582
 2896TIP3    H130103   2.835   1.247   0.336 -0.3660  0.4657  0.5674
 2896TIP3    H230104   2.834   1.144   0.448  2.9661 -1.2720 -0.9131
 2897TIP3   OH230105   4.938   6.776   0.671 -0.0155 -0.1394 -0.7848
 2897TIP3    H130106   4.922   6.766   0.765  0.4570  0.9671 -0.5671
 2897TIP3    H230107   4.881   6.848   0.645  0.8594  0.4683 -1.0480
 2898TIP3   OH230108   4.578   0.375  12.503 -0.1793  0.1388 -0.4560
 2898TIP3    H130109   4.545   0.359  12.414 -0.9385  1.1790 -0.3783
 2898TIP3    H230110   4.507   0.344  12.560  0.0157  0.1034 -0.2360
 2899TIP3   OH230111   1.286   3.647  11.226  0.7424 -0.3003  0.2791
 2899TIP3    H130112   1.269   3.583  11.157  0.2396  1.3077 -1.1041
 2899TIP3    H230113   1.359   3.699  11.194  0.4211  0.5416  0.8966
 2900TIP3   OH230114   0.299   1.763   1.216  0.0205 -0.0841 -0.0023
 2900TIP3    H130115   0.221   1.762   1.160 -0.4454 -2.6961  0.6359
 2900TIP3    H230116   0.355   1.694   1.181  0.5801 -0.4619  1.5729
 2901TIP3   OH230117   3.289   2.824   4.467  0.6966  0.1981 -0.0473
 2901TIP3    H130118   3.274   2.840   4.560 -2.0541 -1.1411 -0.2008
 2901TIP3    H230119   3.248   2.739   4.451  1.7131  0.1154 -2.3452
 2902TIP3   OH230120   6.139   1.556  12.516 -1.1441 -0.4307 -0.5261
 2902TIP3    H130121   6.189   1.576  12.595 -2.7496  0.7818  0.2198
 2902TIP3    H230122   6.162   1.625  12.454 -0.5769 -0.8646 -0.8016
 2903TIP3   OH230123   3.871   0.691  16.950 -0.0727  0.5833 -0.4995
 2903TIP3    H130124   3.886   0.771  16.901  0.8877 -0.4149 -1.8766
 2903TIP3    H230125   3.783   0.702  16.987 -0.4200  1.7744 -1.6306
 2904TIP3   OH230126   1.672   1.376  17.111 -0.0396 -0.7156 -0.0128
 2904TIP3    H130127   1.577   1.378  17.103 -0.0507 -1.1801  0.0063
 2904TIP3    H230128   1.688   1.327  17.192  0.2045 -0.2283  0.2404
 2905TIP3   OH230129   5.029   5.284  16.040 -0.2363  0.2506  0.6712
 2905TIP3    H130130   4.949   5.332  16.020  1.1087  2.4777  0.3486
 2905TIP3    H230131   5.037   5.220  15.970 -0.7025  1.3713 -0.4315
 2906TIP3   OH230132   2.963   2.464   1.255 -0.4314 -0.1277  0.4181
 2906TIP3    H130133   2.868   2.480   1.260 -0.3711  0.4282 -0.2519
 2906TIP3    H230134   3.001   2.551   1.242  0.0300 -0.5781 -1.3588
 2907TIP3   OH230135   6.068   4.622   0.813 -0.2685 -0.7329 -0.1613
 2907TIP3    H130136   5.983   4.653   0.783  0.1562 -0.6380 -1.2598
 2907TIP3    H230137   6.118   4.701   0.831 -0.2323 -0.7908 -0.0002
 2908TIP3   OH230138   3.834   4.249   2.749 -1.0155  0.6917 -0.1035
 2908TIP3    H130139   3.820   4.165   2.706 -2.0906  1.0433 -0.4507
 2908TIP3    H230140   3.878   4.303   2.683  0.0652  0.2787  0.2622
 2909TIP3   OH230141   6.655   2.133   4.077  0.0610 -0.6177  0.2067
 2909TIP3    H130142   6.728   2.140   4.016  0.5005  2.1067  0.9903
 2909TIP3    H230143   6.695   2.114   4.162 -0.1741  0.5017  0.5675
 2910TIP3   OH230144   6.368   1.427   3.560  0.2480 -0.0059  0.3852
 2910TIP3    H130145   6.336   1.361   3.621  0.2894  0.2879  0.7276
 2910TIP3    H230146   6.425   1.379   3.499  1.1478 -0.1087  1.2848
 2911TIP3   OH230147   2.191   5.299  13.750 -0.3541  0.5981 -0.5949
 2911TIP3    H130148   2.168   5.218  13.705  0.0182 -0.5938  1.3214
 2911TIP3    H230149   2.110   5.349  13.751 -1.1562 -0.6838  0.1286
 2912TIP3   OH230150   2.369   2.942   0.104  0.2323  0.1385  0.1739
 2912TIP3    H130151   2.409   2.976   0.024 -0.9056  0.1512 -0.3980
 2912TIP3    H230152   2.390   2.849   0.103  1.5077  0.4090  0.6407
 2913TIP3   OH230153   3.530   0.189   6.385  0.0966 -0.1019  0.1949
 2913TIP3    H130154   3.615   0.200   6.427 -0.8182  0.0393  2.0908
 2913TIP3    H230155   3.513   0.095   6.389  0.1048 -0.1125 -0.0428
 2914TIP3   OH230156   2.906   6.192  15.526 -0.4603 -0.0685  0.4545
 2914TIP3    H130157   2.899   6.107  15.482 -1.1482  0.3171 -0.1915
 2914TIP3    H230158   2.815   6.217  15.543 -0.2048 -0.4260  2.5273
 2915TIP3   OH230159   5.087   2.458  15.238 -0.1421 -0.0786 -0.4760
 2915TIP3    H130160   5.050   2.470  15.325  1.4832  0.1438  0.1995
 2915TIP3    H230161   5.058   2.536  15.189 -2.1659 -0.8482 -0.5597
 2916TIP3   OH230162   4.102   6.019   5.785 -0.2442  0.1977 -0.2487
 2916TIP3    H130163   4.191   5.985   5.795  0.3265  1.1266 -2.0764
 2916TIP3    H230164   4.071   6.030   5.875  2.2803  1.9330  0.4802
 2917TIP3   OH230165   0.409   0.757  13.139 -0.3765 -0.4722 -0.7386
 2917TIP3    H130166   0.418   0.758  13.234 -0.9657 -1.0519 -0.6695
 2917TIP3    H230167   0.417   0.664  13.115  1.3016 -0.1752 -1.4161
 2918TIP3   OH230168   5.666   5.470   4.991 -0.4569 -0.8589  0.3789
 2918TIP3    H130169   5.633   5.425   5.069 -1.1188  1.0011  1.2053
 2918TIP3    H230170   5.754   5.499   5.015 -0.0574 -1.6542 -0.1260
 2919TIP3   OH230171   3.730   2.737  17.233 -0.2255  0.2393  0.2881
 2919TIP3    H130172   3.693   2.819  17.202  1.2478  0.5295 -0.7890
 2919TIP3    H230173   3.707   2.674  17.164 -0.4497 -0.0177  0.5993
 2920TIP3   OH230174   2.821   3.850   0.465 -0.2944 -0.0480 -0.1256
 2920TIP3    H130175   2.839   3.809   0.380 -1.2281 -1.6041  0.3989
 2920TIP3    H230176   2.854   3.786   0.528 -0.4632  0.6835  0.7024
 2921TIP3   OH230177   6.540   1.756   0.982  0.2325 -0.1953  0.0060
 2921TIP3    H130178   6.563   1.723   0.896  0.1904  1.1357 -0.5313
 2921TIP3    H230179   6.444   1.760   0.982  0.2722  0.9582 -0.3407
 2922TIP3   OH230180   5.809   5.682  11.355  0.0960  0.8946  0.2551
 2922TIP3    H130181   5.729   5.733  11.373 -1.1923 -0.5859 -1.0734
 2922TIP3    H230182   5.797   5.601  11.403  0.9100  0.7568  0.2204
 2923TIP3   OH230183   6.697   4.348   1.773  0.2554 -0.0928 -0.6980
 2923TIP3    H130184   6.714   4.339   1.679  1.7244 -0.4029 -0.4116
 2923TIP3    H230185   6.777   4.386   1.808 -0.7572  1.2045  0.2452
 2924TIP3   OH230186   3.996   4.916  14.746  0.4887  0.0191 -0.4802
 2924TIP3    H130187   3.999   4.928  14.651 -1.1491 -0.0025 -0.5555
 2924TIP3    H230188   3.903   4.899  14.765  0.2446  3.1742  1.4792
 2925TIP3   OH230189   1.681   0.109  15.940  0.3898  0.3221 -0.4651
 2925TIP3    H130190   1.609   0.126  15.879  0.5106 -0.9864 -0.9869
 2925TIP3    H230191   1.656   0.027  15.984 -0.0335  1.6116  1.7596
 2926TIP3   OH230192   2.696   1.160   1.408  0.4814 -0.3129  0.0544
 2926TIP3    H130193   2.710   1.076   1.364  0.1973  1.2543 -3.1978
 2926TIP3    H230194   2.603   1.159   1.431  0.6273 -1.1356  0.6581
 2927TIP3   OH230195   6.281   3.755   6.613 -0.2018 -0.4707 -0.0278
 2927TIP3    H130196   6.304   3.668   6.581  1.7446  0.0154 -0.0129
 2927TIP3    H230197   6.365   3.798   6.628 -1.1107  0.3594  2.8984
 2928TIP3   OH230198   6.099   2.228  12.509  0.1316 -0.2428 -0.2711
 2928TIP3    H130199   6.167   2.238  12.575  0.0542  0.1900 -0.2515
 2928TIP3    H230200   6.038   2.164  12.546 -0.9292  1.4037  0.9467
 2929TIP3   OH230201   0.186   3.060  16.150 -0.0472  0.3240 -0.2166
 2929TIP3    H130202   0.278   3.068  16.124 -0.6987  2.3173 -2.0742
 2929TIP3    H230203   0.169   2.966  16.150  1.5511  0.0194 -1.5146
 2930TIP3   OH230204   4.881   5.662  15.312 -0.2873  0.0438 -0.4736
 2930TIP3    H130205   4.958   5.660  15.368  0.4633 -1.1563 -1.5029
 2930TIP3    H230206   4.816   5.610  15.359 -0.6161  1.4074  0.5931
 2931TIP3   OH230207   4.624   1.743  11.524 -0.1087 -0.1843 -0.0971
 2931TIP3    H130208   4.621   1.789  11.440 -2.2067 -1.6724 -0.8794
 2931TIP3    H230209   4.662   1.807  11.585 -0.4175  1.6038 -1.7337
 2932TIP3   OH230210   4.956   3.104  12.227  0.1259 -0.0575 -0.1676
 2932TIP3    H130211   5.001   3.061  12.299  0.8755 -0.1866 -0.7032
 2932TIP3    H230212   4.863   3.097  12.248  0.2763 -1.2828  0.1118
 2933TIP3   OH230213   5.563   0.885  16.280  0.6641 -0.1879 -0.1994
 2933TIP3    H130214   5.521   0.971  16.279  0.4269 -0.3013 -2.6454
 2933TIP3    H230215   5.492   0.823  16.269  1.1641 -0.5213 -1.6222
 2934TIP3   OH230216   3.732   2.165   2.116  0.4738  0.0029  0.2222
 2934TIP3    H130217   3.702   2.211   2.037  1.8443 -0.7993 -0.7805
 2934TIP3    H230218   3.652   2.149   2.166 -0.4533  0.2220 -1.1701
 2935TIP3   OH230219   2.280   1.509  12.325 -0.0946 -0.3006  0.1733
 2935TIP3    H130220   2.275   1.447  12.253  2.1840  1.1565 -1.2983
 2935TIP3    H230221   2.267   1.595  12.284  3.6577  0.7702  1.0129
 2936TIP3   OH230222   6.637   0.070   3.049 -0.4614  1.0348  0.2782
 2936TIP3    H130223   6.661   0.049   2.959 -2.4450 -2.1349  0.4253
 2936TIP3    H230224   6.547   0.101   3.043 -1.7249 -2.2566  1.4834
 2937TIP3   OH230225   6.581   5.732   2.299 -0.7851 -0.1901 -0.5867
 2937TIP3    H130226   6.501   5.715   2.248  0.6428 -1.0293 -2.6329
 2937TIP3    H230227   6.647   5.752   2.233  0.3737  1.9776  1.1657
 2938TIP3   OH230228   2.484   5.128   1.686 -0.3760 -0.3097  0.1098
 2938TIP3    H130229   2.481   5.213   1.728  1.2569 -0.5048  0.6650
 2938TIP3    H230230   2.461   5.145   1.594  0.9974  0.9088 -0.0231
 2939TIP3   OH230231   1.357   2.378  14.055  0.0471  0.0106  0.2792
 2939TIP3    H130232   1.334   2.303  14.000 -0.7428 -0.0252  0.6513
 2939TIP3    H230233   1.359   2.452  13.994  0.6416 -0.2769 -0.0545
 2940TIP3   OH230234   0.123   2.820  10.789 -0.6403 -0.0629 -0.0262
 2940TIP3    H130235   0.136   2.771  10.870  0.1435 -0.8554 -0.6218
 2940TIP3    H230236   0.028   2.831  10.782 -0.6799  0.3831  1.2138
 2941TIP3   OH230237   3.282   0.884  16.408  0.0991 -0.0570 -0.8916
 2941TIP3    H130238   3.226   0.949  16.365 -1.8045 -0.1845  1.3359
 2941TIP3    H230239   3.263   0.802  16.362 -1.9140 -0.1921  0.1337
 2942TIP3   OH230240   2.760   0.194  13.421 -0.3679 -0.0527 -0.6026
 2942TIP3    H130241   2.675   0.153  13.404 -0.2124 -0.0274 -1.4361
 2942TIP3    H230242   2.820   0.152  13.359 -0.6626  3.0322 -3.1094
 2943TIP3   OH230243   0.299   0.321   1.946 -0.9099  0.0338 -0.7733
 2943TIP3    H130244   0.329   0.310   1.856 -0.7473 -0.6759 -0.6340
 2943TIP3    H230245   0.368   0.282   1.999 -0.9592  0.5452 -0.3392
 2944TIP3   OH230246   3.794   5.704  16.209  0.8527 -0.0822  0.5243
 2944TIP3    H130247   3.869   5.761  16.222  0.5780  0.3702  0.1341
 2944TIP3    H230248   3.729   5.735  16.272  0.9942 -0.4775  0.8657
 2945TIP3   OH230249   5.174   2.400   0.298 -0.4395 -0.2135 -0.4706
 2945TIP3    H130250   5.213   2.317   0.270  1.5971  0.3619  0.4960
 2945TIP3    H230251   5.125   2.431   0.222 -0.3257 -1.7716 -1.1974
 2946TIP3   OH230252   6.308   6.350   0.181  0.1638  0.3554  0.9081
 2946TIP3    H130253   6.296   6.264   0.142 -1.5629  1.1176 -0.3136
 2946TIP3    H230254   6.391   6.382   0.146 -1.2673  0.9566 -2.0959
 2947TIP3   OH230255   2.440   3.154  13.791 -0.7021  0.2979  0.4311
 2947TIP3    H130256   2.533   3.175  13.778 -0.7833  0.1788 -0.3263
 2947TIP3    H230257   2.438   3.058  13.800 -0.8298  0.2439 -0.1835
 2948TIP3   OH230258   3.488   1.406   6.449 -0.1305 -0.3756 -0.9725
 2948TIP3    H130259   3.523   1.343   6.386  0.5183 -2.5095  1.4381
 2948TIP3    H230260   3.553   1.476   6.452  0.1781 -0.6057 -2.1552
 2949TIP3   OH230261   0.823   1.812   6.614 -0.1253 -0.5555  0.2873
 2949TIP3    H130262   0.913   1.837   6.593 -0.0211  0.0576  1.3700
 2949TIP3    H230263   0.801   1.743   6.553  1.2505 -1.0218  0.3192
 2950TIP3   OH230264   1.128   3.180  15.088 -0.4628 -0.2297 -0.2464
 2950TIP3    H130265   1.107   3.095  15.126 -0.1128 -0.8767 -1.4432
 2950TIP3    H230266   1.046   3.209  15.047 -0.3628 -0.3905 -0.5627
 2951TIP3   OH230267   1.735   5.879   3.526  0.1676 -0.2772 -0.2049
 2951TIP3    H130268   1.665   5.833   3.573  0.8134 -1.8082 -0.7120
 2951TIP3    H230269   1.813   5.865   3.579  0.5248 -0.4265 -0.7673
 2952TIP3   OH230270   2.067   4.579   3.132  0.2158  0.1884  0.2761
 2952TIP3    H130271   2.002   4.511   3.149 -1.0003  1.5411  1.2712
 2952TIP3    H230272   2.104   4.557   3.047 -2.7932  0.3238 -1.1325
 2953TIP3   OH230273   4.605   1.613  14.982 -0.9875 -0.5658 -0.2117
 2953TIP3    H130274   4.650   1.616  15.067  1.0089 -0.2831 -1.2713
 2953TIP3    H230275   4.553   1.694  14.980 -0.7751 -0.4043  0.6048
 2954TIP3   OH230276   6.394   2.652  12.973 -0.3761 -0.6710 -0.1775
 2954TIP3    H130277   6.484   2.656  12.940 -0.7963 -0.1029 -1.2442
 2954TIP3    H230278   6.376   2.558  12.981 -0.1004 -0.7973 -1.0624
 2955TIP3   OH230279   5.757   6.371   4.382  0.4465 -0.1853 -0.6810
 2955TIP3    H130280   5.688   6.311   4.410  0.7346 -0.3667 -0.3679
 2955TIP3    H230281   5.722   6.458   4.400  1.0243 -0.3248  1.1539
 2956TIP3   OH230282   3.411   3.365   4.075  0.2016  0.0441 -0.1369
 2956TIP3    H130283   3.505   3.367   4.093  0.6463 -1.3197 -2.1074
 2956TIP3    H230284   3.399   3.435   4.010 -0.1689  0.2903  0.1974
 2957TIP3   OH230285   5.635   1.884   6.293 -0.3839 -0.2254  0.0374
 2957TIP3    H130286   5.634   1.914   6.384  4.7785  0.3120  0.0507
 2957TIP3    H230287   5.651   1.964   6.242  1.0457 -1.0989 -0.9231
 2958TIP3   OH230288   5.812   2.971   4.489 -0.0034  0.2773  0.3280
 2958TIP3    H130289   5.853   3.040   4.438  1.0184 -2.1011 -2.1805
 2958TIP3    H230290   5.724   2.961   4.452  0.0580 -0.1541  0.2880
 2959TIP3   OH230291   3.837   6.043   2.584  0.2493  0.3367 -0.2193
 2959TIP3    H130292   3.826   5.960   2.539 -1.2272 -0.5270  1.6568
 2959TIP3    H230293   3.907   6.026   2.648  0.8008  0.8996 -0.6706
 2960TIP3   OH230294   1.288   5.481   5.527  0.1601 -0.3996 -0.2658
 2960TIP3    H130295   1.195   5.464   5.511  0.2448 -0.7002 -0.4407
 2960TIP3    H230296   1.317   5.407   5.581 -0.2294  0.8298  1.6921
 2961TIP3   OH230297   0.963   6.530  14.628 -0.1400  0.0710  0.0573
 2961TIP3    H130298   0.881   6.482  14.641  0.2198 -1.0287 -1.5772
 2961TIP3    H230299   0.977   6.527  14.533  0.4561  2.4959  0.0464
 2962TIP3   OH230300   2.523   1.610  14.566  0.3731  0.1319  0.4070
 2962TIP3    H130301   2.540   1.650  14.652  1.5772 -0.3179  0.3943
 2962TIP3    H230302   2.610   1.585  14.534 -0.0593  0.3868 -0.9941
 2963TIP3   OH230303   4.261   0.308   4.675  0.2423  0.1209  0.2156
 2963TIP3    H130304   4.240   0.379   4.737  2.0384  0.1531  0.8465
 2963TIP3    H230305   4.295   0.238   4.731 -1.5798 -1.2702 -0.4070
 2964TIP3   OH230306   6.026   6.035  13.471 -0.4405 -0.0046  0.1038
 2964TIP3    H130307   5.946   6.088  13.473  0.4057  1.4721 -2.4198
 2964TIP3    H230308   5.998   5.950  13.437 -1.4008 -0.4503  1.9396
 2965TIP3   OH230309   2.834   3.438   1.169 -0.0141  0.5773  0.1916
 2965TIP3    H130310   2.898   3.506   1.191  0.2334  0.8313 -1.2557
 2965TIP3    H230311   2.875   3.388   1.098  0.4678 -2.0529  2.2276
 2966TIP3   OH230312   0.510   1.291  11.712 -0.5360 -0.0125 -0.4180
 2966TIP3    H130313   0.602   1.299  11.686 -0.1990 -1.5821  0.2359
 2966TIP3    H230314   0.470   1.239  11.642 -0.1956 -2.0449  0.8497
 2967TIP3   OH230315   4.578   5.227  13.830 -0.3260  0.0723  0.3383
 2967TIP3    H130316   4.578   5.195  13.920  0.4023 -0.1873  0.2525
 2967TIP3    H230317   4.670   5.222  13.803 -0.6678 -0.6578 -0.7059
 2968TIP3   OH230318   3.738   1.282  13.659  0.5812  0.0521  0.1493
 2968TIP3    H130319   3.650   1.277  13.621 -0.2210  1.3379  1.7368
 2968TIP3    H230320   3.783   1.350  13.609  0.7813 -0.8149 -0.8584
 2969TIP3   OH230321   2.570   1.312   5.630  0.1497 -0.7311  0.0083
 2969TIP3    H130322   2.610   1.269   5.555  0.2849  0.0827 -0.3820
 2969TIP3    H230323   2.528   1.390   5.595 -0.5321 -0.8057  0.6412
 2970TIP3   OH230324   2.011   3.882   4.494 -0.0740  0.0727 -0.1864
 2970TIP3    H130325   2.012   3.948   4.425  0.4931  2.7695  2.2966
 2970TIP3    H230326   2.101   3.881   4.528 -0.0247 -2.1183 -0.2860
 2971TIP3   OH230327   0.222   5.656   0.883 -0.4195  0.1487  0.5236
 2971TIP3    H130328   0.263   5.627   0.964  0.1819 -1.4584 -0.3397
 2971TIP3    H230329   0.270   5.610   0.814 -1.7447  0.5236 -0.6678
 2972TIP3   OH230330   2.962   4.346   0.728 -0.2358  0.1856 -0.3702
 2972TIP3    H130331   3.032   4.382   0.782  1.4633 -1.2030 -1.6315
 2972TIP3    H230332   2.928   4.272   0.780 -1.0539  1.0889  0.4095
 2973TIP3   OH230333   3.214   5.500   5.499  0.0157 -0.3475  0.5885
 2973TIP3    H130334   3.227   5.577   5.444  2.6966 -1.0342  0.1634
 2973TIP3    H230335   3.194   5.430   5.438  1.5158 -0.7924  0.5736
 2974TIP3   OH230336   5.123   5.284  17.136  0.0797 -0.3885 -0.2808
 2974TIP3    H130337   5.143   5.264  17.227 -0.6091  1.3379  0.2527
 2974TIP3    H230338   5.031   5.311  17.136  0.3834  0.7002 -1.3147
 2975TIP3   OH230339   3.094   2.323   0.375 -0.1538 -0.7145 -0.5917
 2975TIP3    H130340   3.151   2.398   0.357  0.0077 -0.8580 -0.6744
 2975TIP3    H230341   3.031   2.324   0.303  1.1472 -1.9356 -1.7734
 2976TIP3   OH230342   1.314   1.434   1.501 -0.0710  0.4784 -0.5149
 2976TIP3    H130343   1.232   1.401   1.465  0.1187  1.1131 -1.5717
 2976TIP3    H230344   1.381   1.374   1.467 -0.1842 -0.5624  1.0706
 2977TIP3   OH230345   4.694   5.246  14.972  0.3980  0.5415  0.0697
 2977TIP3    H130346   4.645   5.184  14.918  1.4055  0.2853 -0.5679
 2977TIP3    H230347   4.643   5.327  14.968 -0.2307  0.1419 -0.1736
 2978TIP3   OH230348   4.951   1.922   0.681  0.5007  0.2816  0.6561
 2978TIP3    H130349   4.858   1.902   0.677  0.2508  1.4077  0.7773
 2978TIP3    H230350   4.969   1.936   0.774  0.3609  2.0821  0.4133
 2979TIP3   OH230351   6.755   5.251   1.815 -0.2567 -0.4099 -0.4105
 2979TIP3    H130352   6.813   5.288   1.882  0.3190  1.1555 -1.7081
 2979TIP3    H230353   6.675   5.227   1.862 -0.5144  2.2321  0.5845
 2980TIP3   OH230354   0.954   1.544   4.407 -0.1552  0.2403  0.2135
 2980TIP3    H130355   0.930   1.603   4.479 -3.2699 -1.5869  0.7756
 2980TIP3    H230356   0.898   1.572   4.335  0.0740 -0.5329 -0.2604
 2981TIP3   OH230357   2.434   5.460   3.161  0.0395 -0.4047  0.1836
 2981TIP3    H130358   2.503   5.510   3.117  0.0632 -0.7150 -0.1389
 2981TIP3    H230359   2.353   5.503   3.137  0.1148 -0.0840  0.5008
 2982TIP3   OH230360   1.754   5.183   2.326  0.1078  0.0416  0.1776
 2982TIP3    H130361   1.677   5.232   2.297 -1.0158 -2.0371 -0.5045
 2982TIP3    H230362   1.813   5.184   2.251  0.1551  0.4688  0.2200
 2983TIP3   OH230363   0.811   5.082  12.049  0.2838 -0.9516 -0.1112
 2983TIP3    H130364   0.823   5.105  11.957  0.5977 -0.4533  0.0565
 2983TIP3    H230365   0.891   5.035  12.073 -0.0606 -1.6152 -0.2617
 2984TIP3   OH230366   5.268   4.577  16.163 -0.4189  0.0193  0.4339
 2984TIP3    H130367   5.242   4.544  16.077 -3.5325  0.7677  1.0310
 2984TIP3    H230368   5.360   4.599  16.154 -0.2403 -1.6586 -2.1706
 2985TIP3   OH230369   6.599   2.005   5.363  0.3226  0.1121 -0.2045
 2985TIP3    H130370   6.558   2.002   5.276 -2.0190 -0.1489  0.8696
 2985TIP3    H230371   6.552   2.075   5.409  2.3130  1.0356  0.5154
 2986TIP3   OH230372   4.426   2.063  16.579 -0.6832  0.3757 -0.2137
 2986TIP3    H130373   4.468   2.146  16.602 -1.5480  0.3598  1.4267
 2986TIP3    H230374   4.333   2.084  16.571 -1.1432 -0.7485  1.8538
 2987TIP3   OH230375   6.136   2.599  10.512 -0.1264 -0.1972 -0.1685
 2987TIP3    H130376   6.203   2.634  10.453  1.2483 -0.5611  1.1499
 2987TIP3    H230377   6.144   2.504  10.504 -0.8831 -0.2393 -0.4441
 2988TIP3   OH230378   2.666   6.105  12.447  0.0486 -0.0610 -0.2173
 2988TIP3    H130379   2.600   6.163  12.484 -0.3742 -0.4465 -0.3656
 2988TIP3    H230380   2.741   6.162  12.429 -0.8321  0.6806 -1.5759
 2989TIP3   OH230381   5.508   1.100   3.592 -0.0674  0.2950 -0.1013
 2989TIP3    H130382   5.584   1.118   3.535  0.5996  1.1510  1.0439
 2989TIP3    H230383   5.440   1.160   3.561  0.2154  0.5962 -0.1408
 2990TIP3   OH230384   4.581   6.710  14.097 -0.2426 -0.0981  0.3530
 2990TIP3    H130385   4.550   6.695  14.007  1.0196 -0.8445  0.0244
 2990TIP3    H230386   4.623   6.628  14.122 -0.8793  0.0051  1.7557
 2991TIP3   OH230387   1.188   4.815   1.093 -0.5468  0.1042  0.4931
 2991TIP3    H130388   1.227   4.860   1.168  1.7611  0.6242 -0.9623
 2991TIP3    H230389   1.094   4.829   1.103 -0.1137  2.3027  1.9360
 2992TIP3   OH230390   5.026   3.017   4.687  0.0525  0.2739  0.3084
 2992TIP3    H130391   4.940   3.060   4.684  0.2283  0.6318  0.3577
 2992TIP3    H230392   5.082   3.070   4.630 -0.4854 -1.6234 -2.0433
 2993TIP3   OH230393   2.179   4.618   4.378  0.2990  0.6226  0.0075
 2993TIP3    H130394   2.185   4.582   4.466 -1.9830  0.6812  0.2415
 2993TIP3    H230395   2.233   4.697   4.380  1.0179  0.1088  1.0691
 2994TIP3   OH230396   1.149   0.093   5.253  0.3970 -0.5159 -0.5531
 2994TIP3    H130397   1.163   0.185   5.232 -0.6572 -0.0461  0.7953
 2994TIP3    H230398   1.221   0.070   5.312  0.6691 -0.5719 -0.9028
 2995TIP3   OH230399   0.350   0.029   4.369  0.6892  0.2872 -0.3624
 2995TIP3    H130400   0.420   0.081   4.328  1.0841 -0.8593 -1.1852
 2995TIP3    H230401   0.358   0.048   4.463  2.8987 -0.7400 -0.3112
 2996TIP3   OH230402   1.883   5.459  16.711 -0.2375  0.3326 -0.0346
 2996TIP3    H130403   1.881   5.381  16.656 -2.3597 -0.7636  1.5199
 2996TIP3    H230404   1.820   5.519  16.670  0.2683  0.6209 -0.3847
 2997TIP3   OH230405   3.142   2.048  14.980 -0.5020 -0.0015  0.3040
 2997TIP3    H130406   3.085   2.124  14.986 -0.5633  0.0738 -1.2024
 2997TIP3    H230407   3.150   2.017  15.071 -0.7178  1.5998  0.8775
 2998TIP3   OH230408   4.982   6.394  16.720  0.2281  0.2807 -0.3302
 2998TIP3    H130409   4.964   6.443  16.640  1.1366 -1.9727 -1.9577
 2998TIP3    H230410   5.035   6.454  16.773  0.8094  1.3024 -2.0152
 2999TIP3   OH230411   4.844   1.025   5.779 -0.0696 -0.8439 -0.1371
 2999TIP3    H130412   4.794   1.077   5.842  0.5345 -1.8237  1.1552
 2999TIP3    H230413   4.870   1.088   5.712 -0.1791  0.3269  0.9009
 3000TIP3   OH230414   4.822   1.058   3.725  0.4267  0.6806 -0.2746
 3000TIP3    H130415   4.911   1.025   3.735  0.7570  1.1606 -1.5369
 3000TIP3    H230416   4.832   1.141   3.677 -0.5646  1.5390  0.9446
 3001TIP3   OH230417   5.517   2.335   4.389 -0.6473  0.7354  0.0721
 3001TIP3    H130418   5.423   2.317   4.385 -0.7248  0.9083  1.1371
 3001TIP3    H230419   5.549   2.309   4.303 -1.7628  1.2172 -0.5037
 3002TIP3   OH230420   4.410   5.684  16.533  0.1276  0.0506  0.1993
 3002TIP3    H130421   4.404   5.713  16.442 -0.8276  0.7825  0.4766
 3002TIP3    H230422   4.503   5.688  16.553  0.2333  0.9737 -0.4128
 3003TIP3   OH230423   4.864   3.465  14.979 -0.5345 -0.4441 -0.2603
 3003TIP3    H130424   4.890   3.509  14.898  0.7605  1.6976  1.2608
 3003TIP3    H230425   4.904   3.378  14.973  1.1873  0.3711 -1.0735
 3004TIP3   OH230426   4.531   0.983   2.901  0.3429 -0.1629 -0.3097
 3004TIP3    H130427   4.512   1.062   2.952 -1.0586 -0.2488 -0.6775
 3004TIP3    H230428   4.585   1.013   2.828  0.8418  0.2464  0.2203
 3005TIP3   OH230429   1.499   2.387   2.702 -0.4615 -0.0425 -0.5747
 3005TIP3    H130430   1.583   2.350   2.677  0.9000  1.1761  2.0136
 3005TIP3    H230431   1.479   2.346   2.787 -0.1656  3.1310  1.0811
 3006TIP3   OH230432   1.922   6.574   2.299 -0.2524 -0.2892 -0.1071
 3006TIP3    H130433   1.953   6.656   2.337 -1.4241  0.2366 -0.2644
 3006TIP3    H230434   1.828   6.586   2.289 -0.3560 -1.4499 -0.6446
 3007TIP3   OH230435   0.051   4.336   0.838 -0.2693  0.2368  0.0362
 3007TIP3    H130436   0.026   4.297   0.921 -0.1379  1.7606  0.8179
 3007TIP3    H230437   0.140   4.368   0.852 -0.8158  1.9045 -0.1678
 3008TIP3   OH230438   2.680   5.202   3.652  0.2949  0.2033  0.3358
 3008TIP3    H130439   2.679   5.107   3.663  1.5326  0.3218  1.5365
 3008TIP3    H230440   2.710   5.215   3.562 -0.0691 -0.5379  0.0976
 3009TIP3   OH230441   0.833   3.836   4.809 -0.4089  0.1093 -0.3106
 3009TIP3    H130442   0.911   3.888   4.792  0.3187 -0.8117  0.1412
 3009TIP3    H230443   0.846   3.756   4.758 -0.3508 -0.6912  0.9417
 3010TIP3   OH230444   4.807   1.046  11.776 -0.2530  0.1480  0.9883
 3010TIP3    H130445   4.845   1.110  11.717  0.3670 -0.6228  0.5335
 3010TIP3    H230446   4.722   1.023  11.737  0.0974 -0.2616  0.4565
 3011TIP3   OH230447   0.613   1.375   0.173  0.4810 -0.5470  0.2072
 3011TIP3    H130448   0.534   1.355   0.122  0.0606  0.0643  0.6215
 3011TIP3    H230449   0.583   1.431   0.244  1.1977 -0.7627  0.6925
 3012TIP3   OH230450   1.040   2.187  14.955 -0.5425 -0.2927 -0.3471
 3012TIP3    H130451   0.993   2.111  14.921  0.5138 -1.7174  1.2396
 3012TIP3    H230452   0.989   2.214  15.032 -0.6597  0.3272 -0.6390
 3013TIP3   OH230453   2.218   2.365   0.138  0.1632 -0.5230  0.4887
 3013TIP3    H130454   2.200   2.441   0.193  0.0601 -0.2084  0.0147
 3013TIP3    H230455   2.256   2.301   0.199  0.1550 -0.1355  0.9069
 3014TIP3   OH230456   2.801   5.878   0.124 -0.5134  0.3349  0.2011
 3014TIP3    H130457   2.823   5.842   0.210  0.3348  0.5738  0.0931
 3014TIP3    H230458   2.812   5.804   0.064 -0.3886  0.3511  0.2031
 3015TIP3   OH230459   4.490   3.091   3.316  0.3811  0.0106  0.0544
 3015TIP3    H130460   4.460   3.177   3.347  0.7099 -1.0503  3.4761
 3015TIP3    H230461   4.584   3.101   3.305  0.4082  0.1154  0.3772
 3016TIP3   OH230462   5.217   2.585  14.980 -0.6915  0.1029 -0.3489
 3016TIP3    H130463   5.222   2.532  15.060 -1.8955 -0.0081 -0.3456
 3016TIP3    H230464   5.147   2.545  14.929 -0.6742  0.8545 -0.9723
 3017TIP3   OH230465   4.875   5.634  13.291  0.7678 -0.2991 -0.2010
 3017TIP3    H130466   4.806   5.638  13.358  0.3186 -2.2594 -0.5191
 3017TIP3    H230467   4.845   5.566  13.230  2.6411 -0.6389 -0.7609
 3018TIP3   OH230468   2.802   6.514   4.691 -0.2886 -0.1094 -0.5296
 3018TIP3    H130469   2.790   6.491   4.599 -4.2650 -0.9196  0.0842
 3018TIP3    H230470   2.770   6.604   4.698  1.2218  0.4032 -0.1869
 3019TIP3   OH230471   3.455   0.516   0.901  0.0665 -0.1227  0.8010
 3019TIP3    H130472   3.403   0.440   0.874 -1.2292  1.0498 -0.0765
 3019TIP3    H230473   3.395   0.590   0.892  2.1869  1.4065 -1.1722
 3020TIP3   OH230474   3.769   4.312  16.375  0.0138 -0.1634 -0.0098
 3020TIP3    H130475   3.791   4.372  16.446  0.7628  0.0257 -0.3938
 3020TIP3    H230476   3.835   4.243  16.380 -1.7241 -1.7566  1.3482
 3021TIP3   OH230477   4.047   0.299  12.543  0.4069  0.1489 -0.3570
 3021TIP3    H130478   3.990   0.375  12.531  1.1841  0.9764  1.0215
 3021TIP3    H230479   4.055   0.290  12.638  1.0928 -1.0790 -0.5211
 3022TIP3   OH230480   3.188   2.165  16.601  0.2153 -0.5329 -0.0431
 3022TIP3    H130481   3.168   2.145  16.692 -0.9079 -0.8542 -0.3385
 3022TIP3    H230482   3.278   2.195  16.601  0.5437 -1.4973  1.0352
 3023TIP3   OH230483   3.029   2.814  16.408 -0.1374 -0.0055  0.5783
 3023TIP3    H130484   2.950   2.799  16.459  0.5150 -0.9084  1.3598
 3023TIP3    H230485   3.032   2.909  16.395 -0.2208  0.2620  2.3823
 3024TIP3   OH230486   2.114   0.883  14.102  0.3249  0.2890 -0.5800
 3024TIP3    H130487   2.083   0.972  14.117  1.2794  0.6290 -0.5608
 3024TIP3    H230488   2.035   0.831  14.094 -0.2497  0.7565  1.6999
 3025TIP3   OH230489   2.990   4.950   1.970  0.0423 -0.3899 -0.5213
 3025TIP3    H130490   3.057   4.970   2.035 -0.1213  1.5464 -0.9052
 3025TIP3    H230491   2.915   5.004   1.996 -0.8082 -1.3026 -1.0363
 3026TIP3   OH230492   0.121   1.585   5.469 -0.1633 -1.0465  0.2677
 3026TIP3    H130493   0.029   1.573   5.491 -0.1683 -2.3369 -0.4065
 3026TIP3    H230494   0.155   1.496   5.460  0.8354 -0.5683 -0.7535
 3027TIP3   OH230495   6.714   1.182  12.370 -0.3522  0.1947 -0.1053
 3027TIP3    H130496   6.669   1.267  12.369 -0.3835  0.2382  2.5979
 3027TIP3    H230497   6.665   1.129  12.432  2.3230 -0.3060  1.6520
 3028TIP3   OH230498   4.081   2.780   6.671  0.0724 -0.7796  0.1351
 3028TIP3    H130499   4.161   2.763   6.721  0.0219 -0.1373  0.4417
 3028TIP3    H230500   4.038   2.851   6.719 -0.1632 -0.4169 -0.6143
 3029TIP3   OH230501   1.482   3.647   0.083  0.3541 -0.1785  0.4525
 3029TIP3    H130502   1.564   3.691   0.105  0.7226 -0.3727 -0.5221
 3029TIP3    H230503   1.467   3.668  -0.009 -0.4002 -0.6099  0.4710
 3030TIP3   OH230504   1.613   3.318   2.145 -0.3200 -0.2716 -0.2257
 3030TIP3    H130505   1.626   3.384   2.076  2.1057  0.1769  0.6189
 3030TIP3    H230506   1.563   3.363   2.212  0.6798  0.4965  0.0137
 3031TIP3   OH230507   3.470   4.069  17.110 -0.6544  0.2833 -0.5376
 3031TIP3    H130508   3.522   4.132  17.159 -0.9227  0.3677 -0.3602
 3031TIP3    H230509   3.412   4.122  17.055 -2.5395  0.2493  1.3284
 3032TIP3   OH230510   3.065   4.602   5.400 -0.1808  0.6466 -0.2738
 3032TIP3    H130511   2.971   4.585   5.405 -0.4041  2.3020  1.7368
 3032TIP3    H230512   3.106   4.515   5.400 -1.6447 -0.0468  0.1863
 3033TIP3   OH230513   4.891   4.642  10.579 -0.3858 -0.2332  0.0962
 3033TIP3    H130514   4.905   4.576  10.511 -0.3713 -0.2557  0.1208
 3033TIP3    H230515   4.796   4.643  10.591 -0.3478 -0.5879  0.4363
 3034TIP3   OH230516   2.730   1.725  11.191 -0.3198  0.3550 -0.4020
 3034TIP3    H130517   2.658   1.719  11.128  1.0642 -1.3043 -1.8637
 3034TIP3    H230518   2.720   1.648  11.247 -0.5474  0.9322  0.3716
 3035TIP3   OH230519   3.670   6.300  10.549 -0.2258 -0.1819  0.4360
 3035TIP3    H130520   3.727   6.264  10.481 -0.0980 -0.4934  0.7057
 3035TIP3    H230521   3.601   6.346  10.501 -0.1036 -0.3502  0.0982
 3036TIP3   OH230522   1.193   1.524  14.722  0.0474  0.2458 -0.0049
 3036TIP3    H130523   1.178   1.477  14.640  2.2446 -2.0793  0.8360
 3036TIP3    H230524   1.276   1.488  14.755 -0.7670  1.1327  3.2127
 3037TIP3   OH230525   3.758   5.268  12.193 -1.0836  0.6089 -0.2748
 3037TIP3    H130526   3.757   5.323  12.115  0.0531 -1.5942 -1.9109
 3037TIP3    H230527   3.672   5.224  12.192 -0.1351 -1.3047 -1.7452
 3038TIP3   OH230528   1.175   5.558   3.873  0.0577 -0.2160  0.6111
 3038TIP3    H130529   1.199   5.476   3.917 -3.9923 -2.1745 -0.5810
 3038TIP3    H230530   1.094   5.585   3.916 -0.8489  0.9410 -1.7295
 3039TIP3   OH230531   0.401   0.416  16.242  0.0270  0.2655 -0.6415
 3039TIP3    H130532   0.341   0.356  16.285  0.6304 -0.5635 -0.9578
 3039TIP3    H230533   0.357   0.501  16.248 -0.2782  0.0162  0.8450
 3040TIP3   OH230534   1.613   4.291  12.604  0.2262 -0.6554 -0.0020
 3040TIP3    H130535   1.561   4.211  12.617  1.7955 -1.4404  1.6661
 3040TIP3    H230536   1.701   4.258  12.587  0.2439  0.6640 -2.7122
 3041TIP3   OH230537   0.626   2.862   2.692 -0.2952  0.0515 -0.2045
 3041TIP3    H130538   0.630   2.769   2.712  2.0150  0.6677  2.4315
 3041TIP3    H230539   0.559   2.896   2.752  1.2408  0.6294  1.2018
 3042TIP3   OH230540   3.316   4.263  14.703  0.4761  0.3249 -0.2932
 3042TIP3    H130541   3.314   4.298  14.792  5.4184  0.2200  0.0199
 3042TIP3    H230542   3.332   4.340  14.648  0.8082 -0.0632 -0.7381
 3043TIP3   OH230543   4.973   0.408  12.268 -0.3850  0.4679 -0.3448
 3043TIP3    H130544   4.918   0.486  12.277 -1.9537 -0.5757 -0.5712
 3043TIP3    H230545   5.061   0.437  12.293 -1.4258  1.6638  2.1041
 3044TIP3   OH230546   1.395   1.741  14.156 -0.3958 -0.0132  0.3139
 3044TIP3    H130547   1.485   1.712  14.142 -0.0160  0.7547  1.0998
 3044TIP3    H230548   1.398   1.836  14.143 -0.8215  0.1892  1.5914
 3045TIP3   OH230549   0.854   1.790   4.502  0.3028 -0.1788 -0.2439
 3045TIP3    H130550   0.859   1.852   4.429  1.0651  0.1898  0.1082
 3045TIP3    H230551   0.826   1.842   4.576  0.2142 -0.4081 -0.1149
 3046TIP3   OH230552   0.943   5.974   2.817  0.2691 -0.4583  0.0630
 3046TIP3    H130553   0.986   6.030   2.753  0.1653  3.2136  3.0522
 3046TIP3    H230554   0.877   5.927   2.767  2.0183  0.1931 -2.9961
 3047TIP3   OH230555   5.042   3.312   4.784 -0.0922  0.0043  0.0319
 3047TIP3    H130556   5.129   3.351   4.792  0.0564  0.0781 -1.8926
 3047TIP3    H230557   5.038   3.250   4.857  0.7098  1.5804  1.4680
 3048TIP3   OH230558   2.176   2.221  12.880 -0.6645  0.4276 -0.4558
 3048TIP3    H130559   2.261   2.262  12.895 -0.7561  0.2551  0.5320
 3048TIP3    H230560   2.160   2.234  12.786 -0.1518  1.6031 -0.3945
 3049TIP3   OH230561   4.356   6.143  11.106  0.2243  0.7157  0.3752
 3049TIP3    H130562   4.317   6.229  11.091 -1.6442 -0.0342  0.6829
 3049TIP3    H230563   4.427   6.137  11.042  0.4801  2.5353  0.4620
 3050TIP3   OH230564   2.516   4.875  15.471 -0.2843  0.2475 -0.5430
 3050TIP3    H130565   2.499   4.785  15.442 -2.8499  0.3158  0.6437
 3050TIP3    H230566   2.609   4.875  15.493 -0.7916 -2.9015  2.0068
 3051TIP3   OH230567   2.680   4.069  11.468  0.2589 -0.0558  0.2599
 3051TIP3    H130568   2.718   3.990  11.428 -1.0099 -0.0471 -0.9829
 3051TIP3    H230569   2.699   4.139  11.406  0.3601  0.4122  0.8109
 3052TIP3   OH230570   5.631   2.580  14.802 -0.0768  0.1302 -0.2331
 3052TIP3    H130571   5.628   2.486  14.785 -0.7704  0.0186  0.4947
 3052TIP3    H230572   5.562   2.617  14.747 -1.1773 -0.0315  1.0201
 3053TIP3   OH230573   4.733   2.861  11.751 -0.2595 -0.1039  0.2630
 3053TIP3    H130574   4.798   2.802  11.712 -2.8597 -1.7463 -1.8110
 3053TIP3    H230575   4.733   2.938  11.695 -0.3236 -0.2359  0.0813
 3054TIP3   OH230576   3.020   4.805  11.244 -0.5168  0.2028 -0.0936
 3054TIP3    H130577   2.967   4.884  11.230 -1.9077 -0.6999 -0.0133
 3054TIP3    H230578   3.004   4.752  11.166  0.8127  0.2153 -0.3736
 3055TIP3   OH230579   2.001   0.326   4.741 -0.3092  0.4085 -0.0618
 3055TIP3    H130580   2.017   0.301   4.832 -1.2535  0.7510  0.2086
 3055TIP3    H230581   1.979   0.419   4.745 -1.5617  0.1477 -0.4872
 3056TIP3   OH230582   6.226   1.913   6.152 -0.6044 -0.0196 -0.1348
 3056TIP3    H130583   6.185   1.992   6.186  1.4370  1.9890 -2.2428
 3056TIP3    H230584   6.294   1.892   6.216 -1.1889 -0.1355  0.4559
 3057TIP3   OH230585   3.504   6.442   4.932 -0.2016  0.2241  0.0514
 3057TIP3    H130586   3.412   6.417   4.940  0.1735 -1.1734  0.3142
 3057TIP3    H230587   3.528   6.472   5.020 -0.1803 -0.2902  0.2283
 3058TIP3   OH230588   5.423   5.390   4.549 -0.0134  0.2151 -0.2685
 3058TIP3    H130589   5.356   5.326   4.573  0.9125 -1.0159 -0.9265
 3058TIP3    H230590   5.448   5.431   4.632  0.6246 -1.4977  0.3989
 3059TIP3   OH230591   3.673   2.115   5.741 -0.0102  0.2767 -0.7095
 3059TIP3    H130592   3.616   2.171   5.688 -0.4917  0.7562  0.2978
 3059TIP3    H230593   3.650   2.136   5.831  0.5390 -0.8012 -0.3071
 3060TIP3   OH230594   2.370   2.967   5.732 -0.0813  0.3838  0.0093
 3060TIP3    H130595   2.296   3.023   5.756  0.7622  1.0170  1.2094
 3060TIP3    H230596   2.397   2.927   5.815 -1.2943 -2.6239 -0.9851
 3061TIP3   OH230597   5.987   2.771   4.240  0.3981 -0.3193  0.3318
 3061TIP3    H130598   6.029   2.848   4.201 -0.0164  0.1903  0.8996
 3061TIP3    H230599   5.900   2.769   4.201  1.0317 -1.5715 -1.1020
 3062TIP3   OH230600   1.966   0.000  16.339  0.2369  0.0913 -0.0438
 3062TIP3    H130601   1.982  -0.032  16.251  0.2443 -0.2697  0.0910
 3062TIP3    H230602   1.895   0.063  16.329 -1.1886 -1.4854  0.0052
 3063TIP3   OH230603   6.539   6.208   2.840 -0.8010 -0.6778  0.0259
 3063TIP3    H130604   6.446   6.200   2.819 -0.8752  1.2603 -0.4459
 3063TIP3    H230605   6.559   6.301   2.828  1.7578 -1.4326 -2.2700
 3064TIP3   OH230606   4.889   6.362  15.782 -0.1150  0.0577 -0.2743
 3064TIP3    H130607   4.851   6.364  15.695  0.1059  1.3344 -0.3548
 3064TIP3    H230608   4.984   6.362  15.767 -0.0759  0.4574 -0.0368
 3065TIP3   OH230609   2.035   4.702  13.028 -0.2078  0.1331 -0.0938
 3065TIP3    H130610   2.069   4.786  12.998 -0.1799  0.6143  1.2141
 3065TIP3    H230611   1.960   4.684  12.971 -0.2400  1.0733 -0.3568
 3066TIP3   OH230612   1.274   0.652   3.333  0.0028 -0.5420  0.4573
 3066TIP3    H130613   1.343   0.714   3.311 -1.1437  1.4646  2.3408
 3066TIP3    H230614   1.283   0.582   3.268  0.7223  2.0299 -2.3478
 3067TIP3   OH230615   4.416   4.076  11.808 -0.2992  0.0658  0.2784
 3067TIP3    H130616   4.456   4.155  11.769  0.6448 -0.2366  0.6211
 3067TIP3    H230617   4.484   4.041  11.866 -0.5906 -1.1849 -0.1218
 3068TIP3   OH230618   2.544   0.281  15.611  0.2551  0.5491  0.4227
 3068TIP3    H130619   2.538   0.185  15.609 -0.2632  0.5976 -0.5893
 3068TIP3    H230620   2.548   0.306  15.519 -0.4770  1.5571  0.6705
 3069TIP3   OH230621   1.464   2.564  10.542  1.0248 -0.6188  0.0046
 3069TIP3    H130622   1.404   2.631  10.510  2.3301  0.2116 -0.6928
 3069TIP3    H230623   1.408   2.507  10.596 -0.0709  1.0595  0.6846
 3070TIP3   OH230624   1.193   3.351  13.607  0.2827 -0.2869  0.3460
 3070TIP3    H130625   1.201   3.278  13.546  0.6492  0.5850 -0.6520
 3070TIP3    H230626   1.274   3.400  13.598  0.2123  0.0218  1.3162
 3071TIP3   OH230627   6.131   6.548  10.242  0.2878 -0.2392  0.0999
 3071TIP3    H130628   6.181   6.475  10.205 -0.5332 -0.6618 -0.1889
 3071TIP3    H230629   6.084   6.510  10.315  0.7081  0.2560  0.6387
 3072TIP3   OH230630   3.939   5.476   1.129 -0.3278  0.2156  0.1053
 3072TIP3    H130631   3.906   5.564   1.148  2.5678  1.1999  0.9437
 3072TIP3    H230632   3.970   5.481   1.039  1.6065  0.6514  0.7796
 3073TIP3   OH230633   2.439   4.990   3.215 -0.1543  0.4791 -1.1838
 3073TIP3    H130634   2.529   4.966   3.237 -0.4589  2.0229  1.9955
 3073TIP3    H230635   2.386   4.917   3.246 -0.3096  1.2915  0.5155
 3074TIP3   OH230636   3.508   4.491  15.109  0.4604 -0.4335  0.3146
 3074TIP3    H130637   3.574   4.487  15.179  1.4088  0.4630 -0.5227
 3074TIP3    H230638   3.496   4.399  15.083  3.4456 -0.4161 -1.4242
 3075TIP3   OH230639   6.262   2.673   5.474 -0.4150 -0.5528 -0.0053
 3075TIP3    H130640   6.169   2.679   5.453 -0.2789 -0.6150 -0.6373
 3075TIP3    H230641   6.269   2.707   5.563 -1.5054 -3.7209  1.3307
 3076TIP3   OH230642   0.035   2.283  17.080  0.3688 -0.4043 -0.0588
 3076TIP3    H130643   0.041   2.215  17.146  0.9248 -1.1546 -0.8632
 3076TIP3    H230644  -0.052   2.322  17.092  0.6056 -0.2927  1.3280
 3077TIP3   OH230645   0.974   0.166  13.634  0.5353 -0.9058  0.2678
 3077TIP3    H130646   1.025   0.230  13.584 -0.3212 -1.2151 -1.0240
 3077TIP3    H230647   0.892   0.210  13.653 -0.4220 -1.8911 -1.4023
 3078TIP3   OH230648   0.810   0.528   2.780 -0.7157  0.9341  0.0076
 3078TIP3    H130649   0.820   0.435   2.801 -1.8405  0.7986 -0.0252
 3078TIP3    H230650   0.861   0.573   2.847  0.0241  0.2877 -0.1125
 3079TIP3   OH230651   2.064   1.055   1.292  0.2688  0.6187 -0.1188
 3079TIP3    H130652   2.028   0.983   1.239 -3.5237  3.4964 -1.6679
 3079TIP3    H230653   2.092   1.120   1.229  1.4663  1.5416  1.3242
 3080TIP3   OH230654   6.446   1.960  14.090 -0.0364 -0.0768 -0.1150
 3080TIP3    H130655   6.509   2.015  14.136  0.3308  0.0029 -0.7097
 3080TIP3    H230656   6.486   1.943  14.005 -1.1071  0.5111 -0.7402
 3081TIP3   OH230657   5.848   3.197   5.716 -0.0155  0.0663  0.5243
 3081TIP3    H130658   5.782   3.240   5.770  0.6291  0.9276  0.6349
 3081TIP3    H230659   5.929   3.204   5.767  0.3898 -0.0025 -0.1078
 3082TIP3   OH230660   5.149   4.716  15.234 -0.0196 -0.2463  0.2389
 3082TIP3    H130661   5.090   4.740  15.163 -0.4962 -0.6592  0.4939
 3082TIP3    H230662   5.237   4.722  15.196 -0.3466 -2.0264 -0.8295
 3083TIP3   OH230663   5.375   3.905  15.992 -0.3610 -0.0037 -0.2082
 3083TIP3    H130664   5.413   3.821  15.967  0.9310  0.4795  0.0540
 3083TIP3    H230665   5.434   3.970  15.953 -0.7001  0.7592  0.5404
 3084TIP3   OH230666   4.465   4.843  17.019  0.5637 -0.7397  0.1911
 3084TIP3    H130667   4.417   4.885  16.948 -0.2510 -0.3811  0.9543
 3084TIP3    H230668   4.528   4.909  17.047  0.5292 -0.6941  0.1619
 3085TIP3   OH230669   3.542   0.893  12.183  0.0573 -0.0437  0.0831
 3085TIP3    H130670   3.603   0.898  12.256 -0.1909  0.3773  0.2645
 3085TIP3    H230671   3.551   0.804  12.150  2.2270  0.5877 -1.1553
 3086TIP3   OH230672   3.592   3.913   0.505  0.0491 -0.0653  0.0793
 3086TIP3    H130673   3.555   3.862   0.576 -0.1292 -1.8886 -1.2957
 3086TIP3    H230674   3.539   3.993   0.502 -1.0759 -0.7790  0.8406
 3087TIP3   OH230675   0.582   4.554   1.617  0.3477 -0.7266  0.0620
 3087TIP3    H130676   0.585   4.484   1.551 -0.3432 -0.6158 -0.0875
 3087TIP3    H230677   0.535   4.516   1.690 -0.6206 -0.1962 -0.2813
 3088TIP3   OH230678   4.017   2.561   1.590  0.1975 -0.2800 -1.0025
 3088TIP3    H130679   3.948   2.627   1.588  0.4284 -0.0404 -1.2399
 3088TIP3    H230680   4.072   2.582   1.514 -0.8656 -1.9862 -2.2497
 3089TIP3   OH230681   3.803   5.115   5.046 -0.4350  0.1694 -0.4298
 3089TIP3    H130682   3.743   5.133   5.118 -2.7926  0.6013 -2.4477
 3089TIP3    H230683   3.802   5.020   5.036 -0.2735  0.1267 -0.0427
 3090TIP3   OH230684   4.484   0.031  13.610 -0.4938 -0.0275  0.1274
 3090TIP3    H130685   4.559   0.090  13.614 -0.8124  0.3139  0.9966
 3090TIP3    H230686   4.516  -0.044  13.560  0.7120 -0.2951  1.2718
 3091TIP3   OH230687   4.192   2.985   5.655 -0.6639 -0.0673 -0.0853
 3091TIP3    H130688   4.210   3.078   5.638 -0.0608  0.0791  1.2708
 3091TIP3    H230689   4.253   2.961   5.724 -0.2839 -1.6990 -0.9608
 3092TIP3   OH230690   4.471   2.886  16.031 -0.6825  0.2915  0.0894
 3092TIP3    H130691   4.422   2.829  15.971 -0.0594  0.4898 -0.6131
 3092TIP3    H230692   4.517   2.826  16.089 -0.1935  0.0743 -0.5142
 3093TIP3   OH230693   1.191   5.384   1.279 -0.3424  0.2675 -0.0649
 3093TIP3    H130694   1.157   5.418   1.362  0.6468  0.1955  0.3738
 3093TIP3    H230695   1.114   5.381   1.221 -0.5684  2.8121  0.0312
 3094TIP3   OH230696   4.012   6.716   1.217 -0.2050  0.6349  0.0012
 3094TIP3    H130697   4.086   6.722   1.278  0.1532  0.4749 -0.4197
 3094TIP3    H230698   3.991   6.807   1.196 -0.3526  0.6932  0.3863
 3095TIP3   OH230699   6.224   0.538  13.382 -0.4824 -0.1264 -0.1934
 3095TIP3    H130700   6.190   0.454  13.350 -1.1430  0.4266 -0.9620
 3095TIP3    H230701   6.214   0.598  13.308 -2.6811  1.3677  1.2515
 3096TIP3   OH230702   3.067   2.583  15.388 -0.1878 -0.6287  0.1205
 3096TIP3    H130703   3.140   2.552  15.441 -0.5593 -1.7743 -0.0283
 3096TIP3    H230704   3.100   2.661  15.344  1.1362 -1.4701 -0.3913
 3097TIP3   OH230705   1.614   3.080   2.843  0.3898  0.0472  0.2420
 3097TIP3    H130706   1.529   3.046   2.870  0.9003 -0.3111  1.4568
 3097TIP3    H230707   1.602   3.175   2.838 -0.4643 -0.1109 -1.0519
 3098TIP3   OH230708   4.102   3.188   2.422 -0.0088 -0.0108 -0.9231
 3098TIP3    H130709   4.145   3.179   2.507 -0.6417 -2.2209 -0.8127
 3098TIP3    H230710   4.008   3.184   2.443 -0.2299  1.3523 -1.5449
 3099TIP3   OH230711   1.966   5.476   3.432 -0.1247  0.4921  0.2023
 3099TIP3    H130712   1.945   5.384   3.446 -0.2757  0.5386  0.2825
 3099TIP3    H230713   2.051   5.488   3.476 -0.5047  0.5912  0.9272
 3100TIP3   OH230714   5.133   5.125  14.972 -0.3859  0.1345 -0.0876
 3100TIP3    H130715   5.133   5.196  14.908  3.1089  1.8162  1.6309
 3100TIP3    H230716   5.191   5.059  14.934 -0.6634 -0.1663  0.0100
 3101TIP3   OH230717   4.152   3.210  12.309 -0.0317 -0.1700  0.0006
 3101TIP3    H130718   4.157   3.130  12.256 -1.6928 -1.4285  1.6834
 3101TIP3    H230719   4.069   3.251  12.283  0.0261  0.1583  0.3348
 3102TIP3   OH230720   2.402   1.801  13.448  0.3347 -0.5298 -0.5480
 3102TIP3    H130721   2.468   1.731  13.444  1.6930  0.7197 -0.2394
 3102TIP3    H230722   2.437   1.869  13.390 -1.9088 -0.8548 -2.3523
 3103TIP3   OH230723   2.911   5.269   5.507 -0.0132 -0.3120 -0.1329
 3103TIP3    H130724   2.823   5.249   5.474  0.0407 -0.4261 -0.2089
 3103TIP3    H230725   2.896   5.334   5.576 -0.0394  0.6961 -1.0794
 3104TIP3   OH230726   6.761   6.422  13.814 -0.4349  0.1986 -0.1233
 3104TIP3    H130727   6.752   6.517  13.819 -0.7681  0.2505 -1.4848
 3104TIP3    H230728   6.783   6.405  13.722 -3.0755 -1.2310 -0.5396
 3105TIP3   OH230729   0.776   4.358   5.714 -0.4291  0.6030  0.8595
 3105TIP3    H130730   0.872   4.351   5.714 -0.5284 -0.9749  0.8329
 3105TIP3    H230731   0.755   4.395   5.629  0.1848  1.2531  0.9917
 3106TIP3   OH230732   2.235   3.443  11.650 -0.3819 -0.1446  0.1912
 3106TIP3    H130733   2.154   3.413  11.690 -2.0309  2.2170 -1.2560
 3106TIP3    H230734   2.227   3.538  11.647  2.3416  0.1146 -0.1874
 3107TIP3   OH230735   2.275   2.574   4.416  0.6957 -0.9461  0.5562
 3107TIP3    H130736   2.204   2.565   4.480 -0.0361 -1.7450 -0.3485
 3107TIP3    H230737   2.307   2.485   4.403  0.4490 -0.8745 -0.6089
 3108TIP3   OH230738   2.136   3.201  13.584  0.2836 -0.5157 -0.5746
 3108TIP3    H130739   2.065   3.188  13.521  0.0822 -0.4007 -0.3729
 3108TIP3    H230740   2.124   3.290  13.616  0.1579 -0.6989 -0.0967
 3109TIP3   OH230741   5.786   6.427   1.110 -0.0950  0.4722  0.1764
 3109TIP3    H130742   5.699   6.394   1.090 -0.2090  0.4323  0.7131
 3109TIP3    H230743   5.844   6.381   1.050 -0.7919  2.8444 -2.4560
 3110TIP3   OH230744   4.977   5.371  14.693 -0.1461 -0.2446 -0.4876
 3110TIP3    H130745   4.906   5.412  14.642 -0.0903  0.7741  0.2423
 3110TIP3    H230746   5.051   5.368  14.633  0.0081  1.2266 -0.3807
 3111TIP3   OH230747   6.570   3.880   5.837 -0.3742  0.1482  0.5064
 3111TIP3    H130748   6.488   3.882   5.787  0.2815  0.7243 -0.5713
 3111TIP3    H230749   6.638   3.871   5.770  0.4949  0.5658  1.3318
 3112TIP3   OH230750   4.650   2.787  17.131  0.0679  0.0795  0.2101
 3112TIP3    H130751   4.684   2.804  17.219  1.3319 -1.2772 -0.0041
 3112TIP3    H230752   4.589   2.714  17.143 -2.4586  2.1164  0.4962
 3113TIP3   OH230753   5.488   5.006  16.567 -0.1056  0.0084 -0.3102
 3113TIP3    H130754   5.515   4.975  16.481 -0.0734 -0.6422 -0.0733
 3113TIP3    H230755   5.483   4.926  16.620 -2.2250  0.1422 -0.2633
 3114TIP3   OH230756   4.899   6.412   2.085 -0.3662 -0.3048  0.1220
 3114TIP3    H130757   4.956   6.396   2.159  1.3144 -1.5876 -1.4083
 3114TIP3    H230758   4.957   6.446   2.017 -1.7692  0.2763 -0.8204
 3115TIP3   OH230759   1.382   1.080  13.005  0.2918  0.0849  0.4589
 3115TIP3    H130760   1.381   0.994  13.047 -1.0285 -0.1168  0.0300
 3115TIP3    H230761   1.294   1.090  12.968  0.4732  1.5577  0.3869
 3116TIP3   OH230762   4.187   1.613  11.869 -0.0252 -0.4995 -0.1405
 3116TIP3    H130763   4.177   1.540  11.930 -0.1647 -0.6263 -0.3133
 3116TIP3    H230764   4.142   1.584  11.789  1.9141 -1.1733 -1.0200
 3117TIP3   OH230765   1.699   2.072   4.706  0.5447  0.4250  0.0037
 3117TIP3    H130766   1.642   2.123   4.763  1.0436 -0.3331  1.1836
 3117TIP3    H230767   1.661   2.084   4.618 -1.0973  0.3805  0.6881
 3118TIP3   OH230768   1.356   3.990  15.819 -0.4631 -0.9867 -0.6305
 3118TIP3    H130769   1.319   4.075  15.792  1.8018  0.0580 -0.5302
 3118TIP3    H230770   1.311   3.927  15.763 -1.1971  0.4087 -1.6675
 3119TIP3   OH230771   2.599   3.965   2.681 -0.0864  0.1758  0.7390
 3119TIP3    H130772   2.621   4.020   2.756  3.8366  1.8346 -1.4410
 3119TIP3    H230773   2.666   3.897   2.680  1.4759  1.6100 -2.5199
 3120TIP3   OH230774   5.193   1.417   1.705 -0.1492 -0.3409 -0.1495
 3120TIP3    H130775   5.257   1.426   1.775 -1.4787 -1.5267  1.2656
 3120TIP3    H230776   5.230   1.465   1.632  0.7231  1.9679  1.7490
 3121TIP3   OH230777   0.279   2.897   5.847 -0.0141  0.6320 -0.0397
 3121TIP3    H130778   0.335   2.975   5.840  1.9097 -0.6282  0.8480
 3121TIP3    H230779   0.292   2.867   5.937 -2.1303  0.2900  0.1688
 3122TIP3   OH230780   3.061   2.755  12.114 -0.1102 -0.5788  0.4094
 3122TIP3    H130781   2.975   2.799  12.114  1.3750  2.4862  0.1183
 3122TIP3    H230782   3.118   2.815  12.162  2.0000 -2.2996  0.0948
 3123TIP3   OH230783   5.602   5.438   6.189  0.5870 -0.7391  0.7603
 3123TIP3    H130784   5.646   5.427   6.274 -0.9875  0.2078  1.7272
 3123TIP3    H230785   5.650   5.509   6.146  0.9827 -0.7781  1.1317
 3124TIP3   OH230786   5.077   3.412   0.543 -0.5802  0.3175  0.4975
 3124TIP3    H130787   5.128   3.357   0.603 -0.3906 -0.2759 -0.2017
 3124TIP3    H230788   5.006   3.355   0.512 -2.2618  1.4200  2.1989
 3125TIP3   OH230789   5.571   2.996  14.917 -0.0339 -0.3922 -0.4931
 3125TIP3    H130790   5.537   3.003  14.828  0.9372 -1.0185 -0.9242
 3125TIP3    H230791   5.645   2.935  14.910  0.5952  0.2206  0.5844
 3126TIP3   OH230792   3.871   4.559   4.960  0.0937  0.3672  0.0502
 3126TIP3    H130793   3.946   4.501   4.970 -0.5363 -0.4637  0.0412
 3126TIP3    H230794   3.841   4.544   4.870 -1.3270 -0.8457  0.7075
 3127TIP3   OH230795   4.597   6.439   0.522  0.3007  0.2010  0.1800
 3127TIP3    H130796   4.526   6.403   0.469  0.2340  0.0291  0.3869
 3127TIP3    H230797   4.669   6.376   0.512  0.7934  0.9206 -0.8955
 3128TIP3   OH230798   0.311   2.202   4.726  0.1630  0.3405  0.2895
 3128TIP3    H130799   0.333   2.148   4.650 -1.7349 -0.8069  0.5200
 3128TIP3    H230800   0.256   2.146   4.780 -1.9650  2.5391  0.4838
 3129TIP3   OH230801   6.266   5.299  15.886 -0.0144 -0.1279  0.4620
 3129TIP3    H130802   6.335   5.285  15.952 -0.1643  0.2029  0.6878
 3129TIP3    H230803   6.252   5.393  15.885 -1.2854 -0.2947  1.2613
 3130TIP3   OH230804   0.351   2.397  14.403 -0.0955  0.0050 -0.5003
 3130TIP3    H130805   0.351   2.337  14.328 -0.6804 -0.9135  0.2252
 3130TIP3    H230806   0.273   2.451  14.390  0.2618  0.3997 -0.9937
 3131TIP3   OH230807   3.125   2.241   1.179  0.1380 -0.6140 -0.6337
 3131TIP3    H130808   3.102   2.318   1.232  0.4135 -2.2198  1.8515
 3131TIP3    H230809   3.214   2.259   1.149  0.2652 -0.0335  0.0690
 3132TIP3   OH230810   4.089   5.717  11.988  0.1674 -0.3492  0.2237
 3132TIP3    H130811   4.052   5.805  11.988  2.9789  0.8832 -0.8588
 3132TIP3    H230812   4.143   5.713  12.067 -1.9817 -2.0606  1.6836
 3133TIP3   OH230813   6.578   0.610   1.275  0.4069  0.1746  0.2098
 3133TIP3    H130814   6.531   0.560   1.342  0.1229 -0.7224 -0.6371
 3133TIP3    H230815   6.510   0.634   1.212  1.0970 -1.3683 -1.1671
 3134TIP3   OH230816   5.757   4.897   0.092 -0.1160 -0.4090 -0.6550
 3134TIP3    H130817   5.717   4.839   0.027  0.5862 -1.2354 -0.3490
 3134TIP3    H230818   5.695   4.970   0.100 -0.8400 -0.9513 -1.2822
 3135TIP3   OH230819   1.243   1.002   3.052  0.3128  0.0760 -0.0721
 3135TIP3    H130820   1.286   1.086   3.067 -3.1239  1.9096 -0.1654
 3135TIP3    H230821   1.191   0.986   3.131  0.6736 -1.8427 -0.1818
 3136TIP3   OH230822   2.807   3.616  13.691  0.4475  0.2665  0.2897
 3136TIP3    H130823   2.834   3.698  13.650 -0.6892  0.2523 -0.5217
 3136TIP3    H230824   2.795   3.555  13.618 -0.9242  0.0421  0.6739
 3137TIP3   OH230825   0.262   6.545  13.753 -0.1753  0.0393  0.2160
 3137TIP3    H130826   0.322   6.484  13.710  1.2177  2.4717 -1.4178
 3137TIP3    H230827   0.311   6.579  13.827 -0.1702  0.7468 -0.1099
 3138TIP3   OH230828   2.497   2.249   3.340 -0.1429  0.2467  0.2639
 3138TIP3    H130829   2.417   2.216   3.380 -0.7222  1.0888 -0.1916
 3138TIP3    H230830   2.520   2.326   3.392 -0.9361  1.3904 -1.0456
 3139TIP3   OH230831   0.592   5.711   3.898 -1.0533  0.4144 -0.2284
 3139TIP3    H130832   0.623   5.621   3.904  0.8296  0.9817 -0.9029
 3139TIP3    H230833   0.649   5.751   3.833 -3.5301  1.4339 -1.8094
 3140TIP3   OH230834   0.161   0.166  14.779 -0.4805 -0.0232  0.2746
 3140TIP3    H130835   0.096   0.204  14.838 -0.3517 -1.0314  1.0696
 3140TIP3    H230836   0.187   0.239  14.722 -1.3500  0.7006  0.7936
 3141TIP3   OH230837   1.648   6.080   0.912 -0.3608 -0.4654 -0.1496
 3141TIP3    H130838   1.584   6.018   0.947 -0.4111 -0.0373  0.5259
 3141TIP3    H230839   1.649   6.152   0.975  1.0206 -0.6081  0.0081
 3142TIP3   OH230840   5.689   6.236   4.157  0.4115 -0.5956 -0.4304
 3142TIP3    H130841   5.722   6.146   4.160 -1.0143 -1.1129  0.5978
 3142TIP3    H230842   5.721   6.276   4.238 -1.2081 -1.0333  0.4602
 3143TIP3   OH230843   3.517   3.841   1.569 -0.2546 -0.2316  0.4893
 3143TIP3    H130844   3.599   3.832   1.521  0.2958  0.9108  1.1724
 3143TIP3    H230845   3.523   3.778   1.641 -0.3356 -0.7239  0.0671
 3144TIP3   OH230846   5.723   4.300  16.091  0.0422 -0.0579 -0.0209
 3144TIP3    H130847   5.631   4.288  16.114  0.7917 -1.8426  2.3256
 3144TIP3    H230848   5.769   4.302  16.176  2.2758 -0.3119 -1.1774
 3145TIP3   OH230849   1.989   1.546  14.670  0.6561 -0.3721  0.7815
 3145TIP3    H130850   2.002   1.614  14.604 -0.7940  0.6427  1.5068
 3145TIP3    H230851   1.965   1.595  14.749 -0.0603 -1.7073  1.3975
 3146TIP3   OH230852   5.691   6.368  15.553  0.0266  0.3417 -0.3083
 3146TIP3    H130853   5.776   6.340  15.518 -0.1496  1.3415 -1.5749
 3146TIP3    H230854   5.707   6.378  15.647  0.8631 -1.0931 -0.2718
 3147TIP3   OH230855   2.062   1.717  15.092 -0.0309  0.2905 -0.1407
 3147TIP3    H130856   2.096   1.752  15.175  1.2816  1.9721 -1.3334
 3147TIP3    H230857   2.140   1.699  15.040 -0.8136 -1.6698 -0.6622
 3148TIP3   OH230858   6.331   3.947   4.892  0.7694  0.1438  0.1795
 3148TIP3    H130859   6.290   3.898   4.963 -1.1723 -1.3752 -1.9304
 3148TIP3    H230860   6.415   3.903   4.878  0.5924 -0.3580  0.6828
 3149TIP3   OH230861   5.893   5.940   2.817  0.4846  0.5896 -0.4476
 3149TIP3    H130862   5.813   5.947   2.869  0.1446  0.2133 -0.9104
 3149TIP3    H230863   5.903   5.847   2.801 -0.5893  0.8487 -2.8307
 3150TIP3   OH230864   1.695   3.690   5.034 -0.4946 -0.5026  0.6665
 3150TIP3    H130865   1.782   3.718   5.007 -0.8420 -0.7314 -0.7604
 3150TIP3    H230866   1.688   3.600   5.002 -2.4763  0.6179 -2.2668
 3151TIP3   OH230867   5.217   2.452  16.197  0.4133 -0.2563  0.3220
 3151TIP3    H130868   5.192   2.440  16.289  0.2375 -0.1702  0.2857
 3151TIP3    H230869   5.159   2.521  16.165  0.2041 -0.5670  0.0313
 3152TIP3   OH230870   3.111   3.834  15.067 -0.2217 -0.0229 -0.5032
 3152TIP3    H130871   3.126   3.894  15.140  3.0922  0.3369 -1.4467
 3152TIP3    H230872   3.091   3.890  14.993 -3.3340 -0.3827 -0.0140
 3153TIP3   OH230873   4.367   1.816  11.754 -0.7955 -0.2983  0.5748
 3153TIP3    H130874   4.449   1.843  11.795 -2.0794  0.0550  3.0088
 3153TIP3    H230875   4.340   1.738  11.802 -1.1019 -1.3133 -1.2332
 3154TIP3   OH230876   1.458   3.372  11.973 -0.0314  0.1822 -0.3003
 3154TIP3    H130877   1.413   3.445  12.016  1.0495  0.5683  0.2047
 3154TIP3    H230878   1.390   3.307  11.959 -0.9069  1.0777 -0.2737
 3155TIP3   OH230879   1.337   5.907  13.006 -0.3793 -0.9404  0.3097
 3155TIP3    H130880   1.244   5.916  13.026 -0.6881 -0.1215 -1.3440
 3155TIP3    H230881   1.338   5.858  12.924  0.6410 -0.9472  0.3279
 3156TIP3   OH230882   0.420   3.709  11.935  1.1096  0.5609  0.1349
 3156TIP3    H130883   0.407   3.783  11.876  0.2040  2.0920  2.1943
 3156TIP3    H230884   0.331   3.684  11.962  1.4696 -0.6070  0.2725
 3157TIP3   OH230885   0.473   6.706   1.206 -0.5880 -0.1474  0.6889
 3157TIP3    H130886   0.567   6.704   1.186 -0.2694 -1.2593  2.2032
 3157TIP3    H230887   0.431   6.731   1.124  0.9054 -1.3194 -0.4434
 3158TIP3   OH230888   4.121   0.939   3.290 -0.3673 -0.7307 -0.0643
 3158TIP3    H130889   4.074   0.986   3.358 -1.9772 -0.5856 -1.2398
 3158TIP3    H230890   4.213   0.942   3.317 -0.8760  0.0799  1.6212
 3159TIP3   OH230891   6.337   6.264  13.890  0.0783  0.0791  0.1607
 3159TIP3    H130892   6.376   6.318  13.821 -0.2042  0.7756  0.5393
 3159TIP3    H230893   6.257   6.230  13.851 -0.4740  1.0906  0.3922
 3160TIP3   OH230894   4.743   2.385  15.952  0.4510  0.3784 -0.6070
 3160TIP3    H130895   4.763   2.478  15.939 -1.2197  0.8280 -0.0791
 3160TIP3    H230896   4.731   2.377  16.046 -2.3728  0.2645 -0.9465
 3161TIP3   OH230897   5.212   2.492   5.000 -0.5745  0.1577  0.3988
 3161TIP3    H130898   5.124   2.494   4.962 -1.0978 -2.6995  1.3592
 3161TIP3    H230899   5.270   2.484   4.924 -1.2494  0.5264 -0.1624
 3162TIP3   OH230900   3.284   0.247   2.232 -0.1258  0.1233 -0.0746
 3162TIP3    H130901   3.295   0.276   2.141  1.6581 -1.3914 -0.3624
 3162TIP3    H230902   3.305   0.154   2.230 -0.2197  0.0513  1.8676
 3163TIP3   OH230903   4.893   6.003  11.643  0.2856 -0.6529  0.6973
 3163TIP3    H130904   4.913   5.926  11.696 -0.7262 -0.2527  1.6698
 3163TIP3    H230905   4.846   6.062  11.702  1.0651  0.7216 -0.0300
 3164TIP3   OH230906   3.772   4.810   0.570  0.0358  0.2238  0.4847
 3164TIP3    H130907   3.831   4.750   0.525 -0.6475 -0.7049  0.8237
 3164TIP3    H230908   3.687   4.766   0.569 -0.3994  1.0395  1.0257
 3165TIP3   OH230909   0.145   4.704  15.235  0.6399  0.0460 -0.4624
 3165TIP3    H130910   0.182   4.699  15.323 -0.6081 -2.5406 -0.0437
 3165TIP3    H230911   0.055   4.733  15.249 -0.0048 -1.7529 -0.7217
 3166TIP3   OH230912   1.660   4.821  14.231 -0.1512 -0.3156 -0.3001
 3166TIP3    H130913   1.710   4.870  14.165  1.7219 -0.7321  0.7512
 3166TIP3    H230914   1.698   4.733  14.229 -1.9480 -1.0916 -0.5793
 3167TIP3   OH230915   1.178   4.039   6.814 -0.2141  0.4430  0.2855
 3167TIP3    H130916   1.089   4.060   6.786  0.3785  0.2869 -1.8091
 3167TIP3    H230917   1.219   4.123   6.830 -0.8474  0.5036  1.6245
 3168TIP3   OH230918   2.374   3.362   1.593 -0.4287  0.2272  0.5391
 3168TIP3    H130919   2.279   3.359   1.588 -0.4793  0.0646  1.4336
 3168TIP3    H230920   2.397   3.294   1.657  0.1661  1.4354  1.6537
 3169TIP3   OH230921   2.626   5.805  12.803  0.8837 -0.3423  0.3267
 3169TIP3    H130922   2.586   5.762  12.728  1.9694 -1.2405  0.2558
 3169TIP3    H230923   2.553   5.850  12.847 -0.0269 -1.1781 -0.3217
 3170TIP3   OH230924   2.345   0.416   4.592 -0.4055 -0.2904  0.0156
 3170TIP3    H130925   2.361   0.507   4.619 -0.8530  0.5905 -2.5543
 3170TIP3    H230926   2.264   0.392   4.636 -0.5687  0.7271  0.2817
 3171TIP3   OH230927   2.168   2.960   0.337  0.3614  0.5792  0.0585
 3171TIP3    H130928   2.093   3.019   0.344  0.4252  0.6360  0.2586
 3171TIP3    H230929   2.196   2.968   0.246 -1.2659 -1.1402 -0.6179
 3172TIP3   OH230930   0.131   0.822   1.152  0.1421 -0.2757 -0.0221
 3172TIP3    H130931   0.171   0.827   1.065 -0.5241 -0.1603 -0.3223
 3172TIP3    H230932   0.107   0.913   1.172  0.9352 -0.1923  0.5878
 3173TIP3   OH230933   0.195   4.747  11.967 -0.3077  0.3835  0.1153
 3173TIP3    H130934   0.213   4.695  12.046 -0.1517  0.5348  0.1800
 3173TIP3    H230935   0.157   4.685  11.905 -0.4488  0.2694  0.3173
 3174TIP3   OH230936   5.230   3.501   1.677 -0.1463  0.6352 -0.1096
 3174TIP3    H130937   5.325   3.504   1.665 -0.3272 -0.5767 -2.1500
 3174TIP3    H230938   5.205   3.592   1.692  1.3439  0.9556  0.5360
 3175TIP3   OH230939   4.931   1.236  16.802  0.2154 -0.3462 -0.7423
 3175TIP3    H130940   4.997   1.221  16.734  0.6313 -1.6921 -0.0538
 3175TIP3    H230941   4.972   1.206  16.883 -0.3716  1.0181  0.0806
 3176TIP3   OH230942   1.032   1.670   5.515 -0.0384  0.1689 -0.2188
 3176TIP3    H130943   0.948   1.628   5.530 -0.5348  0.4850 -2.0984
 3176TIP3    H230944   1.039   1.679   5.420  0.2927  3.7829  0.0723
 3177TIP3   OH230945   0.098   4.844  12.325 -0.3142 -0.5532 -0.5366
 3177TIP3    H130946   0.081   4.923  12.377 -1.1273  0.2228 -1.9286
 3177TIP3    H230947   0.055   4.862  12.241  0.4197 -2.0421 -1.2417
 3178TIP3   OH230948   3.999   3.668   0.575 -0.7935 -0.6124  0.0764
 3178TIP3    H130949   4.058   3.639   0.506 -0.8434 -1.3269  0.3338
 3178TIP3    H230950   3.953   3.743   0.537  0.4146  0.0776 -0.0582
 3179TIP3   OH230951   5.648   4.970  15.824  0.9836 -0.0858  0.1027
 3179TIP3    H130952   5.576   5.014  15.779  1.0243  0.2315  0.3467
 3179TIP3    H230953   5.646   4.880  15.790  0.7782  0.0498 -0.2503
 3180TIP3   OH230954   4.364   6.340  13.297 -0.1434  0.0071  0.3871
 3180TIP3    H130955   4.393   6.386  13.376 -0.5211 -0.3470  0.7375
 3180TIP3    H230956   4.270   6.357  13.293 -0.1244  0.0172  0.0181
 3181TIP3   OH230957   5.755   3.998   4.715  0.1882 -0.4115  0.5337
 3181TIP3    H130958   5.701   4.055   4.660  0.7338 -0.0696  0.3492
 3181TIP3    H230959   5.700   3.922   4.733  0.5236 -1.1821 -1.6416
 3182TIP3   OH230960   4.811   5.116   1.926 -0.2972 -0.4601 -0.2067
 3182TIP3    H130961   4.765   5.189   1.969 -0.6857 -1.3111  0.8394
 3182TIP3    H230962   4.898   5.150   1.907 -0.3480  0.1588  0.6345
 3183TIP3   OH230963   5.586   4.315   1.281  0.0465  0.3056 -0.4661
 3183TIP3    H130964   5.586   4.351   1.370  1.0059 -0.8437  0.0045
 3183TIP3    H230965   5.671   4.340   1.245  0.4650 -0.9272 -0.3566
 3184TIP3   OH230966   5.310   0.126   5.963  0.2542 -0.2570  0.2494
 3184TIP3    H130967   5.299   0.191   6.032  0.1188  0.4810 -0.4585
 3184TIP3    H230968   5.271   0.047   5.998 -2.8584  0.9948 -0.2872
 3185TIP3   OH230969   5.316   4.806   1.355  0.7120 -0.3425 -0.7955
 3185TIP3    H130970   5.231   4.800   1.397  1.3926 -1.5077  0.4529
 3185TIP3    H230971   5.334   4.716   1.326  1.1499  0.0577 -1.7910
 3186TIP3   OH230972   2.813   4.397   5.799 -0.4177  0.4791 -0.4919
 3186TIP3    H130973   2.813   4.302   5.803  0.0521  0.3710 -2.5729
 3186TIP3    H230974   2.816   4.425   5.890  0.5354 -1.5043  0.1048
 3187TIP3   OH230975   6.185   6.434  15.226  0.4261 -0.0639  0.0402
 3187TIP3    H130976   6.133   6.392  15.157 -0.3705  1.0772 -0.0770
 3187TIP3    H230977   6.266   6.459  15.182 -0.1031  0.7095 -0.5153
 3188TIP3   OH230978   2.834   0.939  14.934  0.4892 -0.6314 -0.0357
 3188TIP3    H130979   2.774   0.984  14.875  1.9625 -0.4781 -1.4458
 3188TIP3    H230980   2.779   0.911  15.008 -0.7295  2.1266  0.1536
 3189TIP3   OH230981   3.622   0.754  16.395  0.4309 -0.1147 -0.1898
 3189TIP3    H130982   3.715   0.744  16.375  1.0306  2.8895  0.8870
 3189TIP3    H230983   3.617   0.751  16.491 -0.5779 -0.1441 -0.2341
 3190TIP3   OH230984   4.134   4.016   5.030 -0.4209 -0.2608  0.6855
 3190TIP3    H130985   4.042   4.030   5.053 -0.7945  2.5769 -2.2854
 3190TIP3    H230986   4.171   3.973   5.107 -4.1147 -1.1105  2.1114
 3191TIP3   OH230987   6.621   1.044   0.826  0.7756 -0.5517  0.0676
 3191TIP3    H130988   6.581   1.111   0.880 -1.0023 -0.8260 -0.8832
 3191TIP3    H230989   6.706   1.082   0.801 -0.1584  1.2997 -0.3834
 3192TIP3   OH230990   6.509   1.107  16.121 -0.4234 -0.0840 -0.3921
 3192TIP3    H130991   6.598   1.141  16.106  0.0872 -1.8365 -1.4984
 3192TIP3    H230992   6.453   1.184  16.114  0.9211  0.9010 -0.6568
 3193TIP3   OH230993   1.911   2.674   1.194 -0.1201  0.0277  0.7540
 3193TIP3    H130994   1.917   2.595   1.141 -3.1334 -0.7716  1.5284
 3193TIP3    H230995   1.918   2.643   1.284  2.5154  1.1040  0.9585
 3194TIP3   OH230996   5.665   4.866  15.257  0.2023  0.5717 -0.3367
 3194TIP3    H130997   5.752   4.893  15.227  0.3437  0.8983  0.3611
 3194TIP3    H230998   5.668   4.877  15.352  0.2405 -1.8704 -0.0405
 3195TIP3   OH230999   3.253   0.809  14.578 -0.0970  0.1691 -0.5179
 3195TIP3    H131000   3.200   0.750  14.632 -0.5935  1.4551  0.3953
 3195TIP3    H231001   3.261   0.762  14.494  1.7322 -2.4135  1.0129
 3196TIP3   OH231002   5.435   2.945   2.801  0.0996 -0.0600 -0.5327
 3196TIP3    H131003   5.503   2.896   2.848 -0.1667  0.0951  0.0148
 3196TIP3    H231004   5.471   2.956   2.712  0.8490  0.1320 -0.2132
 3197TIP3   OH231005   2.173   4.580  13.862 -0.0771  0.2702  0.5384
 3197TIP3    H131006   2.199   4.566  13.953 -0.3457 -1.2748  0.3864
 3197TIP3    H231007   2.077   4.573  13.863 -0.1241  0.7937  0.2173
 3198TIP3   OH231008   4.672   1.604   3.444 -0.0011 -0.4154  0.2490
 3198TIP3    H131009   4.672   1.508   3.447  2.2050 -0.4603 -0.4745
 3198TIP3    H231010   4.626   1.626   3.364  0.5570 -0.9191 -0.2154
 3199TIP3   OH231011   0.741   5.591  16.353  0.2324  0.0982 -0.6193
 3199TIP3    H131012   0.665   5.551  16.393  1.6440 -1.7784  0.2373
 3199TIP3    H231013   0.774   5.526  16.291  0.3651  1.4359 -2.0209
 3200TIP3   OH231014   1.384   0.337   1.231  1.3345  0.5096 -0.6044
 3200TIP3    H131015   1.303   0.286   1.233  2.1528 -0.8479 -1.5461
 3200TIP3    H231016   1.371   0.399   1.159  1.6292 -0.5742 -1.6148
 3201TIP3   OH231017   0.279   1.665   5.272  0.1064 -0.4731 -0.1509
 3201TIP3    H131018   0.221   1.638   5.342  2.0346 -0.8859  1.3404
 3201TIP3    H231019   0.366   1.633   5.299  1.3467  1.7034 -1.3847
 3202TIP3   OH231020   5.824   1.330   3.056 -0.2392 -0.2264 -0.3625
 3202TIP3    H131021   5.769   1.408   3.064 -0.3403 -0.2641 -0.7011
 3202TIP3    H231022   5.913   1.361   3.071 -0.2776 -0.0412 -0.5249
 3203TIP3   OH231023   3.995   4.419  11.914  0.1038  0.3317  0.7593
 3203TIP3    H131024   4.040   4.425  11.830  1.4923  0.3080  1.4986
 3203TIP3    H231025   4.004   4.328  11.940 -0.0214  0.4229  1.1190
 3204TIP3   OH231026   2.475   2.588   4.625 -0.1467  0.2576 -0.5426
 3204TIP3    H131027   2.388   2.562   4.595  1.1741 -1.2939 -3.1513
 3204TIP3    H231028   2.518   2.505   4.647  0.7310  1.0044  0.5663
 3205TIP3   OH231029   2.746   1.595  12.368  0.1007 -0.7658  0.1770
 3205TIP3    H131030   2.809   1.523  12.370  0.3795 -0.5644 -1.1979
 3205TIP3    H231031   2.797   1.673  12.389  0.2295 -0.6658 -0.4969
 3206TIP3   OH231032   6.628   0.763   6.142  0.1389 -0.7045  0.3513
 3206TIP3    H131033   6.623   0.739   6.234  0.0475  0.9623  0.7862
 3206TIP3    H231034   6.537   0.765   6.112  0.2099 -2.0204  0.0051
 3207TIP3   OH231035   2.790   4.021  10.872 -0.2326 -0.3220  0.0108
 3207TIP3    H131036   2.818   3.930  10.872 -1.2868 -0.6663  2.3110
 3207TIP3    H231037   2.709   4.022  10.923 -0.1839  1.9104  0.1054
 3208TIP3   OH231038   1.739   5.180  12.173 -0.1598 -0.2404 -0.6887
 3208TIP3    H131039   1.706   5.230  12.099  0.5463 -1.6247 -1.9809
 3208TIP3    H231040   1.834   5.188  12.167 -0.0452 -1.4855 -0.7633
 3209TIP3   OH231041   3.066   6.369   2.875 -0.4339  0.3630 -0.7739
 3209TIP3    H131042   3.007   6.330   2.811 -2.3069 -2.2182  2.3834
 3209TIP3    H231043   3.133   6.302   2.891  1.4506  1.9307 -1.7373
 3210TIP3   OH231044   2.953   0.250  12.589 -0.2422  0.1429  0.2198
 3210TIP3    H131045   2.980   0.159  12.577 -3.0914 -0.9570  1.5571
 3210TIP3    H231046   2.946   0.285  12.501  1.2609 -0.8122 -0.2977
 3211TIP3   OH231047   3.526   6.717   1.743 -0.3617 -0.7461  0.5200
 3211TIP3    H131048   3.512   6.643   1.802  0.4288 -1.1827  0.1673
 3211TIP3    H231049   3.593   6.687   1.682 -0.5491  0.0137 -0.0659
 3212TIP3   OH231050   4.045   1.885   4.607  0.2429  0.3895 -0.2570
 3212TIP3    H131051   3.997   1.802   4.607 -1.2227  1.2289 -0.0913
 3212TIP3    H231052   4.131   1.862   4.570  0.1901 -1.3853  0.6625
 3213TIP3   OH231053   6.700   3.636  14.525  0.5218  0.3262 -0.6148
 3213TIP3    H131054   6.756   3.618  14.600  0.3553 -0.2159 -0.6201
 3213TIP3    H231055   6.618   3.591  14.545 -0.6101  2.6674  0.2905
 3214TIP3   OH231056   4.294   6.283   4.802 -0.5257  0.6103  0.6075
 3214TIP3    H131057   4.263   6.326   4.722 -1.7713  0.7881  1.1697
 3214TIP3    H231058   4.308   6.355   4.863  1.2330  0.5485  0.2941
 3215TIP3   OH231059   5.475   4.274  12.362 -0.8220 -0.0129 -0.2023
 3215TIP3    H131060   5.527   4.250  12.285  0.7870  0.8514  0.5893
 3215TIP3    H231061   5.451   4.365  12.347  0.6575  0.5877  0.9236
 3216TIP3   OH231062   3.618   5.080   5.537 -0.1145  0.0516 -0.5095
 3216TIP3    H131063   3.608   4.995   5.494 -1.7036 -0.1816  0.2771
 3216TIP3    H231064   3.632   5.058   5.629  0.7198  0.6153 -0.4981
 3217TIP3   OH231065   6.364   4.285  11.732  0.3333  0.1604 -0.2641
 3217TIP3    H131066   6.329   4.367  11.767 -0.4386 -0.4247  0.3739
 3217TIP3    H231067   6.437   4.264  11.789  0.9554  0.7520 -0.8425
 3218TIP3   OH231068   1.336   2.772  13.076 -0.3626  1.1882  0.0411
 3218TIP3    H131069   1.358   2.697  13.131 -0.2472  0.3793 -1.0951
 3218TIP3    H231070   1.251   2.750  13.039  0.6627  0.6118 -2.0280
 3219TIP3   OH231071   2.468   1.717   5.305  0.0851 -0.2065  0.3254
 3219TIP3    H131072   2.425   1.779   5.247 -1.0950  1.3173  2.7229
 3219TIP3    H231073   2.399   1.654   5.328  0.9497 -1.7268 -1.0969
 3220TIP3   OH231074   2.217   5.519  15.123 -0.2841  0.0307  0.0369
 3220TIP3    H131075   2.297   5.506  15.173 -0.9067 -2.1994  0.4948
 3220TIP3    H231076   2.244   5.506  15.032  0.0625  0.2626  0.1020
 3221TIP3   OH231077   3.526   5.595   4.597 -0.1545  0.1103  0.7846
 3221TIP3    H131078   3.482   5.608   4.514 -0.0700  0.3110  0.7725
 3221TIP3    H231079   3.568   5.678   4.616  1.0261 -0.3677  0.3170
 3222TIP3   OH231080   6.113   5.550   0.059 -0.3561 -0.1540  0.7949
 3222TIP3    H131081   6.201   5.575   0.029 -1.1749  1.3884 -0.4284
 3222TIP3    H231082   6.063   5.632   0.057 -2.1172 -1.2073  0.4107
 3223TIP3   OH231083   5.633   4.490  16.893 -0.4118  0.5188  0.2213
 3223TIP3    H131084   5.688   4.429  16.941 -0.9790  0.3243  0.6267
 3223TIP3    H231085   5.547   4.482  16.933 -0.5589  1.3823  0.0980
 3224TIP3   OH231086   1.292   1.795  15.768 -0.5822  0.6758  0.6905
 3224TIP3    H131087   1.228   1.853  15.808 -1.6669  1.2097 -1.7466
 3224TIP3    H231088   1.355   1.854  15.727 -1.0767  0.1262 -0.8563
 3225TIP3   OH231089   1.284   4.501   3.887  0.4602 -0.1317  0.0229
 3225TIP3    H131090   1.284   4.430   3.822  1.3187 -2.0141  1.9882
 3225TIP3    H231091   1.366   4.548   3.870 -0.4900  0.9339 -1.8084
 3226TIP3   OH231092   5.424   0.515  12.905 -0.2708 -0.1940 -0.3418
 3226TIP3    H131093   5.504   0.485  12.947  0.6885 -0.0873 -2.0470
 3226TIP3    H231094   5.453   0.574  12.836 -1.8123 -0.0926 -0.9343
 3227TIP3   OH231095   2.171   4.782   5.700 -0.0841  0.0817 -0.1380
 3227TIP3    H131096   2.139   4.805   5.787 -3.2161  0.2545 -1.2838
 3227TIP3    H231097   2.252   4.834   5.690 -1.4092  2.5597  1.3921
 3228TIP3   OH231098   5.359   0.682  16.163  0.2043 -0.5544  0.4002
 3228TIP3    H131099   5.320   0.617  16.222 -0.0700 -0.6763  0.0884
 3228TIP3    H231100   5.445   0.646  16.141  0.2607 -0.5649  0.6301
 3229TIP3   OH231101   0.300   5.023   2.328  0.1750 -0.4025 -0.2517
 3229TIP3    H131102   0.307   5.041   2.422 -0.8601 -0.0300 -0.2455
 3229TIP3    H231103   0.391   5.026   2.297  0.4458  0.3009  0.5822
 3230TIP3   OH231104   0.794   5.153   5.578  0.3691  0.0682 -0.2954
 3230TIP3    H131105   0.740   5.184   5.505 -1.2797 -0.8261  0.5264
 3230TIP3    H231106   0.840   5.231   5.608  1.5738  0.3417 -2.6849
 3231TIP3   OH231107   5.633   6.081   3.664 -0.6617  0.0679 -0.4697
 3231TIP3    H131108   5.687   6.158   3.647  0.0950 -0.4628 -0.5250
 3231TIP3    H231109   5.624   6.038   3.579  2.1474 -1.9553  0.1353
 3232TIP3   OH231110   3.495   0.607   0.359  0.1879  0.0096 -0.2021
 3232TIP3    H131111   3.494   0.620   0.454  0.7508 -1.2755 -0.0061
 3232TIP3    H231112   3.406   0.626   0.331 -0.4887 -1.5050  0.8587
 3233TIP3   OH231113   5.998   5.451  15.787  0.0586 -0.6845  0.7387
 3233TIP3    H131114   5.922   5.392  15.786 -0.9056  0.5367 -0.0945
 3233TIP3    H231115   5.969   5.527  15.736  1.2760  0.5222  1.8384
 3234TIP3   OH231116   3.653   1.149   1.236  0.0742  0.0715  0.1558
 3234TIP3    H131117   3.590   1.168   1.166  1.1990 -1.0178 -1.2077
 3234TIP3    H231118   3.627   1.206   1.308 -0.9047  1.4922 -1.2788
 3235TIP3   OH231119   2.878   4.178   1.899  0.0988 -0.5359 -0.7033
 3235TIP3    H131120   2.837   4.264   1.893  1.6985  0.2725 -0.3668
 3235TIP3    H231121   2.833   4.135   1.972 -0.4852  0.1373 -0.6638
 3236TIP3   OH231122   1.175   4.621  15.936 -0.1456 -0.2796  0.0369
 3236TIP3    H131123   1.136   4.598  15.852  1.9023  1.6668 -1.4760
 3236TIP3    H231124   1.194   4.714  15.930 -0.2223 -0.0238  2.7846
 3237TIP3   OH231125   3.825   1.142  11.454  0.1445 -0.0397 -0.1958
 3237TIP3    H131126   3.866   1.147  11.541 -2.0911 -0.5090  0.9110
 3237TIP3    H231127   3.742   1.098  11.469 -1.7285  2.7253 -2.0790
 3238TIP3   OH231128   1.819   5.205  15.684 -0.1425  0.4349  0.1465
 3238TIP3    H131129   1.779   5.151  15.616  0.9523  0.7460 -0.7434
 3238TIP3    H231130   1.784   5.169  15.766 -3.8553  1.9811 -0.6579
 3239TIP3   OH231131   5.430   0.821   1.765 -0.1469  0.4188 -0.0851
 3239TIP3    H131132   5.378   0.787   1.838 -2.5911 -2.2779 -2.9456
 3239TIP3    H231133   5.503   0.760   1.757  0.0393  0.6278  0.0220
 3240TIP3   OH231134   1.574   6.267   2.887 -0.1513  0.0431 -0.2878
 3240TIP3    H131135   1.584   6.270   2.982 -0.6608 -1.1523 -0.1839
 3240TIP3    H231136   1.540   6.179   2.869  2.0418 -0.5515 -1.7585
 3241TIP3   OH231137   0.018   6.544   6.643  0.2855 -0.8792 -0.0660
 3241TIP3    H131138   0.062   6.564   6.561  0.1996 -1.7913 -0.3475
 3241TIP3    H231139   0.063   6.598   6.709 -1.1844  1.6343 -1.0639
 3242TIP3   OH231140   2.472   5.615  13.852  0.1981 -0.2982  0.0492
 3242TIP3    H131141   2.397   5.645  13.903 -1.2337 -1.6009 -1.2122
 3242TIP3    H231142   2.512   5.547  13.907  0.7824  0.7818  0.9636
 3243TIP3   OH231143   5.505   5.352  12.006 -0.7029 -1.2206  0.4373
 3243TIP3    H131144   5.421   5.379  11.969 -0.1946  0.3696  0.4331
 3243TIP3    H231145   5.507   5.257  11.993 -2.5952 -1.3066  0.6408
 3244TIP3   OH231146   5.769   2.589   6.902 -0.2385  0.3953  0.1509
 3244TIP3    H131147   5.824   2.625   6.833 -0.8355  1.8848  0.4409
 3244TIP3    H231148   5.752   2.663   6.961 -1.0642 -0.4721  1.0252
 3245TIP3   OH231149   0.057   2.499   0.764  0.3678 -0.3474  0.0947
 3245TIP3    H131150   0.111   2.512   0.841  0.5316 -2.9745  0.4528
 3245TIP3    H231151  -0.030   2.481   0.798  0.0146  0.4145 -0.3913
 3246TIP3   OH231152   6.037   4.003   4.195 -0.0102 -0.3860  0.2746
 3246TIP3    H131153   6.083   4.008   4.279 -0.4462 -0.0035  0.4944
 3246TIP3    H231154   5.948   4.034   4.214 -0.3325 -1.0295 -0.1660
 3247TIP3   OH231155   6.059   6.582  15.442 -0.0291 -0.1649  0.6184
 3247TIP3    H131156   6.149   6.562  15.468  0.8380  2.4739 -0.1569
 3247TIP3    H231157   6.022   6.499  15.413  1.1821 -1.8655  3.7156
 3248TIP3   OH231158   4.339   3.771  11.650  0.6244 -0.1237 -0.1425
 3248TIP3    H131159   4.347   3.707  11.579  1.5387 -0.7975  0.5563
 3248TIP3    H231160   4.404   3.743  11.714 -0.1864  0.5010  0.9521
 3249TIP3   OH231161   3.768   6.536   2.071  0.1736 -0.1400  0.6450
 3249TIP3    H131162   3.750   6.546   1.977 -0.0980  2.5081  0.9506
 3249TIP3    H231163   3.682   6.520   2.110 -0.1339  1.7304  0.7808
 3250TIP3   OH231164   6.476   2.526   2.738 -0.1154  0.2432 -0.2208
 3250TIP3    H131165   6.396   2.565   2.702 -0.4785 -0.9416 -0.7153
 3250TIP3    H231166   6.505   2.588   2.805 -0.4254  1.6061 -1.3118
 3251TIP3   OH231167   5.169   5.288  12.343 -0.6697  0.2101 -0.4752
 3251TIP3    H131168   5.129   5.335  12.269  0.1282  0.2053 -0.9187
 3251TIP3    H231169   5.263   5.292  12.325 -0.5649 -1.0866 -0.2242
 3252TIP3   OH231170   3.327   1.317   2.588 -0.0756 -0.0335 -0.3666
 3252TIP3    H131171   3.358   1.227   2.581 -0.3037 -0.2139  0.8747
 3252TIP3    H231172   3.289   1.336   2.502  0.1469 -1.0487 -0.6972
 3253TIP3   OH231173   5.176   5.104  13.372 -0.2402  0.4360  0.1181
 3253TIP3    H131174   5.248   5.082  13.312 -0.3625 -1.1086  0.5197
 3253TIP3    H231175   5.130   5.176  13.328 -0.5364 -0.9010 -1.8236
 3254TIP3   OH231176   1.174   0.877  16.450 -0.0166  0.2709 -0.3469
 3254TIP3    H131177   1.150   0.854  16.540  0.1967 -0.2114 -0.4113
 3254TIP3    H231178   1.260   0.836  16.438 -0.9872 -1.4463 -1.4851
 3255TIP3   OH231179   6.699   6.611   0.983  0.2563  0.2213  0.1428
 3255TIP3    H131180   6.656   6.551   1.044  0.5332 -0.0967  0.0264
 3255TIP3    H231181   6.683   6.698   1.020  1.3284 -0.0291  1.2508
 3256TIP3   OH231182   2.779   1.626  15.772  0.4426  0.4016 -0.1765
 3256TIP3    H131183   2.869   1.628  15.807  0.0772  0.4499  0.7869
 3256TIP3    H231184   2.778   1.692  15.703  0.6631  1.6792  1.0257
 3257TIP3   OH231185   1.727   1.515   1.524  0.4052 -0.2520  0.3189
 3257TIP3    H131186   1.685   1.595   1.492 -0.2133 -0.7697 -0.1790
 3257TIP3    H231187   1.694   1.505   1.613  0.7672  0.2432  0.5110
 3258TIP3   OH231188   5.262   2.090  14.773 -0.2421  0.3496  0.1828
 3258TIP3    H131189   5.210   2.116  14.697  1.2481  2.7667 -0.0634
 3258TIP3    H231190   5.349   2.072  14.737  0.3069  0.9163  1.2265
 3259TIP3   OH231191   4.332   2.245   0.966  0.4402  0.2914  0.0136
 3259TIP3    H131192   4.403   2.287   1.014  0.2639 -1.2141  1.6304
 3259TIP3    H231193   4.312   2.166   1.016 -0.7497 -0.5598 -1.7389
 3260TIP3   OH231194   6.657   5.492  12.968 -0.2732  0.1767  0.9901
 3260TIP3    H131195   6.718   5.434  12.923  0.5340  0.5491  1.5959
 3260TIP3    H231196   6.648   5.454  13.056  1.8168  2.0569  2.0613
 3261TIP3   OH231197   0.345   5.500  13.973  0.0510  0.3244  0.0015
 3261TIP3    H131198   0.335   5.468  13.883 -1.0186 -0.6180  0.4404
 3261TIP3    H231199   0.363   5.593  13.963  0.4179  0.1375 -1.2100
 3262TIP3   OH231200   4.057   3.124   4.760  0.0143  0.0996  0.1928
 3262TIP3    H131201   3.990   3.157   4.699 -0.7628  0.8580  1.4148
 3262TIP3    H231202   4.012   3.056   4.810  0.3927  0.0462  0.4600
 3263TIP3   OH231203   4.685   6.604  13.603  0.5896 -0.4997 -0.5020
 3263TIP3    H131204   4.780   6.610  13.595  0.7275  1.0902  1.7457
 3263TIP3    H231205   4.670   6.532  13.665  0.1771 -2.4263 -2.7441
 3264TIP3   OH231206   3.411   2.853  13.847 -0.1309  0.2857  0.5409
 3264TIP3    H131207   3.371   2.836  13.932 -1.3524  1.0194  0.1136
 3264TIP3    H231208   3.482   2.788  13.841  1.2566  1.4891  2.9726
 3265TIP3   OH231209   1.605   5.102   1.978 -0.0169 -0.2170  0.0965
 3265TIP3    H131210   1.602   5.008   1.996  2.2847 -0.3133  0.0612
 3265TIP3    H231211   1.688   5.131   2.015 -0.0001  1.5200 -1.2563
 3266TIP3   OH231212   0.630   4.869  15.566 -0.4136 -0.4118  0.4884
 3266TIP3    H131213   0.718   4.899  15.586 -0.3520  0.1062 -0.4888
 3266TIP3    H231214   0.585   4.948  15.533 -1.3297 -0.5961  1.2814
 3267TIP3   OH231215   1.232   2.622  12.358  0.2313  0.2214  0.4646
 3267TIP3    H131216   1.256   2.701  12.407 -0.5487 -1.0679  3.0271
 3267TIP3    H231217   1.296   2.557  12.386 -0.7670 -0.7737  0.4828
 3268TIP3   OH231218   1.479   3.033  11.644 -0.6381 -0.8243  0.0679
 3268TIP3    H131219   1.460   2.944  11.676 -1.3946 -0.1364  1.6114
 3268TIP3    H231220   1.567   3.052  11.678 -1.4687 -0.0678  1.8862
 3269TIP3   OH231221   5.668   5.378  16.491 -0.1932  0.2952 -0.0254
 3269TIP3    H131222   5.611   5.401  16.418  1.5992 -0.4452 -1.7100
 3269TIP3    H231223   5.626   5.301  16.531  0.1578 -0.9228 -1.9285
 3270TIP3   OH231224   6.712   5.386  13.711 -0.7070 -0.0097  0.8331
 3270TIP3    H131225   6.801   5.354  13.725 -0.3668  0.8869  0.7937
 3270TIP3    H231226   6.665   5.312  13.672  0.9926  0.6516 -2.6606
 3271TIP3   OH231227   0.903   2.936  11.284 -0.2627  0.6523  0.0489
 3271TIP3    H131228   0.935   3.022  11.255 -2.2714  1.0551 -1.0262
 3271TIP3    H231229   0.952   2.873  11.231  1.1208  1.1323  0.7441
 3272TIP3   OH231230   2.012   0.880   0.504 -0.6072  0.0756 -0.2845
 3272TIP3    H131231   2.002   0.945   0.434 -0.4493  0.6833  0.2538
 3272TIP3    H231232   1.999   0.796   0.460  3.6856  0.1517 -1.9210
 3273TIP3   OH231233   4.039   0.482   1.927 -0.1346  0.2328  0.0505
 3273TIP3    H131234   4.069   0.421   1.860  1.3517  2.6102 -1.5506
 3273TIP3    H231235   3.962   0.525   1.889 -0.5127  0.1391  0.7001
 3274TIP3   OH231236   5.187   4.202  13.938  0.0812  0.1440 -0.3994
 3274TIP3    H131237   5.106   4.159  13.966  0.0824  0.9394  0.8230
 3274TIP3    H231238   5.182   4.290  13.976  1.1469  0.4658 -0.9938
 3275TIP3   OH231239   4.632   3.920   2.142  0.1126  0.4112  0.0174
 3275TIP3    H131240   4.564   3.921   2.209  0.1574  1.6970  0.0564
 3275TIP3    H231241   4.711   3.893   2.189 -0.4662 -1.6839 -0.1533
 3276TIP3   OH231242   4.059   0.849  11.549 -0.0062 -0.2222  0.2241
 3276TIP3    H131243   4.038   0.870  11.640 -1.0507 -0.2792  0.0064
 3276TIP3    H231244   4.019   0.764  11.534  0.8028 -0.5477 -0.0704
 3277TIP3   OH231245   5.660   2.811  12.201 -0.2950  0.6686  0.5089
 3277TIP3    H131246   5.604   2.864  12.144  0.6054  1.0356 -0.0454
 3277TIP3    H231247   5.719   2.766  12.141  0.4120  0.7579  1.1384
 3278TIP3   OH231248   0.148   2.231   4.195 -0.7411  0.5904  0.1909
 3278TIP3    H131249   0.130   2.264   4.107 -3.2763  0.3839  0.5746
 3278TIP3    H231250   0.213   2.163   4.182 -0.0233  1.5336 -1.3523
 3279TIP3   OH231251   4.036   0.804  12.828  0.5338 -0.1826  0.9636
 3279TIP3    H131252   4.109   0.780  12.886  1.6987  0.7669 -0.0784
 3279TIP3    H231253   4.047   0.898  12.814  0.8838 -0.5978 -1.6374
 3280TIP3   OH231254   4.769   3.160   4.557 -1.0608 -0.0570 -0.5311
 3280TIP3    H131255   4.721   3.212   4.620 -1.1737 -0.4154 -0.3188
 3280TIP3    H231256   4.824   3.222   4.510  0.6138 -0.0768  1.3678
 3281TIP3   OH231257   4.182   4.625   5.525 -0.1069 -0.2865 -0.5110
 3281TIP3    H131258   4.090   4.602   5.542  0.1336 -0.3912  0.7407
 3281TIP3    H231259   4.185   4.647   5.432 -0.3289 -5.4895 -1.8795
 3282TIP3   OH231260   6.525   5.836   4.123 -0.0684  0.4388  0.0903
 3282TIP3    H131261   6.612   5.830   4.163  0.1492  0.8365 -0.3155
 3282TIP3    H231262   6.517   5.756   4.071 -0.9216 -0.7630  2.0368
 3283TIP3   OH231263   2.024   0.643  15.426  0.3599  0.3647 -0.6251
 3283TIP3    H131264   2.063   0.674  15.507 -2.3207 -0.3203  1.0272
 3283TIP3    H231265   1.956   0.707  15.405 -0.6892 -0.7982 -0.8876
 3284TIP3   OH231266   2.568   0.601   0.296  0.2585  0.3319  0.1061
 3284TIP3    H131267   2.559   0.634   0.207  2.0535  2.4311  0.6595
 3284TIP3    H231268   2.480   0.574   0.321 -0.9898  3.2262 -0.9682
 3285TIP3   OH231269   3.456   2.080   2.731 -0.0439  0.0888  0.8035
 3285TIP3    H131270   3.388   2.113   2.673 -0.4705 -3.7078 -0.9536
 3285TIP3    H231271   3.538   2.110   2.691 -0.5245  2.0229  1.2257
 3286TIP3   OH231272   2.905   5.323  13.471 -0.0322  0.0709 -0.3812
 3286TIP3    H131273   2.846   5.351  13.541 -0.1622 -0.8461 -0.1200
 3286TIP3    H231274   2.991   5.356  13.498 -0.7038  3.0286 -1.6736
 3287TIP3   OH231275   2.709   0.153   4.994  0.0339  0.1628  0.5947
 3287TIP3    H131276   2.683   0.069   5.032 -1.7335  1.6372  2.8081
 3287TIP3    H231277   2.786   0.133   4.941 -0.1683 -2.7890  1.3338
 3288TIP3   OH231278   3.909   4.660   3.229 -0.0652 -0.3032 -0.6321
 3288TIP3    H131279   3.938   4.707   3.307 -0.9058 -0.6787 -0.0851
 3288TIP3    H231280   3.835   4.710   3.197  0.2912 -0.1398 -1.2103
 3289TIP3   OH231281   5.318   2.693   5.865  0.0771  0.5437 -0.1838
 3289TIP3    H131282   5.346   2.773   5.910  1.1499  0.4549 -0.6906
 3289TIP3    H231283   5.337   2.709   5.773 -1.2287  0.3422 -0.5085
 3290TIP3   OH231284   4.557   6.319   0.084  0.2230 -0.1344  0.0895
 3290TIP3    H131285   4.556   6.237   0.034  1.3416 -0.4241  0.5342
 3290TIP3    H231286   4.493   6.305   0.154  2.0229 -1.4899  1.4964
 3291TIP3   OH231287   2.803   5.999  14.197  0.2242  0.0781  0.2685
 3291TIP3    H131288   2.828   6.051  14.121  0.2582 -0.5199 -0.1295
 3291TIP3    H231289   2.727   6.045  14.233  0.6275  0.7458  0.2811
 3292TIP3   OH231290   5.760   6.298   2.391  0.6193  0.0353  0.3282
 3292TIP3    H131291   5.733   6.390   2.388 -0.1302 -0.1680  0.6944
 3292TIP3    H231292   5.831   6.292   2.327 -0.2954  0.5596 -0.7509
 3293TIP3   OH231293   0.610   2.816  13.117  0.1720 -0.4912 -0.2281
 3293TIP3    H131294   0.593   2.909  13.127  0.0191 -0.4477 -0.8552
 3293TIP3    H231295   0.685   2.811  13.057 -0.7911 -0.7928 -1.4472
 3294TIP3   OH231296   6.356   4.200   2.938 -0.5663 -0.0353 -0.5306
 3294TIP3    H131297   6.386   4.121   2.892  0.0743  0.0317 -0.2326
 3294TIP3    H231298   6.263   4.184   2.955 -0.9976  0.2607 -2.5096
 3295TIP3   OH231299   1.101   4.537  15.687  0.0458  0.1456  0.3606
 3295TIP3    H131300   1.148   4.454  15.676  0.8019  0.7964 -1.4123
 3295TIP3    H231301   1.011   4.516  15.663  0.5113  0.1560 -1.4161
 3296TIP3   OH231302   2.130   5.411   6.138  0.1054 -0.0186  0.5238
 3296TIP3    H131303   2.071   5.336   6.151 -0.0249  0.2194  1.3528
 3296TIP3    H231304   2.071   5.483   6.117  0.2060 -0.0779  0.0363
 3297TIP3   OH231305   4.319   1.724   2.666 -0.0420  0.1611 -0.3506
 3297TIP3    H131306   4.403   1.714   2.711  0.0179 -1.3896 -0.7608
 3297TIP3    H231307   4.257   1.675   2.720 -0.6949  1.3603 -0.0104
 3298TIP3   OH231308   3.574   6.605  12.150 -0.6379  0.3256 -0.4716
 3298TIP3    H131309   3.611   6.587  12.063 -0.2461  0.0816 -0.2517
 3298TIP3    H231310   3.645   6.646  12.198  0.1503 -2.3895  0.7573
 3299TIP3   OH231311   3.310   1.066  13.112 -0.1910 -0.3302 -0.7694
 3299TIP3    H131312   3.295   1.138  13.052  0.3712 -1.5743 -2.4530
 3299TIP3    H231313   3.317   0.989  13.056  1.2474 -1.4014  0.8298
 3300TIP3   OH231314   3.516   2.649   3.979  0.7875  0.1181  0.1941
 3300TIP3    H131315   3.459   2.718   3.945 -1.1918 -1.0831  1.0167
 3300TIP3    H231316   3.566   2.692   4.049 -0.1558  0.8238  0.4469
 3301TIP3   OH231317   6.768   2.922  11.523 -0.1868  0.1222 -0.0732
 3301TIP3    H131318   6.748   2.981  11.450  0.3439 -2.6942 -2.6084
 3301TIP3    H231319   6.826   2.973  11.580 -1.7361  2.8719 -0.8403
 3302TIP3   OH231320   0.750   2.627   5.320  0.2348  0.0081 -0.7149
 3302TIP3    H131321   0.715   2.550   5.365 -0.5594  1.3481  1.0504
 3302TIP3    H231322   0.764   2.598   5.230 -0.6444 -2.0130 -0.2337
 3303TIP3   OH231323   0.678   4.497  12.767 -0.0817 -0.7796 -0.5105
 3303TIP3    H131324   0.628   4.425  12.805 -0.6590  0.0374  0.3119
 3303TIP3    H231325   0.618   4.539  12.706  0.1009 -0.7341 -0.6572
 3304TIP3   OH231326   0.204   4.021   3.904  0.4477  0.7752 -0.2347
 3304TIP3    H131327   0.288   3.987   3.935 -0.4910  1.4486  3.3173
 3304TIP3    H231328   0.156   3.945   3.873  0.8724 -0.2409  1.5200
 3305TIP3   OH231329   2.444   2.238  11.839  0.4560  0.0168 -0.4773
 3305TIP3    H131330   2.468   2.145  11.835 -0.0322 -0.0986 -0.6991
 3305TIP3    H231331   2.506   2.275  11.902 -0.0725 -0.6742  0.4603
 3306TIP3   OH231332   4.927   6.416  11.177 -0.5100 -0.5484 -0.1330
 3306TIP3    H131333   4.975   6.342  11.140  0.3260 -1.4038  2.5715
 3306TIP3    H231334   4.979   6.493  11.152 -1.4251 -0.8237 -3.0097
 3307TIP3   OH231335   3.780   5.194   1.587 -0.2878 -0.1774  0.3847
 3307TIP3    H131336   3.805   5.102   1.587 -1.4067 -0.5010  0.8455
 3307TIP3    H231337   3.717   5.201   1.659 -0.0730  0.9830  0.4651
 3308TIP3   OH231338   0.945   2.817  15.504  0.5284 -0.1002  0.8869
 3308TIP3    H131339   0.894   2.891  15.471 -0.6506 -1.6219 -0.8306
 3308TIP3    H231340   0.998   2.853  15.574  0.6317  2.5586 -0.5195
 3309TIP3   OH231341   6.764   2.528   3.787 -0.4541 -0.1268 -0.3216
 3309TIP3    H131342   6.708   2.534   3.709  0.5691  0.7210 -0.9982
 3309TIP3    H231343   6.702   2.515   3.859 -1.4676 -0.1206 -1.1701
 3310TIP3   OH231344   6.185   3.682  11.856  0.0111  0.5280  0.0159
 3310TIP3    H131345   6.259   3.621  11.850  0.9971  1.5801  1.2000
 3310TIP3    H231346   6.176   3.698  11.950 -1.0076  1.2776 -0.2119
 3311TIP3   OH231347   4.983   2.542  12.168  0.0299  0.2170  0.5811
 3311TIP3    H131348   4.953   2.524  12.079  2.7454  0.5854 -0.4521
 3311TIP3    H231349   5.055   2.480  12.182 -0.1679  0.3656  2.4280
 3312TIP3   OH231350   5.957   0.509  16.190 -0.1858  1.0155  0.0907
 3312TIP3    H131351   5.908   0.438  16.146 -0.0448  0.9994 -0.0404
 3312TIP3    H231352   5.913   0.519  16.274 -0.0163  0.5593  0.2372
 3313TIP3   OH231353   2.086   2.812  10.910  0.2655 -0.0814  0.1304
 3313TIP3    H131354   2.120   2.897  10.883 -0.9531  0.3131 -0.1843
 3313TIP3    H231355   2.150   2.749  10.876  0.1332  0.5758 -1.4005
 3314TIP3   OH231356   2.431   0.000  12.806 -0.1691  0.4192  0.6622
 3314TIP3    H131357   2.476   0.085  12.805  0.2458  0.2138 -1.9693
 3314TIP3    H231358   2.359   0.012  12.868 -0.2844  2.8144  0.1396
 3315TIP3   OH231359   2.836   3.839  11.785  0.3028 -0.1415 -0.4108
 3315TIP3    H131360   2.779   3.800  11.719 -0.9163 -0.5485  0.8698
 3315TIP3    H231361   2.777   3.885  11.845  1.4677  0.9550 -0.0853
 3316TIP3   OH231362   4.684   5.899  16.278  0.0226  0.7157  0.1320
 3316TIP3    H131363   4.727   5.917  16.194  0.4005  0.0151  0.1682
 3316TIP3    H231364   4.689   5.981  16.326  1.1393  0.7085  0.0473
 3317TIP3   OH231365   3.782   5.421  11.602  0.1226 -0.1301 -0.5067
 3317TIP3    H131366   3.742   5.399  11.686  0.3557  2.2646  0.2692
 3317TIP3    H231367   3.735   5.499  11.572  1.0133 -0.1065 -1.8852
 3318TIP3   OH231368   4.420   2.922   2.579  0.1637  0.4439  0.6958
 3318TIP3    H131369   4.446   2.995   2.636  3.9721 -0.1968 -0.1259
 3318TIP3    H231370   4.446   2.844   2.628  0.5008 -0.2150 -0.5339
 3319TIP3   OH231371   6.095   1.543   1.555 -0.0942 -0.1249  0.4101
 3319TIP3    H131372   6.178   1.520   1.513 -0.4646 -0.4680 -0.1465
 3319TIP3    H231373   6.031   1.486   1.513 -0.3629 -0.9515  1.9377
 3320TIP3   OH231374   5.833   1.768  11.858 -1.0735  0.4717 -0.0802
 3320TIP3    H131375   5.774   1.704  11.820 -0.0440 -0.8338  0.4442
 3320TIP3    H231376   5.921   1.731  11.844 -0.4529  1.8377  0.1034
 3321TIP3   OH231377   3.260   0.629   5.397 -0.4678  0.2296  0.0896
 3321TIP3    H131378   3.171   0.664   5.396 -1.8699 -3.2223 -2.1240
 3321TIP3    H231379   3.291   0.638   5.307  0.6198 -0.5900  0.3638
 3322TIP3   OH231380   3.737   0.653  15.494  0.3223  0.3339 -0.4737
 3322TIP3    H131381   3.664   0.615  15.543 -0.1426  0.3838 -1.1213
 3322TIP3    H231382   3.790   0.696  15.561 -0.2290  0.2858  0.0054
 3323TIP3   OH231383   0.729   0.580   3.386 -0.1208 -0.2397 -0.3189
 3323TIP3    H131384   0.742   0.507   3.446 -0.1100  0.8361  1.0217
 3323TIP3    H231385   0.817   0.603   3.357  0.0141  0.0704  0.3031
 3324TIP3   OH231386   3.864   2.099  14.283  0.2855  0.4111 -0.1905
 3324TIP3    H131387   3.878   2.092  14.377 -1.7688  0.2827  0.1306
 3324TIP3    H231388   3.848   2.009  14.254  0.5912  0.4910 -0.6110
 3325TIP3   OH231389   3.611   1.159  15.265 -0.2416  0.2398 -0.1963
 3325TIP3    H131390   3.667   1.233  15.291 -0.3609 -0.2389  1.5273
 3325TIP3    H231391   3.531   1.171  15.317  0.0094 -1.4599  0.6372
 3326TIP3   OH231392   1.010   1.353  15.516 -0.1322 -0.4954 -0.2394
 3326TIP3    H131393   0.942   1.410  15.479 -1.4876 -1.5599  0.5615
 3326TIP3    H231394   0.966   1.270  15.532  0.4832 -0.2476  3.2701
 3327TIP3   OH231395   3.896   5.209  12.437  0.0822 -0.0813 -0.2437
 3327TIP3    H131396   3.825   5.193  12.375 -2.4035  0.1991  2.4272
 3327TIP3    H231397   3.923   5.299  12.420 -1.7920  0.5953  0.2142
 3328TIP3   OH231398   3.803   4.683  10.449 -0.1618  0.8732 -0.2400
 3328TIP3    H131399   3.742   4.675  10.523 -0.1045  0.2876 -0.2599
 3328TIP3    H231400   3.775   4.616  10.388  1.5431 -0.5072  0.4718
 3329TIP3   OH231401   1.806   6.045  15.576 -0.3198 -0.1513  0.8220
 3329TIP3    H131402   1.774   5.958  15.598 -0.0263 -0.6205 -0.5544
 3329TIP3    H231403   1.898   6.032  15.551 -0.0707  0.6563  1.2716
 3330TIP3   OH231404   0.828   1.489   1.136  0.4166 -0.1547 -0.1453
 3330TIP3    H131405   0.778   1.501   1.217  0.8233 -0.9903  0.2320
 3330TIP3    H231406   0.919   1.483   1.164  0.7572  1.4070 -0.8440
 3331TIP3   OH231407   6.322   1.963  15.132 -0.6439  0.0427  0.3801
 3331TIP3    H131408   6.394   2.026  15.136 -1.1324  0.6027  0.4234
 3331TIP3    H231409   6.244   2.016  15.116 -0.9346 -0.6370 -0.5525
 3332TIP3   OH231410   2.830   6.342   2.211 -0.6586 -0.3086 -0.0504
 3332TIP3    H131411   2.775   6.308   2.281  0.0133  1.5072  1.3781
 3332TIP3    H231412   2.768   6.364   2.141 -1.6636  0.7810  1.1551
 3333TIP3   OH231413   0.129   5.705  16.956 -0.9510  0.6023  0.0572
 3333TIP3    H131414   0.041   5.741  16.963 -1.1238  0.1646  0.1787
 3333TIP3    H231415   0.118   5.612  16.976 -0.2762  0.7722  1.2888
 3334TIP3   OH231416   5.918   0.361  12.235 -0.3725  0.0677  0.8074
 3334TIP3    H131417   5.957   0.444  12.207 -0.5926  0.0473  0.4247
 3334TIP3    H231418   5.966   0.295  12.186  0.3813 -0.0908  1.7674
 3335TIP3   OH231419   2.855   1.034   5.165 -0.2433  0.2113  0.3213
 3335TIP3    H131420   2.893   1.052   5.079  0.7889 -1.6951  0.3374
 3335TIP3    H231421   2.832   0.941   5.162  1.1386 -0.2419  2.5986
 3336TIP3   OH231422   1.636   5.836   3.838  0.0449  0.0808 -0.4450
 3336TIP3    H131423   1.694   5.788   3.897  2.4525  1.2721 -1.7737
 3336TIP3    H231424   1.581   5.769   3.798 -0.5311 -0.9106  1.9276
 3337TIP3   OH231425   2.166   5.521   0.959 -0.1618 -0.2294 -0.2410
 3337TIP3    H131426   2.147   5.465   1.035 -0.6866 -0.4564 -0.5386
 3337TIP3    H231427   2.246   5.567   0.983 -0.8172  0.3648  0.8216
 3338TIP3   OH231428   5.471   5.722   5.922 -0.1791  0.3502  0.1332
 3338TIP3    H131429   5.456   5.810   5.886 -0.7883  0.0967 -0.2301
 3338TIP3    H231430   5.565   5.708   5.913  0.1362  1.5007  1.4019
 3339TIP3   OH231431   1.169   1.159   2.583 -0.2541 -0.1471 -0.7305
 3339TIP3    H131432   1.176   1.238   2.636 -0.7696 -0.4344 -0.2181
 3339TIP3    H231433   1.149   1.090   2.647  1.3184 -0.9020 -1.0082
 3340TIP3   OH231434   1.340   1.959   6.444  0.1114 -0.3326 -0.1749
 3340TIP3    H131435   1.396   2.032   6.473 -1.4024  0.4557  0.8359
 3340TIP3    H231436   1.399   1.900   6.397  1.8738  0.2998  1.2040
 3341TIP3   OH231437   2.268   3.796   5.757  0.2922  0.1418 -0.1536
 3341TIP3    H131438   2.323   3.752   5.692 -0.2988  0.2320 -0.7163
 3341TIP3    H231439   2.201   3.841   5.705 -1.0425 -0.9605  0.5768
 3342TIP3   OH231440   2.172   0.590  11.779  0.4025 -0.6393 -0.3073
 3342TIP3    H131441   2.090   0.626  11.743  1.5749  3.1272  0.5023
 3342TIP3    H231442   2.150   0.570  11.870  0.0299 -0.8299 -0.4393
 3343TIP3   OH231443   5.247   0.303  12.944  0.5258 -0.4280  0.2296
 3343TIP3    H131444   5.207   0.292  12.858 -0.8630  0.9039  0.7065
 3343TIP3    H231445   5.329   0.349  12.927  0.2659 -0.1966 -0.3737
 3344TIP3   OH231446   6.063   0.137   5.390 -0.2459 -0.0957  0.0360
 3344TIP3    H131447   6.026   0.186   5.317 -0.1653 -1.3746 -0.8869
 3344TIP3    H231448   6.136   0.089   5.351 -0.2209 -0.8034  0.9535
 3345TIP3   OH231449   0.517   1.598   1.753  0.2829 -0.1114 -0.0014
 3345TIP3    H131450   0.446   1.656   1.725 -1.0217 -2.6375 -2.1243
 3345TIP3    H231451   0.475   1.515   1.772  2.5082 -1.2748  0.0302
 3346TIP3   OH231452   2.844   3.317  10.694  0.4995 -0.6303 -0.1398
 3346TIP3    H131453   2.887   3.266  10.625  0.7369 -0.1913 -0.3205
 3346TIP3    H231454   2.752   3.290  10.690 -0.0521  1.4726 -2.5428
 3347TIP3   OH231455   1.394   1.248   1.729 -0.2635  0.0704 -0.1203
 3347TIP3    H131456   1.393   1.166   1.778 -0.7036 -0.0508 -0.3378
 3347TIP3    H231457   1.418   1.224   1.640  0.4954  0.2875  0.0213
 3348TIP3   OH231458   5.243   5.688  11.736  0.9167 -0.4341  0.2666
 3348TIP3    H131459   5.188   5.753  11.781  0.5422 -0.3058 -0.3743
 3348TIP3    H231460   5.182   5.639  11.681  1.4898 -0.0876 -0.6819
 3349TIP3   OH231461   0.674   6.002   1.728 -0.3019  0.2560 -0.4054
 3349TIP3    H131462   0.746   5.954   1.687 -1.3403 -0.1390 -1.7932
 3349TIP3    H231463   0.680   5.978   1.821  1.0595 -0.1495 -0.5810
 3350TIP3   OH231464   5.940   0.679  17.053 -0.0599 -0.2644 -0.2743
 3350TIP3    H131465   5.932   0.731  17.133  0.1957 -0.1015 -0.3562
 3350TIP3    H231466   6.034   0.669  17.040 -0.1024 -0.3167 -0.5391
 3351TIP3   OH231467   6.744   5.468  14.245  0.2508 -0.2181 -0.1208
 3351TIP3    H131468   6.824   5.415  14.237  0.8606  0.5783  0.5267
 3351TIP3    H231469   6.673   5.404  14.249  0.9903 -1.0067  0.8265
 3352TIP3   OH231470   1.354   4.892   0.867  1.0095  0.2555 -0.0756
 3352TIP3    H131471   1.301   4.971   0.853  1.1200  0.2719 -0.4119
 3352TIP3    H231472   1.302   4.839   0.928  0.7097  0.3693 -0.2285
 3353TIP3   OH231473   4.702   6.482   1.257  0.1798  0.1310  0.9297
 3353TIP3    H131474   4.615   6.443   1.265 -0.3590  0.9361 -0.8738
 3353TIP3    H231475   4.749   6.423   1.197  0.3741  0.5496  0.6704
 3354TIP3   OH231476   3.984   2.079  13.164 -0.0276  0.0618 -0.1401
 3354TIP3    H131477   3.897   2.116  13.149  0.0359  0.2165 -0.1205
 3354TIP3    H231478   3.991   2.009  13.099 -1.3536 -1.9216  1.7688
 3355TIP3   OH231479   2.110   6.547   1.716  0.3626 -0.1471  0.4729
 3355TIP3    H131480   2.109   6.471   1.659  0.2311 -0.2951  0.6742
 3355TIP3    H231481   2.079   6.619   1.660 -1.0590 -0.5487  0.7244
 3356TIP3   OH231482   6.020   0.155  11.517  0.1322  0.5448  0.0159
 3356TIP3    H131483   6.086   0.219  11.542  0.1950  0.0881  1.0150
 3356TIP3    H231484   5.975   0.196  11.443  1.2194  1.0551 -0.3785
 3357TIP3   OH231485   3.832   3.206   0.742 -0.4047  0.1569  0.7595
 3357TIP3    H131486   3.759   3.267   0.753 -0.2618  0.4403  0.1813
 3357TIP3    H231487   3.809   3.155   0.665 -0.5523 -0.5731  1.2794
 3358TIP3   OH231488   4.530   2.949   1.479 -0.0269 -0.2527 -0.6425
 3358TIP3    H131489   4.506   2.931   1.570  0.6577  0.2131 -0.3616
 3358TIP3    H231490   4.612   2.901   1.466  0.8839  1.1937 -0.4245
 3359TIP3   OH231491   2.232   2.905   3.514  0.1545  0.2509  0.4410
 3359TIP3    H131492   2.219   2.955   3.595  1.1029  0.6446  0.3462
 3359TIP3    H231493   2.190   2.821   3.532  0.3380  0.3428  1.3389
 3360TIP3   OH231494   4.715   1.887  11.279  0.2694 -0.2493  0.0164
 3360TIP3    H131495   4.736   1.825  11.210  0.8493 -1.4667  1.2538
 3360TIP3    H231496   4.645   1.941  11.243  1.0392 -0.4124 -1.7598
 3361TIP3   OH231497   0.886   1.029  16.167 -0.4602  0.0908  0.4042
 3361TIP3    H131498   0.872   1.087  16.242 -1.4844 -2.4948  2.3280
 3361TIP3    H231499   0.816   1.052  16.106 -2.3286 -0.6619  2.1845
 3362TIP3   OH231500   3.603   1.245  11.237  0.0101  0.4646 -0.2149
 3362TIP3    H131501   3.589   1.291  11.320 -1.5519  1.2124 -0.8502
 3362TIP3    H231502   3.539   1.285  11.178  0.6902 -0.4850 -1.6044
 3363TIP3   OH231503   1.994   5.883   5.589  1.0480 -0.1680 -0.0127
 3363TIP3    H131504   1.970   5.926   5.507 -0.3299  0.2640  0.6009
 3363TIP3    H231505   1.912   5.845   5.621  1.6055 -0.4764  1.0780
 3364TIP3   OH231506   6.270   0.706  13.761 -0.2453 -0.0933 -0.2569
 3364TIP3    H131507   6.236   0.772  13.822  0.1047 -0.7888  0.7072
 3364TIP3    H231508   6.360   0.734  13.745  0.1960 -0.8353  0.8775
 3365TIP3   OH231509   4.784   6.717   2.375 -0.0063 -0.2570  0.8070
 3365TIP3    H131510   4.834   6.719   2.294 -0.1415 -2.0714  0.6525
 3365TIP3    H231511   4.850   6.720   2.444  0.1208  1.0192  0.6425
 3366TIP3   OH231512   3.610   0.230   5.215 -0.2114  0.5145  0.2984
 3366TIP3    H131513   3.522   0.232   5.254  0.5387 -3.3313  2.4160
 3366TIP3    H231514   3.658   0.299   5.261 -1.4657  1.1100  0.7488
 3367TIP3   OH231515   1.978   2.916  14.530  0.2160 -0.4117  0.5255
 3367TIP3    H131516   2.008   2.985  14.470  2.2672 -0.7594  1.0870
 3367TIP3    H231517   1.988   2.955  14.617 -2.0519 -0.1672  0.6900
 3368TIP3   OH231518   3.122   1.513  14.594 -0.2550 -0.5369 -0.1484
 3368TIP3    H131519   3.089   1.570  14.524  0.3571  0.0882  0.0727
 3368TIP3    H231520   3.151   1.435  14.548 -2.2980 -1.2310 -0.3310
 3369TIP3   OH231521   2.488   6.506   4.505 -0.0293  0.4230  0.4578
 3369TIP3    H131522   2.581   6.516   4.486 -0.3284  0.8526 -0.8137
 3369TIP3    H231523   2.477   6.413   4.526  0.7996  0.5077  1.2856
 3370TIP3   OH231524   4.064   5.768   3.160  0.3572  0.1728  0.9042
 3370TIP3    H131525   4.140   5.749   3.105 -1.3242 -3.0110 -0.4779
 3370TIP3    H231526   4.030   5.682   3.185 -3.0640  1.4714  1.0746
 3371TIP3   OH231527   2.626   1.853   3.791  0.1025 -0.3788 -0.0905
 3371TIP3    H131528   2.698   1.818   3.844 -0.0841  1.2694  1.2860
 3371TIP3    H231529   2.670   1.898   3.719  0.3561 -2.6105 -1.3980
 3372TIP3   OH231530   6.054   3.251  16.574  0.1921  0.4038  0.3214
 3372TIP3    H131531   6.109   3.241  16.496 -0.3208  0.7084 -0.0834
 3372TIP3    H231532   6.036   3.161  16.601 -0.5524  0.2773 -0.5691
 3373TIP3   OH231533   0.849   1.064  11.009  0.4916  0.5329 -0.6394
 3373TIP3    H131534   0.877   1.150  11.041  0.2232 -0.1166  1.3973
 3373TIP3    H231535   0.921   1.034  10.954  0.8810  1.7520 -0.8087
 3374TIP3   OH231536   3.790   3.723  12.649 -0.5404  0.0090 -0.1091
 3374TIP3    H131537   3.848   3.676  12.709 -3.4636 -0.4460  2.4484
 3374TIP3    H231538   3.776   3.662  12.577 -0.2124 -1.0338  0.6925
 3375TIP3   OH231539   6.584   0.235  15.568  0.1343 -0.5601 -0.2268
 3375TIP3    H131540   6.542   0.152  15.545  0.1362 -1.1027  1.5882
 3375TIP3    H231541   6.603   0.227  15.662 -0.8962  1.9287  0.2497
 3376TIP3   OH231542   4.352   5.113  10.329  0.2489 -0.6551  0.2136
 3376TIP3    H131543   4.403   5.070  10.260 -1.0484  1.1735 -1.9267
 3376TIP3    H231544   4.418   5.143  10.392  1.8065  1.2778 -2.2846
 3377TIP3   OH231545   6.159   0.946  11.923  0.5368  0.0816 -0.3286
 3377TIP3    H131546   6.076   0.983  11.951  0.3166 -0.8052  0.2074
 3377TIP3    H231547   6.189   0.895  11.999  1.9570  1.0553 -0.2180
 3378TIP3   OH231548   1.646   6.406   1.502  0.3048  0.3924 -0.1403
 3378TIP3    H131549   1.560   6.381   1.534  0.2218 -0.3056 -0.9124
 3378TIP3    H231550   1.630   6.442   1.414  0.8877 -0.4631 -0.6025
 3379TIP3   OH231551   0.302   6.036   2.600  0.4967  0.1809 -0.0221
 3379TIP3    H131552   0.282   6.083   2.681 -0.7729 -0.2994 -0.0545
 3379TIP3    H231553   0.352   6.099   2.548 -0.7880  1.3390  0.1222
 3380TIP3   OH231554   3.193   6.273  17.065  0.3740 -0.1011  0.0236
 3380TIP3    H131555   3.112   6.253  17.018  0.5142  0.8365 -0.6294
 3380TIP3    H231556   3.245   6.193  17.057  0.4518  0.0812 -1.5453
 3381TIP3   OH231557   2.005   3.614   5.924  0.1917 -0.4184  0.3394
 3381TIP3    H131558   2.020   3.576   6.011  0.3306  1.4537  1.1490
 3381TIP3    H231559   2.045   3.551   5.863  2.1720 -0.6073  1.7878
 3382TIP3   OH231560   0.061   1.472   4.942  0.3357  0.0320 -0.2465
 3382TIP3    H131561   0.078   1.565   4.955 -0.0159  0.0065  0.4231
 3382TIP3    H231562  -0.034   1.465   4.936  0.4588 -0.0021 -2.6174
 3383TIP3   OH231563   1.184   1.469  12.886  1.0559  0.0707 -0.8391
 3383TIP3    H131564   1.174   1.464  12.981  0.3719  0.6658 -0.8740
 3383TIP3    H231565   1.140   1.391  12.853 -2.2585  1.8581 -0.8936
 3384TIP3   OH231566   4.031   2.157   3.680  0.0412 -0.4139  0.1804
 3384TIP3    H131567   3.955   2.117   3.637  1.8055 -2.0478 -1.5100
 3384TIP3    H231568   4.068   2.087   3.734  1.5359 -0.2767 -0.6278
 3385TIP3   OH231569   6.654   2.545  14.939 -0.2221 -0.0217 -0.3440
 3385TIP3    H131570   6.610   2.463  14.915 -0.9979  1.1234 -3.0529
 3385TIP3    H231571   6.587   2.595  14.987  0.6864 -1.4781  2.5630
 3386TIP3   OH231572   1.836   3.797  12.654 -0.1614 -0.5772  0.1622
 3386TIP3    H131573   1.856   3.725  12.595  1.0508  0.5666 -0.8710
 3386TIP3    H231574   1.900   3.788  12.725  0.6591  0.0310 -0.4765
 3387TIP3   OH231575   6.486   5.398  12.728  0.2251 -0.0148  0.4982
 3387TIP3    H131576   6.534   5.474  12.696 -1.7304  1.2363  0.4770
 3387TIP3    H231577   6.524   5.380  12.814  0.3679  1.3025  0.7174
 3388TIP3   OH231578   0.672   4.809  11.463 -0.1112  0.2509 -0.1520
 3388TIP3    H131579   0.659   4.866  11.539 -2.0238 -0.8946  0.4085
 3388TIP3    H231580   0.708   4.728  11.499  0.2283  0.1809 -0.6420
 3389TIP3   OH231581   6.656   4.957   0.306  0.1035  0.1734  0.3226
 3389TIP3    H131582   6.598   4.890   0.343  0.8028 -0.0188  1.0763
 3389TIP3    H231583   6.724   4.969   0.372  0.5779  0.8548 -0.2866
 3390TIP3   OH231584   5.083   2.867   2.455 -0.7616  0.1663  0.4982
 3390TIP3    H131585   5.067   2.921   2.377 -0.7174 -0.9953 -0.3291
 3390TIP3    H231586   5.147   2.802   2.426 -0.7324 -0.2609  1.5158
 3391TIP3   OH231587   6.145   4.400   4.285 -0.0486 -0.0424  0.4011
 3391TIP3    H131588   6.122   4.356   4.367 -1.3927  1.2803  0.7730
 3391TIP3    H231589   6.225   4.357   4.256  0.7423 -0.1769  2.6804
 3392TIP3   OH231590   5.021   4.776  13.264 -0.0785  0.1440  0.0003
 3392TIP3    H131591   5.054   4.839  13.200  1.5909 -0.3306  0.3752
 3392TIP3    H231592   4.927   4.775  13.249 -0.0758  2.2973 -0.3950
 3393TIP3   OH231593   0.795   2.018  13.748  0.8914 -0.4593 -0.5753
 3393TIP3    H131594   0.882   1.979  13.753  1.0445 -0.0810 -0.2818
 3393TIP3    H231595   0.775   2.046  13.837 -0.0662 -1.6880 -0.3987
 3394TIP3   OH231596   4.789   1.121   0.218  0.1673  0.1712 -0.5714
 3394TIP3    H131597   4.836   1.052   0.170 -1.3038 -0.5953 -0.9226
 3394TIP3    H231598   4.836   1.201   0.196 -0.0261 -0.2728 -2.6885
 3395TIP3   OH231599   5.634   5.545  12.428 -0.4380 -0.6349  0.4531
 3395TIP3    H131600   5.567   5.493  12.383  0.4558  0.1668 -1.8837
 3395TIP3    H231601   5.711   5.489  12.428 -0.4316 -0.6267  0.9938
 3396TIP3   OH231602   0.959   6.088  13.590  0.9531  0.9980 -0.3023
 3396TIP3    H131603   0.945   6.069  13.497  0.3235 -0.2403  0.0313
 3396TIP3    H231604   1.051   6.111  13.596  0.9295  1.3977 -1.2872
 3397TIP3   OH231605   1.391   0.890  16.099 -0.3546 -0.1529 -0.3403
 3397TIP3    H131606   1.319   0.943  16.064  0.1165  0.1695 -0.8334
 3397TIP3    H231607   1.413   0.930  16.183  0.5365  0.9351 -1.0816
 3398TIP3   OH231608   3.961   6.688   5.743  0.3055 -0.0219  0.1195
 3398TIP3    H131609   3.948   6.643   5.660 -2.6437 -0.5036  0.7788
 3398TIP3    H231610   3.874   6.686   5.785  1.6733  0.3774  3.1030
 3399TIP3   OH231611   1.070   2.046   4.462 -0.0193 -0.4010  0.0641
 3399TIP3    H131612   1.021   2.080   4.387 -1.5255 -0.6017  0.9293
 3399TIP3    H231613   1.018   2.073   4.538  0.7633 -1.3903  0.9578
 3400TIP3   OH231614   1.464   4.630   1.272  0.7646  0.4040  0.1608
 3400TIP3    H131615   1.499   4.557   1.221 -1.7969  0.4316 -1.7786
 3400TIP3    H231616   1.432   4.589   1.352 -1.1732 -0.7645 -1.1530
 3401TIP3   OH231617   1.506   5.442  16.437 -0.5159 -0.1189 -0.2035
 3401TIP3    H131618   1.594   5.464  16.407  0.6808 -1.1559  2.4518
 3401TIP3    H231619   1.449   5.504  16.391  1.7646  1.8207 -0.4915
 3402TIP3   OH231620   3.729   5.536  11.229  0.3397  0.5788 -0.2056
 3402TIP3    H131621   3.755   5.604  11.291 -1.6011 -0.6700  2.0602
 3402TIP3    H231622   3.790   5.545  11.156  4.5820  0.2043  3.1461
 3403TIP3   OH231623   2.359   1.224  13.100  0.3480 -0.5413  0.1301
 3403TIP3    H131624   2.312   1.181  13.028  2.0874 -0.3643 -1.1223
 3403TIP3    H231625   2.289   1.259  13.155 -1.0299 -0.8488 -1.3615
 3404TIP3   OH231626   5.788   5.120   3.431  0.0484 -0.0026  0.1602
 3404TIP3    H131627   5.786   5.203   3.478  1.3282  0.1613 -0.0638
 3404TIP3    H231628   5.698   5.087   3.437 -0.8401  2.1041 -1.0642
 3405TIP3   OH231629   4.395   1.032   6.315 -0.0656 -0.5517  0.0627
 3405TIP3    H131630   4.467   1.077   6.270 -0.7080  0.6114  0.1687
 3405TIP3    H231631   4.436   0.993   6.392  0.5461 -0.3184 -0.1355
 3406TIP3   OH231632   5.576   0.645   4.399 -0.1374 -1.2622 -0.3283
 3406TIP3    H131633   5.625   0.612   4.475 -0.2312 -0.4398  0.0929
 3406TIP3    H231634   5.484   0.638   4.426 -0.1812 -1.1740 -0.4558
 3407TIP3   OH231635   5.218   5.640   2.265 -0.0831  0.1761 -0.6618
 3407TIP3    H131636   5.283   5.681   2.322 -0.7236  0.6122 -0.2470
 3407TIP3    H231637   5.270   5.588   2.204  0.5944 -0.8796  0.7767
 3408TIP3   OH231638   6.093   3.805  15.542  0.5227 -0.6126  0.4238
 3408TIP3    H131639   6.042   3.806  15.623 -1.3230  0.6366 -0.7034
 3408TIP3    H231640   6.129   3.893  15.534 -0.3220 -0.3483 -0.6950
 3409TIP3   OH231641   3.008   1.663   4.317 -0.5958 -0.1455  0.1665
 3409TIP3    H131642   3.023   1.715   4.396  1.9183 -2.1287  1.0719
 3409TIP3    H231643   3.075   1.692   4.255 -0.0768 -1.3102  0.1692
 3410TIP3   OH231644   0.599   4.185   2.996  0.6649  0.7195  0.4771
 3410TIP3    H131645   0.603   4.253   3.064 -0.0184 -1.2644  2.5698
 3410TIP3    H231646   0.571   4.106   3.043  2.5312 -1.2957 -1.6820
 3411TIP3   OH231647   0.995   3.538   5.642  0.0289  0.2483 -0.7375
 3411TIP3    H131648   0.909   3.550   5.601  0.2138  1.4094 -0.7816
 3411TIP3    H231649   1.013   3.621   5.686 -0.4948 -1.1860  2.3213
 3412TIP3   OH231650   1.957   0.141   0.139  0.1062 -0.5916  0.0484
 3412TIP3    H131651   1.980   0.105   0.053  3.5449  1.1468  0.1287
 3412TIP3    H231652   1.942   0.234   0.122 -1.0964 -0.6006  1.0360
 3413TIP3   OH231653   0.524   2.910  14.342  0.0519  0.3187  0.2264
 3413TIP3    H131654   0.484   2.968  14.277 -0.9831 -0.4231  0.1938
 3413TIP3    H231655   0.599   2.871  14.297  0.4341  1.2079  0.0723
 3414TIP3   OH231656   3.226   1.023  15.991 -0.1866  0.3675  0.6892
 3414TIP3    H131657   3.282   1.085  16.038 -0.8411  0.0202  1.9674
 3414TIP3    H231658   3.150   1.074  15.964  0.8878  0.9133 -1.3326
 3415TIP3   OH231659   1.916   5.476  12.045 -0.1587  0.2498  0.2477
 3415TIP3    H131660   1.974   5.510  11.978 -0.4155 -1.1811 -0.7238
 3415TIP3    H231661   1.888   5.390  12.012  0.2798 -0.8111  2.4897
 3416TIP3   OH231662   5.410   6.038   3.812  0.0980  0.2142 -0.1009
 3416TIP3    H131663   5.492   6.067   3.772 -0.0924 -0.5406 -1.0443
 3416TIP3    H231664   5.432   5.956   3.856 -0.6595 -1.1912 -2.2982
 3417TIP3   OH231665   3.875   6.508   2.722  0.1795  0.0669 -0.3543
 3417TIP3    H131666   3.832   6.436   2.769  0.4657 -1.2228 -2.0469
 3417TIP3    H231667   3.916   6.467   2.646  0.4326  2.0073 -1.2994
 3418TIP3   OH231668   4.496   2.822  15.669  0.2452 -0.1879  0.7175
 3418TIP3    H131669   4.447   2.904  15.679 -0.1086 -0.3396  0.2022
 3418TIP3    H231670   4.587   2.851  15.660  0.4549  0.0222  3.1727
 3419TIP3   OH231671   1.390   1.443   0.744  0.7143 -0.0099 -0.7305
 3419TIP3    H131672   1.435   1.525   0.726 -1.1004  1.1961  0.1028
 3419TIP3    H231673   1.304   1.453   0.703  0.0622 -1.0251  0.3469
 3420TIP3   OH231674   6.061   3.114  13.573  0.1460  0.0062 -0.2944
 3420TIP3    H131675   6.091   3.177  13.507  0.1318 -0.7072 -0.9869
 3420TIP3    H231676   5.973   3.143  13.595  0.9470  1.5594  1.0595
 3421TIP3   OH231677   1.396   5.899   4.922 -0.3270  0.1145  0.1492
 3421TIP3    H131678   1.422   5.868   4.836  2.3502 -0.5229  1.1308
 3421TIP3    H231679   1.303   5.916   4.915 -0.7034 -2.5707 -2.1016
 3422TIP3   OH231680   6.341   1.055  13.147  0.4129  0.0083  0.0973
 3422TIP3    H131681   6.378   1.104  13.220  1.1075 -2.2750  1.3212
 3422TIP3    H231682   6.412   0.996  13.120 -0.2968 -0.1293 -1.5465
 3423TIP3   OH231683   0.386   1.560  14.016 -0.0070  0.6271 -0.1625
 3423TIP3    H131684   0.467   1.602  14.043  1.6369 -1.8271 -1.1193
 3423TIP3    H231685   0.380   1.579  13.922 -0.5236  0.7442 -0.1082
 3424TIP3   OH231686   5.033   4.729  10.806 -0.4905 -0.1594  0.3061
 3424TIP3    H131687   4.966   4.699  10.744 -0.6837  0.3529  0.2665
 3424TIP3    H231688   5.114   4.686  10.776 -0.6608 -0.2204 -0.0674
 3425TIP3   OH231689   1.190   5.905  14.533  0.0976  0.5035  0.1425
 3425TIP3    H131690   1.238   5.837  14.581 -1.2741 -0.2282  0.5077
 3425TIP3    H231691   1.134   5.856  14.472  0.2037  1.3613 -0.6648
 3426TIP3   OH231692   6.004   5.854   5.519  0.6649 -0.0195  0.7212
 3426TIP3    H131693   6.022   5.876   5.428  1.5764 -0.0107  0.8958
 3426TIP3    H231694   6.033   5.930   5.569 -1.0012  0.4997  0.9355
 3427TIP3   OH231695   4.683   2.737   5.297  0.1800  0.0513  1.1016
 3427TIP3    H131696   4.720   2.720   5.210  0.2947 -1.1157  1.3777
 3427TIP3    H231697   4.629   2.661   5.316 -1.6861  1.3333  1.0982
 3428TIP3   OH231698   6.213   5.466  11.895  0.2132 -0.1291  0.2024
 3428TIP3    H131699   6.205   5.398  11.828  0.0023 -0.0430  0.1385
 3428TIP3    H231700   6.237   5.419  11.975  0.3032 -0.2508  0.1035
 3429TIP3   OH231701   2.801   6.442  11.503 -0.4894  0.1174 -0.4996
 3429TIP3    H131702   2.802   6.531  11.538 -1.6063  0.7045 -1.9273
 3429TIP3    H231703   2.852   6.447  11.422 -1.7327 -0.1895 -1.3338
 3430TIP3   OH231704   2.281   3.612   3.604 -0.6122  0.5707 -0.4060
 3430TIP3    H131705   2.347   3.678   3.582 -0.1921  0.6357  1.0318
 3430TIP3    H231706   2.328   3.548   3.658 -1.6815  0.5227  0.4697
 3431TIP3   OH231707   2.013   3.322   4.701  0.2451 -0.0647  0.0764
 3431TIP3    H131708   2.012   3.238   4.655 -1.8849  0.2320 -0.4682
 3431TIP3    H231709   1.934   3.322   4.754  1.5359  0.5484  2.0807
 3432TIP3   OH231710   2.946   5.413   0.625 -0.2535 -0.4052 -0.2321
 3432TIP3    H131711   2.863   5.447   0.659  0.7195  1.0837  0.7224
 3432TIP3    H231712   2.976   5.351   0.692 -0.1257 -0.2083 -0.1052
 3433TIP3   OH231713   0.092   6.197   0.273  0.3206  0.4317  0.3151
 3433TIP3    H131714   0.179   6.237   0.286  0.1897  0.9214 -0.2747
 3433TIP3    H231715   0.042   6.222   0.350  1.0021 -0.6535  1.1098
 3434TIP3   OH231716   4.930   6.342   3.384  0.0361  0.2134  0.0049
 3434TIP3    H131717   4.909   6.436   3.381  0.8536  0.4160  0.4771
 3434TIP3    H231718   4.966   6.328   3.471 -2.9506 -1.1731  1.0597
 3435TIP3   OH231719   1.621   6.762   2.755  0.4635 -0.0523 -0.1198
 3435TIP3    H131720   1.709   6.724   2.758  0.4166 -0.0350  2.4063
 3435TIP3    H231721   1.622   6.831   2.820 -1.7088 -0.6926  0.6418
 3436TIP3   OH231722   5.214   4.476  15.924  0.2000 -0.0797  0.3827
 3436TIP3    H131723   5.168   4.526  15.857  0.8324  0.6948  0.5119
 3436TIP3    H231724   5.175   4.389  15.921 -0.1371  0.1008 -0.6213
 3437TIP3   OH231725   5.795   1.203  13.605  0.2355  0.1007 -0.3935
 3437TIP3    H131726   5.824   1.201  13.696  0.9637 -0.8759 -0.6349
 3437TIP3    H231727   5.852   1.140  13.560  0.8147  1.5665 -1.7949
 3438TIP3   OH231728   6.523   5.337   4.060  0.0283 -0.2531 -0.0619
 3438TIP3    H131729   6.562   5.263   4.106 -0.6082 -0.4893  0.0929
 3438TIP3    H231730   6.431   5.337   4.086  0.2101  1.1156  0.6277
 3439TIP3   OH231731   6.469   0.181   0.080  0.5473  0.2251 -0.1521
 3439TIP3    H131732   6.486   0.091   0.109 -1.2265  0.0170  0.3171
 3439TIP3    H231733   6.532   0.234   0.129  1.7868 -0.7735 -0.6252
 3440TIP3   OH231734   4.196   4.158  11.999 -0.3029  0.6312  0.5268
 3440TIP3    H131735   4.244   4.125  11.923 -1.4882 -1.6909  0.7532
 3440TIP3    H231736   4.247   4.127  12.075 -1.3571 -0.5756  0.7432
 3441TIP3   OH231737   1.418   6.260   4.785 -0.4456 -0.4476 -0.1894
 3441TIP3    H131738   1.380   6.238   4.869 -0.1523 -0.2378 -0.0027
 3441TIP3    H231739   1.363   6.215   4.721  0.0376 -1.5819  0.1755
 3442TIP3   OH231740   6.455   5.889   1.752  0.0117  0.6602  0.0937
 3442TIP3    H131741   6.409   5.810   1.726  0.7136 -0.1823  1.4013
 3442TIP3    H231742   6.532   5.891   1.694 -0.2118  0.6050 -0.2093
 3443TIP3   OH231743   3.042   5.046  16.740 -0.7819 -0.5218 -0.8481
 3443TIP3    H131744   3.083   5.048  16.653 -0.1202  1.0242 -0.5081
 3443TIP3    H231745   3.099   5.099  16.795  0.3012 -3.6987  1.2180
 3444TIP3   OH231746   2.794   0.641   0.973 -0.2330  0.0025 -0.3626
 3444TIP3    H131747   2.785   0.561   0.922 -0.0799 -1.1772  1.4323
 3444TIP3    H231748   2.722   0.697   0.944 -1.7650 -1.7288  0.0580
 3445TIP3   OH231749   0.194   6.335  14.038 -0.0203  0.8622  0.0667
 3445TIP3    H131750   0.171   6.304  13.951 -2.3397  1.9462  0.2543
 3445TIP3    H231751   0.236   6.260  14.080 -0.5563 -0.2416 -1.3402
 3446TIP3   OH231752   3.113   5.370  14.628  0.2182 -0.0335 -0.3981
 3446TIP3    H131753   3.116   5.453  14.579  0.8227 -0.4592 -1.0854
 3446TIP3    H231754   3.038   5.323  14.592 -0.3152  0.3391  0.2075
 3447TIP3   OH231755   2.929   0.601   4.867  0.0928  0.3719  0.3730
 3447TIP3    H131756   2.890   0.538   4.806  0.5112  1.2315 -0.7790
 3447TIP3    H231757   3.017   0.618   4.832  0.0487  1.4638  0.7749
 3448TIP3   OH231758   1.668   5.752  12.332 -0.1093 -0.0838  0.1350
 3448TIP3    H131759   1.709   5.674  12.295  0.4308  1.2390 -2.1625
 3448TIP3    H231760   1.590   5.766  12.278 -0.7584  0.3951  1.1787
 3449TIP3   OH231761   0.685   6.481  15.488 -0.2019  0.1273  0.2570
 3449TIP3    H131762   0.707   6.507  15.398  0.7841 -0.0319  0.4450
 3449TIP3    H231763   0.720   6.552  15.542 -1.6623  0.7031  0.4468
 3450TIP3   OH231764   4.496   2.331  16.632 -0.0591 -0.3347 -0.1546
 3450TIP3    H131765   4.560   2.389  16.591  0.1257 -1.0353 -0.8823
 3450TIP3    H231766   4.521   2.329  16.725 -0.4687  1.2494 -0.0020
 3451TIP3   OH231767   3.672   6.583  14.153  0.0097  0.3853  0.4067
 3451TIP3    H131768   3.664   6.672  14.119 -0.1359  0.4591  0.6337
 3451TIP3    H231769   3.730   6.591  14.229  0.8848  0.1164 -0.2195
 3452TIP3   OH231770   0.515   4.467  16.898 -0.1663 -0.1098  0.6547
 3452TIP3    H131771   0.527   4.447  16.806 -0.7817 -0.2392  0.5996
 3452TIP3    H231772   0.541   4.388  16.944 -4.7651 -1.9481  0.3308
 3453TIP3   OH231773   0.762   1.047  10.656  0.0806 -0.1740 -0.7544
 3453TIP3    H131774   0.835   0.987  10.675 -0.9961 -0.7709  1.7732
 3453TIP3    H231775   0.725   1.014  10.574  0.2551 -2.2440 -0.0295
 3454TIP3   OH231776   6.756   3.233  11.536 -0.5088  0.1704 -0.8177
 3454TIP3    H131777   6.747   3.174  11.462  0.4931 -4.5048  2.5646
 3454TIP3    H231778   6.666   3.245  11.568 -0.6438 -0.1563 -1.0665
 3455TIP3   OH231779   4.846   0.149  11.605  0.8090 -0.4724  0.6878
 3455TIP3    H131780   4.754   0.125  11.604  0.3637  1.1486  0.5911
 3455TIP3    H231781   4.850   0.224  11.665  1.7085  0.7716 -0.8936
 3456TIP3   OH231782   3.773   1.637  14.127  0.4043 -0.3872 -0.2646
 3456TIP3    H131783   3.682   1.607  14.123 -0.6427  2.7183 -0.6814
 3456TIP3    H231784   3.774   1.717  14.075  3.0459  0.4761  1.0492
 3457TIP3   OH231785   4.866   2.603   4.275  0.2595  0.3694  0.5857
 3457TIP3    H131786   4.930   2.669   4.300 -1.1270  1.7931  0.4285
 3457TIP3    H231787   4.783   2.635   4.310 -0.4350 -1.3102  0.5505
 3458TIP3   OH231788   5.732   4.632   2.921 -0.1641 -0.3793 -0.1989
 3458TIP3    H131789   5.771   4.568   2.980  2.2828 -0.1338 -1.4945
 3458TIP3    H231790   5.806   4.681   2.886 -1.6928  0.5575 -2.2322
 3459TIP3   OH231791   3.365   1.137   4.342  0.2482 -0.8045 -0.2353
 3459TIP3    H131792   3.404   1.177   4.264 -0.4933 -1.3240 -0.8817
 3459TIP3    H231793   3.340   1.211   4.397  0.3897 -0.4228 -0.6799
 3460TIP3   OH231794   2.304   5.129  14.425  0.4694 -0.7174  0.3299
 3460TIP3    H131795   2.243   5.116  14.498 -1.3297  0.3263 -0.9510
 3460TIP3    H231796   2.288   5.055  14.366 -0.0691 -0.0606 -0.3544
 3461TIP3   OH231797   4.538   6.515   2.805  0.3296  0.2699 -0.1975
 3461TIP3    H131798   4.617   6.558   2.839 -0.9128  0.9444  1.9413
 3461TIP3    H231799   4.511   6.570   2.732  0.4649  1.4419  0.6188
 3462TIP3   OH231800   0.362   0.452  14.319  0.1068 -0.1856  0.2542
 3462TIP3    H131801   0.441   0.468  14.371 -0.0077 -2.6071  1.2322
 3462TIP3    H231802   0.393   0.453  14.228  1.4952 -2.1265  0.6681
 3463TIP3   OH231803   5.895   3.860   2.623  0.2689 -0.3361 -0.1669
 3463TIP3    H131804   5.838   3.906   2.685 -0.4489  0.7666 -1.6205
 3463TIP3    H231805   5.839   3.843   2.547  2.0755  1.5141 -1.9783
 3464TIP3   OH231806   3.016   5.933  14.490  0.2970 -0.1751 -0.3589
 3464TIP3    H131807   2.973   5.874  14.429  0.3824  0.1518 -0.7366
 3464TIP3    H231808   3.107   5.903  14.492  0.2556 -0.2935 -0.2615
 3465TIP3   OH231809   1.049   5.943  13.796 -0.7671 -0.1452  0.3366
 3465TIP3    H131810   1.001   5.987  13.727 -1.8281 -2.4789 -0.4385
 3465TIP3    H231811   1.008   5.973  13.877 -4.0519 -2.6354 -0.3362
 3466TIP3   OH231812   2.881   5.746  15.608 -0.4644  0.0922 -0.6711
 3466TIP3    H131813   2.810   5.712  15.663  0.6772 -1.3686 -0.0850
 3466TIP3    H231814   2.948   5.774  15.669  0.5500 -0.9559 -1.2669
 3467TIP3   OH231815   1.797   2.895  10.733 -0.2108 -0.6732  0.4990
 3467TIP3    H131816   1.703   2.883  10.744 -0.2898  0.8166  1.5506
 3467TIP3    H231817   1.828   2.919  10.821  0.9554  0.1107 -0.1195
 3468TIP3   OH231818   2.678   2.203   4.357 -0.3521 -0.1881 -0.2315
 3468TIP3    H131819   2.627   2.127   4.385 -0.2090 -0.3265 -0.3486
 3468TIP3    H231820   2.666   2.206   4.262 -0.8886  0.3197 -0.1509
 3469TIP3   OH231821   5.626   1.032   5.135  0.3336  0.3282  0.2136
 3469TIP3    H131822   5.539   1.002   5.110  0.4001 -0.1648  0.5553
 3469TIP3    H231823   5.624   1.127   5.123 -0.1762  0.2904  0.0047
 3470TIP3   OH231824   2.897   6.300  12.532  0.1010 -0.9550 -0.5428
 3470TIP3    H131825   2.863   6.235  12.593 -1.5664 -0.1781 -0.6265
 3470TIP3    H231826   2.945   6.249  12.467  0.9413 -1.8783  0.7798
 3471TIP3   OH231827   6.013   5.626  14.377 -0.3555 -0.6925  0.3234
 3471TIP3    H131828   5.945   5.572  14.338 -0.3672  0.1613 -0.8867
 3471TIP3    H231829   5.977   5.715  14.376  0.7809 -0.2262 -0.3763
 3472TIP3   OH231830   0.361   0.787  10.731  0.1679  0.0595 -0.0466
 3472TIP3    H131831   0.373   0.701  10.691 -1.2070 -0.7489  1.2218
 3472TIP3    H231832   0.327   0.768  10.819 -2.0331  1.9442 -0.4472
 3473TIP3   OH231833   0.736   2.758  11.391 -0.4954 -0.6218 -0.4293
 3473TIP3    H131834   0.777   2.831  11.345 -0.4833 -1.4493 -1.7483
 3473TIP3    H231835   0.796   2.739  11.463 -0.4713  0.6244 -0.1076
 3474TIP3   OH231836   5.039   6.746   5.208 -0.6294  0.1866  0.8252
 3474TIP3    H131837   5.008   6.673   5.155 -0.3939 -0.3922  1.4777
 3474TIP3    H231838   5.134   6.746   5.197 -0.6381  0.4633  0.7403
 3475TIP3   OH231839   6.291   5.115   2.715 -0.6213 -0.5972  0.0704
 3475TIP3    H131840   6.263   5.126   2.806 -1.0704 -1.4759  0.0416
 3475TIP3    H231841   6.216   5.074   2.672 -0.4836  0.0053 -0.7469
 3476TIP3   OH231842   5.584   2.962   4.935  0.7633  0.5319  0.7299
 3476TIP3    H131843   5.594   3.056   4.919 -1.6657  0.8413  0.8830
 3476TIP3    H231844   5.591   2.953   5.030 -2.7943  1.0928  1.0876
 3477TIP3   OH231845   1.225   1.979  11.658  0.4196  0.0916  0.4983
 3477TIP3    H131846   1.288   2.025  11.712  0.1455  2.1670 -0.9069
 3477TIP3    H231847   1.257   1.989  11.569 -0.5364 -1.0180  0.0109
 3478TIP3   OH231848   2.927   1.658  13.235 -0.0280  0.0069  0.0127
 3478TIP3    H131849   2.957   1.589  13.294  1.1453  0.3681 -0.1504
 3478TIP3    H231850   2.955   1.739  13.276  0.9535  0.2562 -1.1000
 3479TIP3   OH231851   2.401   5.377  16.786 -0.0218 -0.0398  0.5316
 3479TIP3    H131852   2.369   5.303  16.733 -0.7222 -0.5796  1.6794
 3479TIP3    H231853   2.343   5.450  16.764 -0.7145 -0.4344  0.9894
 3480TIP3   OH231854   6.027   2.064   1.936  0.4587 -0.5437 -0.0678
 3480TIP3    H131855   6.054   2.140   1.987 -0.7187 -0.6861  0.8089
 3480TIP3    H231856   5.931   2.065   1.941  0.4275 -2.0546 -0.0812
 3481TIP3   OH231857   6.505   3.143   5.467  0.3125 -0.0368 -0.6425
 3481TIP3    H131858   6.587   3.108   5.502 -1.0264 -1.9071  0.7424
 3481TIP3    H231859   6.521   3.151   5.373  2.6280  1.2495 -0.1833
 3482TIP3   OH231860   4.201   4.088  15.087 -0.3696 -0.3129  0.1942
 3482TIP3    H131861   4.294   4.075  15.108 -0.5655 -0.3474  1.0719
 3482TIP3    H231862   4.188   4.183  15.090 -0.0989 -0.2309 -1.1029
 3483TIP3   OH231863   1.889   3.787  11.404 -0.1947  0.2219  0.8217
 3483TIP3    H131864   1.804   3.766  11.367  0.7623 -2.7877  0.1869
 3483TIP3    H231865   1.871   3.816  11.493 -1.9696  1.0907  0.1932
 3484TIP3   OH231866   1.922   6.559   4.617 -0.2594 -0.0869  0.1987
 3484TIP3    H131867   1.924   6.608   4.535  0.2984 -1.4011 -0.5951
 3484TIP3    H231868   1.939   6.469   4.591  3.3981 -0.0377  2.1135
 3485TIP3   OH231869   0.601   4.033   4.870 -0.4587 -0.4306  0.6537
 3485TIP3    H131870   0.687   3.992   4.883  0.5411  1.5939  0.6774
 3485TIP3    H231871   0.565   3.989   4.793  1.5765  0.1717 -0.7101
 3486TIP3   OH231872   5.054   3.252  12.815 -0.0166 -0.4238  0.1659
 3486TIP3    H131873   5.015   3.336  12.841  1.7587 -0.4122  3.0703
 3486TIP3    H231874   4.986   3.208  12.764 -2.4296  1.1333  1.9539
 3487TIP3   OH231875   0.579   4.060  12.712  0.3433  0.0502 -0.1677
 3487TIP3    H131876   0.594   4.043  12.806  1.6307  2.0496  0.0016
 3487TIP3    H231877   0.553   3.974  12.677  3.0049 -1.4842  1.3979
 3488TIP3   OH231878   4.913   6.740  15.541 -0.7917 -0.1302 -0.3212
 3488TIP3    H131879   4.868   6.705  15.617 -0.2021  0.3738  0.2716
 3488TIP3    H231880   4.844   6.756  15.477 -1.2522 -0.8329  0.0057
 3489TIP3   OH231881   4.221   6.216  15.557 -0.8739  0.1673  0.2687
 3489TIP3    H131882   4.281   6.141  15.553 -0.1669  0.6299  1.9511
 3489TIP3    H231883   4.193   6.228  15.466 -0.3434 -1.6044 -0.1637
 3490TIP3   OH231884   1.609   0.693  16.610  0.4570 -0.5084  0.1197
 3490TIP3    H131885   1.608   0.604  16.576  1.1145  0.3548 -2.2526
 3490TIP3    H231886   1.698   0.705  16.642  0.3826 -0.6771  0.3934
 3491TIP3   OH231887   5.806   2.730  12.666 -0.6588  0.0338  0.8032
 3491TIP3    H131888   5.718   2.705  12.638 -0.4659 -1.0776  1.1772
 3491TIP3    H231889   5.865   2.678  12.612 -0.2221  1.0613  0.2832
 3492TIP3   OH231890   5.892   2.963  10.734  0.3016  0.2884  0.0332
 3492TIP3    H131891   5.903   2.946  10.827  1.8428 -1.7797 -0.4913
 3492TIP3    H231892   5.940   3.045  10.718 -0.0488  0.6986  1.0599
 3493TIP3   OH231893   5.348   5.445  17.072  0.3922 -0.1351 -0.3692
 3493TIP3    H131894   5.402   5.367  17.083  0.4233  0.1147  1.3429
 3493TIP3    H231895   5.258   5.415  17.082  0.2979 -0.2345 -1.4182
 3494TIP3   OH231896   1.772   6.306   5.966  0.7075  0.3540  0.5567
 3494TIP3    H131897   1.759   6.334   6.057  0.4543  1.6936  0.1027
 3494TIP3    H231898   1.698   6.344   5.918  0.9672 -0.1637 -0.2606
 3495TIP3   OH231899   5.331   4.529   2.538  0.3631 -0.7000  0.2131
 3495TIP3    H131900   5.271   4.563   2.472 -1.0777 -1.7793  0.9237
 3495TIP3    H231901   5.281   4.459   2.582  1.0952  0.3311  2.7784
 3496TIP3   OH231902   3.165   5.550   2.240  0.4414 -0.0727 -0.3383
 3496TIP3    H131903   3.241   5.557   2.298 -1.2850  1.6991  1.8095
 3496TIP3    H231904   3.162   5.635   2.195 -1.7353  0.9305  1.5687
 3497TIP3   OH231905   0.565   4.918   1.736 -0.4449 -0.7784  0.3946
 3497TIP3    H131906   0.635   4.898   1.798  1.8421 -0.8187 -2.1368
 3497TIP3    H231907   0.576   4.855   1.665 -2.7777 -0.4864 -0.2778
 3498TIP3   OH231908   5.230   2.197  11.177  0.0525  0.7376 -0.3911
 3498TIP3    H131909   5.204   2.113  11.139 -0.1643 -0.3877  2.1332
 3498TIP3    H231910   5.176   2.261  11.132 -1.0326 -0.6858 -1.1633
 3499TIP3   OH231911   5.134   3.849  15.415 -0.1353  0.4326 -0.2509
 3499TIP3    H131912   5.198   3.883  15.477  0.8574  2.1164 -2.1526
 3499TIP3    H231913   5.068   3.806  15.469  1.0887  1.2329  1.9030
 3500TIP3   OH231914   2.642   0.930  15.136 -0.6533 -0.0025  0.1178
 3500TIP3    H131915   2.678   0.953  15.221 -0.5846 -0.8111  0.3164
 3500TIP3    H231916   2.555   0.970  15.134 -0.0551  1.3155 -0.0593
 3501TIP3   OH231917   3.239   0.548   3.672 -0.5978  0.1042  0.0659
 3501TIP3    H131918   3.176   0.599   3.723  0.3062  0.4001  0.9105
 3501TIP3    H231919   3.324   0.569   3.711 -0.0111 -0.5585 -0.8313
 3502TIP3   OH231920   6.005   0.032   0.818 -0.0843  0.3251  0.1632
 3502TIP3    H131921   6.096   0.061   0.823  0.2661 -0.3035 -1.9188
 3502TIP3    H231922   6.004  -0.052   0.865  0.8796 -0.6483 -1.4907
 3503TIP3   OH231923   0.431   4.716   1.429 -0.1403  0.0692 -0.2125
 3503TIP3    H131924   0.502   4.666   1.469 -1.0869 -0.9827  0.1890
 3503TIP3    H231925   0.353   4.661   1.442 -0.5715 -0.0152 -3.0155
 3504TIP3   OH231926   2.728   0.408   2.393 -0.3923 -0.2273 -0.3117
 3504TIP3    H131927   2.802   0.379   2.447 -1.1364 -1.5747  0.0030
 3504TIP3    H231928   2.652   0.403   2.451 -0.6100  2.1233 -0.3324
 3505TIP3   OH231929   4.791   3.227   3.904 -0.5288  0.3586  0.2542
 3505TIP3    H131930   4.883   3.246   3.890 -0.7652  1.2250 -0.1917
 3505TIP3    H231931   4.773   3.255   3.993 -0.4023  0.3419  0.2843
 3506TIP3   OH231932   3.141   4.065   5.021 -0.0383  0.0246 -0.4368
 3506TIP3    H131933   3.134   4.159   5.033  0.3979 -0.1822  1.5835
 3506TIP3    H231934   3.067   4.029   5.070  0.6272 -0.7563  0.0168
 3507TIP3   OH231935   4.004   3.665   0.872 -0.4224  0.1126  0.0848
 3507TIP3    H131936   4.056   3.621   0.805 -0.1297 -1.2201  1.1841
 3507TIP3    H231937   3.915   3.634   0.858 -0.0384 -1.7349  1.5647
 3508TIP3   OH231938   2.940   1.950  12.885  0.0210  0.4781 -0.2488
 3508TIP3    H131939   2.884   1.879  12.917  0.9523  0.3019  1.0285
 3508TIP3    H231940   2.969   1.995  12.964  3.1155 -0.5205 -0.7413
 3509TIP3   OH231941   0.740   4.308  10.901  0.2050 -0.0646  0.6236
 3509TIP3    H131942   0.651   4.279  10.918  0.3457 -0.1265  1.2518
 3509TIP3    H231943   0.792   4.272  10.973  0.7528 -0.1013  0.2226
 3510TIP3   OH231944   5.680   6.567   3.189 -0.0772  0.2633 -0.2849
 3510TIP3    H131945   5.734   6.489   3.206 -0.8989 -0.3672 -0.5831
 3510TIP3    H231946   5.720   6.606   3.112 -0.0019 -0.1667 -0.4685
 3511TIP3   OH231947   0.251   2.862   0.069  0.0119  0.1387  0.2057
 3511TIP3    H131948   0.231   2.829   0.157 -0.4354  0.7342  0.3346
 3511TIP3    H231949   0.186   2.931   0.054  1.2752  1.3438  0.1675
 3512TIP3   OH231950   6.157   4.827  11.821  0.4592 -0.2136  0.2353
 3512TIP3    H131951   6.093   4.871  11.875 -2.4052 -3.0072 -0.7395
 3512TIP3    H231952   6.120   4.829  11.733  1.6618 -1.8879 -0.3384
 3513TIP3   OH231953   4.801   4.294  16.019 -0.1219  0.0394 -0.0825
 3513TIP3    H131954   4.771   4.362  16.079  0.6494 -0.7347  1.2219
 3513TIP3    H231955   4.866   4.337  15.963  0.6774  0.2877  1.0181
 3514TIP3   OH231956   2.802   5.178   3.372 -0.2810  0.4407  0.3215
 3514TIP3    H131957   2.765   5.102   3.326 -0.5356 -0.8537  2.5770
 3514TIP3    H231958   2.886   5.193   3.330 -0.2364 -1.0882 -0.1819
 3515TIP3   OH231959   2.017   1.586   5.377 -0.7877 -0.3223  0.0310
 3515TIP3    H131960   1.986   1.502   5.410 -0.2819 -0.4679  0.1396
 3515TIP3    H231961   1.983   1.651   5.438 -1.8729 -0.3668 -0.5097
 3516TIP3   OH231962   4.155   5.537   2.242  0.1897  0.6633 -0.4953
 3516TIP3    H131963   4.124   5.612   2.292 -1.7883  0.2921 -1.1291
 3516TIP3    H231964   4.092   5.528   2.170 -0.7367 -2.7762  0.6415
 3517TIP3   OH231965   0.289   6.653   3.908  0.0788  0.0219  0.1195
 3517TIP3    H131966   0.382   6.635   3.896 -0.2103 -0.4179 -1.6150
 3517TIP3    H231967   0.244   6.586   3.857 -1.2126 -0.2058  1.5203
 3518TIP3   OH231968   1.280   0.872  15.016  0.3446 -0.3246  0.3673
 3518TIP3    H131969   1.248   0.960  14.995  2.0445 -0.1910 -1.8281
 3518TIP3    H231970   1.349   0.887  15.081 -0.9612 -0.2548  1.7625
 3519TIP3   OH231971   6.415   2.663   4.248 -0.1429  0.1437 -0.3561
 3519TIP3    H131972   6.362   2.584   4.255 -1.5210  1.0836  0.1888
 3519TIP3    H231973   6.401   2.709   4.331  1.9123  0.2078 -0.0097
 3520TIP3   OH231974   1.867   2.308  15.853  0.0652  0.3056 -0.0651
 3520TIP3    H131975   1.855   2.320  15.759  0.3449 -2.8089 -0.5481
 3520TIP3    H231976   1.953   2.343  15.871  0.6685 -0.4872 -1.2986
 3521TIP3   OH231977   3.651   2.532   3.643 -0.0795 -0.0841 -0.1576
 3521TIP3    H131978   3.721   2.588   3.679  0.9658 -1.1623 -0.4926
 3521TIP3    H231979   3.693   2.485   3.571 -1.4858  0.1603 -1.1489
 3522TIP3   OH231980   3.022   3.784   6.200  0.0173 -0.2520 -0.5398
 3522TIP3    H131981   2.943   3.755   6.153 -0.5655  0.1096  0.1986
 3522TIP3    H231982   3.069   3.838   6.136 -1.5125  1.4552 -0.2718
 3523TIP3   OH231983   6.149   1.078   6.003 -0.7343  0.5227  0.1970
 3523TIP3    H131984   6.099   1.159   6.005 -1.6353 -0.0697  2.0944
 3523TIP3    H231985   6.164   1.056   6.095  1.7733 -0.0752 -0.3080
 3524TIP3   OH231986   1.931   1.433   3.473 -0.1560 -0.1461  0.2405
 3524TIP3    H131987   2.011   1.477   3.443  1.1054 -0.6665  2.6911
 3524TIP3    H231988   1.860   1.491   3.445  1.2427  1.6269  0.2243
 3525TIP3   OH231989   0.197   6.731   1.814 -0.3588 -0.6574  0.2427
 3525TIP3    H131990   0.283   6.729   1.856 -0.2720 -0.5277  0.0733
 3525TIP3    H231991   0.191   6.648   1.766  0.4266  0.1172 -1.2295
 3526TIP3   OH231992   0.535   0.809   3.997  0.3224 -0.0378  0.4916
 3526TIP3    H131993   0.555   0.754   3.922  1.7161  0.1783  0.6934
 3526TIP3    H231994   0.467   0.762   4.045  0.0186 -0.5652 -0.4650
 3527TIP3   OH231995   2.368   0.619  12.567  0.2097  0.0208 -0.0087
 3527TIP3    H131996   2.437   0.555  12.580  0.3884  0.5492  1.7232
 3527TIP3    H231997   2.303   0.599  12.633 -0.8825  0.1021 -1.0407
 3528TIP3   OH231998   1.094   2.687  12.947 -1.0190 -0.1059 -0.8314
 3528TIP3    H131999   1.080   2.598  12.979 -2.2980  0.5074  0.3919
 3528TIP3    H232000   1.098   2.679  12.852 -0.9940 -1.4913 -0.7157
 3529TIP3   OH232001   5.857   2.774  11.841 -0.3608  0.0047 -0.2558
 3529TIP3    H132002   5.806   2.759  11.761  1.1134  0.4350 -1.3138
 3529TIP3    H232003   5.901   2.691  11.858 -0.6287 -0.0690  0.0716
 3530TIP3   OH232004   4.235   4.347  16.874 -0.0698  0.5343  0.0989
 3530TIP3    H132005   4.148   4.333  16.912  0.6889 -2.6428  0.8032
 3530TIP3    H232006   4.218   4.354  16.779 -1.2059  1.3547  0.3410
 3531TIP3   OH232007   2.969   5.276  13.905  0.4509 -0.6631  0.5906
 3531TIP3    H132008   3.005   5.196  13.868  1.0761  0.1169 -0.4980
 3531TIP3    H232009   2.877   5.275  13.879  0.9053 -0.0680 -1.1144
 3532TIP3   OH232010   2.205   2.300  16.813  0.3568 -0.1219  0.0583
 3532TIP3    H132011   2.161   2.312  16.729 -2.4473  0.9216  1.6061
 3532TIP3    H232012   2.261   2.377  16.822  1.8856 -1.0046 -1.5113
 3533TIP3   OH232013   3.552   0.307   1.712 -0.0659  0.1199  0.5662
 3533TIP3    H132014   3.501   0.230   1.687  0.3958 -0.4996  1.5167
 3533TIP3    H232015   3.505   0.345   1.786 -0.1522  0.5974  0.2649
 3534TIP3   OH232016   2.794   2.087   6.364  0.1462 -0.5519  0.4985
 3534TIP3    H132017   2.862   2.144   6.400 -0.4360 -0.1837  1.0178
 3534TIP3    H232018   2.761   2.039   6.440  0.1524 -1.0746  0.1711
 3535TIP3   OH232019   3.616   1.501  13.829  0.0110  0.0854 -0.1172
 3535TIP3    H132020   3.613   1.420  13.779  1.2662  0.1081 -0.2620
 3535TIP3    H232021   3.679   1.482  13.900 -0.3021  0.6679  0.3209
 3536TIP3   OH232022   4.387   3.140   6.006  0.3600 -0.3087  0.3222
 3536TIP3    H132023   4.458   3.120   6.067  1.6107  0.1153 -0.9719
 3536TIP3    H232024   4.401   3.080   5.933  0.4462  1.0268 -0.7653
 3537TIP3   OH232025   1.622   2.413  14.874  0.3125  0.6103  0.0005
 3537TIP3    H132026   1.555   2.478  14.852  0.3009  1.0053  1.1751
 3537TIP3    H232027   1.704   2.462  14.875  0.6960  0.0611 -1.7681
 3538TIP3   OH232028   6.121   6.526  11.669  0.5676 -0.6240  0.0808
 3538TIP3    H132029   6.199   6.572  11.700  0.7331 -0.4049 -0.6383
 3538TIP3    H232030   6.155   6.445  11.630  0.5625  0.0124 -1.2876
 3539TIP3   OH232031   4.873   2.783   1.194  0.2305  0.3129 -0.1530
 3539TIP3    H132032   4.819   2.794   1.115 -0.7159  0.8827  0.5651
 3539TIP3    H232033   4.946   2.728   1.166 -0.5413 -0.1731 -1.2256
 3540TIP3   OH232034   6.656   4.636  12.515 -0.4123 -0.0456  0.0220
 3540TIP3    H132035   6.748   4.611  12.507 -0.4870 -0.0710 -0.7542
 3540TIP3    H232036   6.658   4.717  12.566  0.0604  0.1269 -0.2703
 3541TIP3   OH232037   5.158   2.999  13.405 -0.1063  0.1114 -0.0464
 3541TIP3    H132038   5.068   2.993  13.371  0.7711 -0.0377 -2.4944
 3541TIP3    H232039   5.206   3.045  13.336  1.9008 -0.5963  0.8314
 3542TIP3   OH232040   1.738   3.406  16.556 -0.3537  0.4675  0.1874
 3542TIP3    H132041   1.730   3.436  16.466  1.3814  1.4317  0.3251
 3542TIP3    H232042   1.796   3.330  16.550 -0.7410  0.1479  0.4329
 3543TIP3   OH232043   1.679   4.000   0.631  0.0461 -0.0289 -0.4426
 3543TIP3    H132044   1.703   4.090   0.651  1.6158  0.1120 -2.8228
 3543TIP3    H232045   1.584   3.998   0.638  0.0079  1.8008 -0.3473
 3544TIP3   OH232046   2.200   3.780  14.634  0.4043  0.3453  0.0967
 3544TIP3    H132047   2.212   3.871  14.609  1.9210  0.3523  0.7775
 3544TIP3    H232048   2.176   3.736  14.552  0.3497  1.2360 -0.3735
 3545TIP3   OH232049   0.317   1.983  12.651  0.3896  0.6195 -0.7252
 3545TIP3    H132050   0.363   1.900  12.661  0.2736  0.4585 -1.5457
 3545TIP3    H232051   0.287   2.005  12.740  0.6637 -0.0691 -0.4645
 3546TIP3   OH232052   1.494   0.456   3.901 -0.0761 -0.2839 -0.0718
 3546TIP3    H132053   1.535   0.376   3.933 -1.6676 -1.6912 -1.4192
 3546TIP3    H232054   1.428   0.478   3.967 -0.6257 -0.9234 -0.3980
 3547TIP3   OH232055   3.526   1.582   1.284 -0.3594  0.2360 -0.6505
 3547TIP3    H132056   3.436   1.576   1.252 -0.4912 -0.3259 -0.1853
 3547TIP3    H232057   3.524   1.654   1.346  0.2078  2.2430 -2.8980
 3548TIP3   OH232058   0.703   4.617  11.864 -0.3079  0.1228 -0.1209
 3548TIP3    H132059   0.664   4.669  11.794 -1.0319  1.3015  1.1240
 3548TIP3    H232060   0.678   4.663  11.945  1.4576 -0.5563  0.8469
 3549TIP3   OH232061   3.048   0.942  15.470  0.6901 -0.0018 -0.3289
 3549TIP3    H132062   3.015   0.868  15.418  0.0257 -0.3518  0.5585
 3549TIP3    H232063   3.092   0.900  15.544  0.3990  0.4950  0.1244
 3550TIP3   OH232064   2.744   1.175  15.274 -0.0985  0.0252 -0.3109
 3550TIP3    H132065   2.649   1.165  15.268 -0.0686 -0.6338  0.3184
 3550TIP3    H232066   2.768   1.225  15.195 -1.0722  1.0224  0.0060
 3551TIP3   OH232067   0.940   6.308  13.929 -0.6814  0.2088 -0.7734
 3551TIP3    H132068   0.866   6.323  13.988  0.2975 -0.3181  0.6284
 3551TIP3    H232069   1.006   6.372  13.958  1.3099 -2.6878  1.3731
 3552TIP3   OH232070   0.263   2.043   5.522 -1.1858  0.0223 -0.1638
 3552TIP3    H132071   0.190   2.007   5.471 -0.7216 -0.0516 -0.7823
 3552TIP3    H232072   0.322   1.968   5.535 -0.1877  0.5493 -1.5036
 3553TIP3   OH232073   2.740   3.981   0.947 -0.0147  0.4798  0.7510
 3553TIP3    H132074   2.739   3.911   1.012 -3.4621  0.0440  0.3287
 3553TIP3    H232075   2.690   3.946   0.873 -1.2969  3.1494  0.2821
 3554TIP3   OH232076   6.062   2.737  16.737 -0.5660  0.4895  0.2369
 3554TIP3    H132077   6.036   2.732  16.829  0.4786  0.9623  0.5642
 3554TIP3    H232078   6.094   2.649  16.717 -2.5447 -0.1445 -0.2191
 3555TIP3   OH232079   2.372   2.954  14.211  0.3474 -0.0089  0.2812
 3555TIP3    H132080   2.322   2.874  14.225 -0.3507  0.6227  1.5267
 3555TIP3    H232081   2.362   2.972  14.118  0.4206 -1.3073  0.0128
 3556TIP3   OH232082   3.356   5.595  12.000  0.5759  0.3999  0.4423
 3556TIP3    H132083   3.309   5.672  12.032  1.5891  1.0067  0.4929
 3556TIP3    H232084   3.400   5.624  11.920  2.1966  0.3258  1.2749
 3557TIP3   OH232085   6.527   0.924   5.674  0.0626 -0.1705 -0.2486
 3557TIP3    H132086   6.491   0.943   5.760 -0.3169 -1.5636 -0.0820
 3557TIP3    H232087   6.451   0.906   5.619  0.4166 -2.3489 -0.0925
 3558TIP3   OH232088   3.350   1.014  13.374  0.0585 -0.4011  0.0878
 3558TIP3    H132089   3.372   0.924  13.396 -2.1898 -1.0761 -0.3682
 3558TIP3    H232090   3.327   1.012  13.281  0.8219  0.7999 -0.1434
 3559TIP3   OH232091   2.185   6.128   4.824 -0.0380 -0.4399  0.1209
 3559TIP3    H132092   2.265   6.078   4.840 -0.6295 -1.3088  0.3922
 3559TIP3    H232093   2.199   6.168   4.738  0.0001 -1.9477 -0.5991
 3560TIP3   OH232094   1.480   0.012  16.862  0.7114  0.2764 -0.0963
 3560TIP3    H132095   1.427   0.089  16.841  2.4517  1.3629 -0.5580
 3560TIP3    H232096   1.421  -0.062  16.847 -1.0280  1.5093  0.4851
 3561TIP3   OH232097   2.126   0.994  13.769  0.6481 -0.2061 -0.4086
 3561TIP3    H132098   2.147   0.902  13.788 -1.3409 -0.5564  0.1992
 3561TIP3    H232099   2.090   0.993  13.681  1.0523  0.0727 -0.5799
 3562TIP3   OH232100   4.624   1.780   5.132 -0.0809 -0.0415 -0.4234
 3562TIP3    H132101   4.608   1.778   5.226  1.2209  1.6144 -0.1479
 3562TIP3    H232102   4.553   1.833   5.096  0.5207  0.9867 -0.1195
 3563TIP3   OH232103   4.319   4.825  12.268 -0.2000 -0.0311  0.2418
 3563TIP3    H132104   4.320   4.738  12.227  1.1502 -0.2086  0.6227
 3563TIP3    H232105   4.315   4.807  12.361 -1.6039  0.3570  0.2755
 3564TIP3   OH232106   4.726   6.577   1.751 -0.3158 -0.3056  0.2206
 3564TIP3    H132107   4.720   6.505   1.689  0.4344  2.1009 -2.7641
 3564TIP3    H232108   4.820   6.585   1.769 -0.5035 -0.8129  1.4687
 3565TIP3   OH232109   3.594   6.165   1.723 -0.2631  0.2267 -0.6636
 3565TIP3    H132110   3.549   6.219   1.660  1.9392  0.7146 -1.8725
 3565TIP3    H232111   3.646   6.104   1.670  0.5596 -0.2498  0.6527
 3566TIP3   OH232112   1.961   5.374  12.626 -0.0691  0.9560  0.1964
 3566TIP3    H132113   2.020   5.415  12.563 -0.8550  1.9354  0.0887
 3566TIP3    H232114   1.873   5.384  12.588 -0.2193 -1.5489 -0.2272
 3567TIP3   OH232115   6.613   5.595   2.587 -0.3397 -0.5601  0.2706
 3567TIP3    H132116   6.558   5.607   2.510  0.1736  1.1486  0.1478
 3567TIP3    H232117   6.598   5.673   2.640  1.1328 -0.5834  0.7482
 3568TIP3   OH232118   6.329   1.226   3.737 -0.1053 -0.0018 -0.2160
 3568TIP3    H132119   6.386   1.261   3.806 -0.6724  0.2762  0.1200
 3568TIP3    H232120   6.307   1.138   3.767 -0.3867  0.1350 -0.0148
 3569TIP3   OH232121   2.456   3.709   2.076  0.6979  0.5906  0.3608
 3569TIP3    H132122   2.536   3.663   2.102  1.1653  2.1016  1.6913
 3569TIP3    H232123   2.427   3.665   1.996  2.6870 -0.1688  0.0461
 3570TIP3   OH232124   0.456   0.214   3.441  0.1112  0.0522  0.3025
 3570TIP3    H132125   0.521   0.144   3.442  1.6096  1.4058  0.4487
 3570TIP3    H232126   0.424   0.217   3.351 -0.8434 -1.5826  0.5668
 3571TIP3   OH232127   2.610   3.950   1.220  0.3088 -0.6437  0.4373
 3571TIP3    H132128   2.587   3.859   1.239  0.8156 -0.5368  1.6720
 3571TIP3    H232129   2.577   3.999   1.296 -1.2305  0.4093 -0.8855
 3572TIP3   OH232130   2.363   2.108   5.931 -0.5126  0.3749 -0.5640
 3572TIP3    H132131   2.374   2.033   5.989 -0.8534 -0.1705 -1.1936
 3572TIP3    H232132   2.279   2.146   5.957  0.6552  1.8432  1.2020
 3573TIP3   OH232133   5.491   5.448   3.814  0.6683 -0.0803 -0.2700
 3573TIP3    H132134   5.480   5.367   3.863  0.5831 -0.8650 -1.5476
 3573TIP3    H232135   5.544   5.504   3.870 -0.0202 -0.6839  1.0043
 3574TIP3   OH232136   2.472   3.585   4.516  0.6675 -0.7125 -0.3348
 3574TIP3    H132137   2.387   3.622   4.493  0.6616  0.8103  2.0099
 3574TIP3    H232138   2.530   3.661   4.522  0.9724 -1.1744  3.2154
 3575TIP3   OH232139   4.379   4.689   6.048 -0.2745 -0.1957  1.0724
 3575TIP3    H132140   4.322   4.741   6.104 -2.0043 -0.6682 -0.2190
 3575TIP3    H232141   4.332   4.607   6.035  0.1926 -0.1608 -0.9092
 3576TIP3   OH232142   3.602   2.156   0.477  0.1569 -1.0779  0.0853
 3576TIP3    H132143   3.683   2.121   0.514  0.1945  1.2087  2.2640
 3576TIP3    H232144   3.536   2.140   0.545 -0.5649 -0.1518 -0.3836
 3577TIP3   OH232145   3.703   1.298   2.319  0.3664 -0.0657  0.1830
 3577TIP3    H132146   3.677   1.226   2.377 -0.1867  1.0969  1.4167
 3577TIP3    H232147   3.632   1.362   2.329  1.0323  0.7966 -0.6239
 3578TIP3   OH232148   2.232   1.234  11.578 -0.5386  0.3030 -0.1683
 3578TIP3    H132149   2.274   1.221  11.493 -0.2562  0.5818 -0.0719
 3578TIP3    H232150   2.139   1.226  11.560 -0.4569 -0.1070 -0.4220
 3579TIP3   OH232151   5.903   0.092   5.583  0.5031  0.6117 -0.6389
 3579TIP3    H132152   5.829   0.153   5.584 -1.6476 -1.8766 -0.8336
 3579TIP3    H232153   5.951   0.114   5.503 -1.6576  0.4420 -2.0147
 3580TIP3   OH232154   1.178   1.822  10.567 -0.0532 -0.3064 -0.0389
 3580TIP3    H132155   1.271   1.826  10.545  0.2496 -0.4223  1.1809
 3580TIP3    H232156   1.134   1.864  10.493  0.9802 -0.0734 -0.5312
 3581TIP3   OH232157   4.852   1.984  17.223  0.0459  0.2345  0.0738
 3581TIP3    H132158   4.775   2.041  17.227  0.8800  1.5118 -1.7753
 3581TIP3    H232159   4.914   2.022  17.285 -0.3204 -0.0721  0.6334
 3582TIP3   OH232160   3.877   3.698   6.279 -0.7528  0.4591  0.0686
 3582TIP3    H132161   3.852   3.726   6.367 -1.5787  1.7558 -0.5511
 3582TIP3    H232162   3.798   3.713   6.226  0.3485  1.6167 -1.2925
 3583TIP3   OH232163   5.348   6.412   0.692 -0.5524 -0.0680  0.0711
 3583TIP3    H132164   5.298   6.477   0.642  0.9868  0.5973 -0.6132
 3583TIP3    H232165   5.420   6.387   0.634  1.0894  0.4699  1.8289
 3584TIP3   OH232166   3.923   1.288  12.175  0.0938 -0.2924 -0.4746
 3584TIP3    H132167   3.869   1.346  12.229 -0.8025 -1.2251 -0.3367
 3584TIP3    H232168   4.001   1.271  12.228 -1.3421 -2.2079  1.1257
 3585TIP3   OH232169   3.010   2.313  15.670  0.5597 -0.3030 -0.1085
 3585TIP3    H132170   2.986   2.224  15.642 -0.0071  0.0143 -0.6541
 3585TIP3    H232171   3.005   2.310  15.765 -2.4571 -0.0610 -0.1886
 3586TIP3   OH232172   3.823   2.621   1.043  0.0299  0.8636 -0.4895
 3586TIP3    H132173   3.850   2.707   1.074 -0.2153  0.9797 -0.5917
 3586TIP3    H232174   3.800   2.634   0.951 -2.0192  1.1533  0.0241
 3587TIP3   OH232175   3.647   5.665   3.057 -0.1994  0.4432 -0.3715
 3587TIP3    H132176   3.690   5.671   2.972 -0.1789 -0.0348 -0.3951
 3587TIP3    H232177   3.597   5.584   3.053 -0.1289  0.3752  0.1063
 3588TIP3   OH232178   3.909   1.678  14.631  0.3535 -0.2118  0.1410
 3588TIP3    H132179   3.816   1.694  14.612  0.3499 -0.4174 -0.0135
 3588TIP3    H232180   3.933   1.607  14.571  1.1191  1.1451 -1.2028
 3589TIP3   OH232181   5.935   1.445   5.208 -0.8051 -0.0771  0.1647
 3589TIP3    H132182   5.951   1.358   5.171  0.6613 -0.0342  0.6732
 3589TIP3    H232183   5.921   1.501   5.131 -1.7316 -0.7311 -0.1673
 3590TIP3   OH232184   0.594   5.101   3.798 -0.4093  0.2669  0.0258
 3590TIP3    H132185   0.500   5.086   3.783  0.1714 -2.0002 -1.4832
 3590TIP3    H232186   0.616   5.042   3.870 -0.4889  2.1250  1.6268
 3591TIP3   OH232187   3.289   6.749   2.240 -0.7684  0.1253 -0.4688
 3591TIP3    H132188   3.260   6.677   2.185 -0.9924 -0.2955  0.2010
 3591TIP3    H232189   3.282   6.716   2.330  2.1833 -0.1605 -0.2899
 3592TIP3   OH232190   3.124   4.225  14.140 -0.3324  0.2573  0.3473
 3592TIP3    H132191   3.214   4.207  14.112 -0.7020 -0.7308 -0.2209
 3592TIP3    H232192   3.131   4.234  14.235  0.3089 -0.2219  0.3558
 3593TIP3   OH232193   2.783   1.474   6.154  0.0978 -0.4419 -0.2124
 3593TIP3    H132194   2.748   1.534   6.089 -0.3701 -0.8816 -0.3710
 3593TIP3    H232195   2.802   1.394   6.104  0.1357 -0.6362  0.1123
 3594TIP3   OH232196   1.635   1.958   6.448  0.0135 -0.1566  0.7262
 3594TIP3    H132197   1.664   1.946   6.539  0.5440  0.1198  0.5966
 3594TIP3    H232198   1.648   1.873   6.407  4.1619  0.8748 -0.3084
 3595TIP3   OH232199   0.901   6.611  14.934 -0.2727 -0.0947 -0.4770
 3595TIP3    H132200   0.977   6.581  14.885 -0.1413 -0.5046 -0.0342
 3595TIP3    H232201   0.873   6.534  14.985  0.2092  0.5849  0.8487
 3596TIP3   OH232202   5.119   0.020  12.515 -1.2302  0.2294  0.1661
 3596TIP3    H132203   5.155   0.001  12.428 -0.1479 -1.9740  1.0563
 3596TIP3    H232204   5.040   0.072  12.498 -0.0467  1.3530 -2.0317
 3597TIP3   OH232205   1.782   2.944   3.124 -0.1324 -0.2621 -0.0089
 3597TIP3    H132206   1.715   2.944   3.056  2.2586  0.2840 -2.4639
 3597TIP3    H232207   1.832   3.025   3.108  0.6334 -0.2480  2.2642
 3598TIP3   OH232208   1.188   5.834   2.959 -0.8863  0.3281 -0.2520
 3598TIP3    H132209   1.245   5.779   2.905 -1.0981  0.7609 -0.9213
 3598TIP3    H232210   1.140   5.887   2.896 -0.0255  1.9399  0.4072
 3599TIP3   OH232211   0.205   5.873  15.795  0.3028  0.0685  0.0243
 3599TIP3    H132212   0.269   5.826  15.849 -0.3448 -0.3053  0.4779
 3599TIP3    H232213   0.130   5.885  15.853  0.2839  1.2483 -0.2435
 3600TIP3   OH232214   1.191   3.342  16.583  0.8268 -0.5634  0.2994
 3600TIP3    H132215   1.144   3.289  16.648  3.7944 -2.6458  0.8664
 3600TIP3    H232216   1.205   3.426  16.627 -0.4688 -0.6541  0.9099
 3601TIP3   OH232217   4.163   5.855   2.004 -0.5718  0.2613 -0.4863
 3601TIP3    H132218   4.076   5.851   2.043  0.3605  2.4550  2.0007
 3601TIP3    H232219   4.176   5.948   1.984  1.3034  0.0157 -0.4920
 3602TIP3   OH232220   2.255   5.261   2.756 -0.0913  0.3453  0.0867
 3602TIP3    H132221   2.178   5.225   2.799 -0.3598  1.2145  0.3470
 3602TIP3    H232222   2.274   5.200   2.685 -1.3907  0.4563 -0.3646
 3603TIP3   OH232223   5.327   4.425   1.743  0.0879  0.6484  0.1300
 3603TIP3    H132224   5.245   4.424   1.692  1.2328  2.1084 -1.7969
 3603TIP3    H232225   5.336   4.515   1.773  1.4028  0.6926 -0.3696
 3604TIP3   OH232226   4.606   0.555  16.642 -0.3523  0.0795 -0.0936
 3604TIP3    H132227   4.513   0.576  16.642 -0.3597  0.0457  0.5389
 3604TIP3    H232228   4.641   0.602  16.566 -0.6023  1.3432  0.5649
 3605TIP3   OH232229   0.191   1.203   6.615  0.0760 -0.2457 -0.3300
 3605TIP3    H132230   0.096   1.216   6.621  0.1246 -0.1287  0.2852
 3605TIP3    H232231   0.217   1.254   6.538 -0.5315 -1.3211 -1.2624
 3606TIP3   OH232232   2.759   5.269  13.208  0.3265  0.4565  0.0636
 3606TIP3    H132233   2.799   5.303  13.288 -0.1013  3.4838 -0.9537
 3606TIP3    H232234   2.669   5.250  13.234 -0.1663  2.6076  0.0435
 3607TIP3   OH232235   1.408   3.269   4.022  0.1986  0.1082 -0.5497
 3607TIP3    H132236   1.411   3.361   3.996  0.8024 -0.0549 -1.0708
 3607TIP3    H232237   1.454   3.223   3.953 -0.9220 -0.7058 -0.7718
 3608TIP3   OH232238   6.224   4.631   4.866  0.6978  0.2893  0.0754
 3608TIP3    H132239   6.198   4.544   4.895 -0.5879  0.0703 -1.6787
 3608TIP3    H232240   6.221   4.627   4.770  4.1592  1.2001 -0.1617
 3609TIP3   OH232241   6.578   2.757   2.197 -0.1257  0.8036 -0.1031
 3609TIP3    H132242   6.615   2.846   2.196 -1.6088  1.4273  0.0704
 3609TIP3    H232243   6.634   2.710   2.259  0.3675  1.7512  0.1916
 3610TIP3   OH232244   6.622   4.017  16.007  0.1837  0.4708  0.0527
 3610TIP3    H132245   6.546   3.979  15.963 -0.1197 -0.0349  0.9892
 3610TIP3    H232246   6.601   4.110  16.016 -0.2175  0.3754  0.0991
 3611TIP3   OH232247   5.500   5.462  13.251 -0.2172 -0.7712 -0.7823
 3611TIP3    H132248   5.553   5.413  13.313 -0.3756  0.9802  0.7788
 3611TIP3    H232249   5.479   5.399  13.182  1.8125 -2.1422 -0.1919
 3612TIP3   OH232250   4.390   1.981  15.560 -0.0963 -0.1016  0.1523
 3612TIP3    H132251   4.390   1.998  15.466  1.3744  0.9179  0.3212
 3612TIP3    H232252   4.439   1.899  15.570 -0.2538 -0.2098  0.0267
 3613TIP3   OH232253   0.781   3.044  12.514  0.0577  0.3898 -0.0034
 3613TIP3    H132254   0.795   3.089  12.597  1.2887 -1.8731  1.0585
 3613TIP3    H232255   0.869   3.024  12.482 -0.4156 -2.1525  0.1022
 3614TIP3   OH232256   6.554   4.973   2.762  0.4512 -0.3983 -0.3532
 3614TIP3    H132257   6.474   5.024   2.760  0.8233  0.2164  0.3432
 3614TIP3    H232258   6.623   5.037   2.779  1.0087 -1.0179 -0.2622
 3615TIP3   OH232259   4.488   5.421   5.259 -0.5604 -0.2922 -0.2468
 3615TIP3    H132260   4.439   5.427   5.177 -1.3559  0.1265  0.2462
 3615TIP3    H232261   4.430   5.374   5.319 -0.3183  0.1032  0.3111
 3616TIP3   OH232262   4.142   4.785  11.678 -0.0943 -0.0262 -0.0990
 3616TIP3    H132263   4.193   4.866  11.677  0.8938 -0.5940 -4.3110
 3616TIP3    H232264   4.051   4.814  11.677  0.2433  1.0340 -0.5014
 3617TIP3   OH232265   5.916   2.985  12.112  0.8107  0.3770  0.2687
 3617TIP3    H132266   5.871   3.060  12.074 -1.2260 -0.6185  0.6553
 3617TIP3    H232267   5.961   3.021  12.189 -2.2893  0.7882  1.9941
 3618TIP3   OH232268   0.409   2.504  15.351 -0.0092  0.2285 -0.3940
 3618TIP3    H132269   0.329   2.532  15.305 -1.3844 -0.6030  1.4397
 3618TIP3    H232270   0.429   2.576  15.410 -0.1805 -0.1457  0.1207
 3619TIP3   OH232271   5.984   2.535   0.910 -0.3339  0.3131 -0.1429
 3619TIP3    H132272   5.931   2.518   0.832  0.4395  0.4266 -0.6970
 3619TIP3    H232273   6.020   2.623   0.895  0.4058  0.0319  0.0050
 3620TIP3   OH232274   5.609   3.481   4.670  0.2953 -0.0011 -0.0663
 3620TIP3    H132275   5.568   3.492   4.756 -0.5168  1.1725 -0.5855
 3620TIP3    H232276   5.620   3.387   4.660  0.8982 -0.1202  1.5531
 3621TIP3   OH232277   5.223   2.469   1.005 -0.1258  0.1051 -0.0983
 3621TIP3    H132278   5.277   2.405   1.051  1.7813  1.3630 -0.5324
 3621TIP3    H232279   5.198   2.424   0.924  1.1600 -0.1176 -0.3801
 3622TIP3   OH232280   1.928   3.909  14.642 -0.0633 -0.6693 -0.9822
 3622TIP3    H132281   1.970   3.847  14.583  0.8898 -1.5200  0.5511
 3622TIP3    H232282   1.839   3.874  14.654 -0.5998  0.0852 -2.7266
 3623TIP3   OH232283   4.752   1.996  16.047  0.1264 -0.5625  0.7896
 3623TIP3    H132284   4.810   1.946  16.105 -0.1916 -0.8493  0.8660
 3623TIP3    H232285   4.664   1.978  16.081 -0.0675 -0.7763  0.1818
 3624TIP3   OH232286   1.298   1.075   0.457 -0.3163 -0.3284  0.2157
 3624TIP3    H132287   1.297   1.082   0.553  0.1190  0.3440  0.1768
 3624TIP3    H232288   1.261   1.158   0.427  0.4182 -0.1465 -0.2061
 3625TIP3   OH232289   4.966   2.392  13.466  0.1605  0.3460  0.0292
 3625TIP3    H132290   5.034   2.430  13.522 -0.1129 -1.4604  1.6275
 3625TIP3    H232291   4.892   2.452  13.475  1.7090  2.7162 -2.2774
 3626TIP3   OH232292   0.675   1.492  11.334  0.0406  0.5011 -0.2825
 3626TIP3    H132293   0.666   1.567  11.275  0.1295  1.2450  0.6320
 3626TIP3    H232294   0.701   1.531  11.418  2.0474 -0.7084 -0.3111
 3627TIP3   OH232295   5.743   5.497   0.643  0.4540 -0.0796  0.8124
 3627TIP3    H132296   5.791   5.577   0.665  0.7980  0.0909 -0.5258
 3627TIP3    H232297   5.722   5.506   0.550 -0.0561 -1.2565  0.8070
 3628TIP3   OH232298   6.679   3.045  12.922 -0.0893  0.2208  0.5037
 3628TIP3    H132299   6.611   3.003  12.870 -1.1251  0.0828  1.9204
 3628TIP3    H232300   6.756   3.046  12.866 -1.1970  0.1538 -1.0383
 3629TIP3   OH232301   1.008   2.537   3.909 -0.0496 -0.2691 -0.2176
 3629TIP3    H132302   0.959   2.513   3.830  1.4192 -2.9871 -0.3434
 3629TIP3    H232303   1.048   2.621   3.888  0.1336 -0.8631 -2.2959
 3630TIP3   OH232304   6.547   1.250   2.122  0.3322 -0.1404  0.3400
 3630TIP3    H132305   6.600   1.312   2.072  0.9141 -0.8062  0.1172
 3630TIP3    H232306   6.524   1.182   2.058 -1.9984  0.8691  0.0723
 3631TIP3   OH232307   6.709   1.096  13.151 -0.0745  0.0581  0.3511
 3631TIP3    H132308   6.670   1.087  13.064 -0.4753 -3.5407  0.8250
 3631TIP3    H232309   6.666   1.173  13.189 -2.7161 -0.6011 -1.1711
 3632TIP3   OH232310   0.629   2.296   6.334 -0.3844  0.2315  0.6155
 3632TIP3    H132311   0.589   2.282   6.420 -2.5351  1.8228 -0.0785
 3632TIP3    H232312   0.566   2.258   6.272 -0.1606  1.4898 -0.4142
 3633TIP3   OH232313   0.603   0.102   1.687  0.8240  0.8317  0.3672
 3633TIP3    H132314   0.553   0.053   1.751 -1.4349  1.4823 -0.8443
 3633TIP3    H232315   0.634   0.179   1.734  3.1124 -0.9568  1.8694
 3634TIP3   OH232316   4.935   3.815  13.554 -0.1270 -0.2613 -0.0823
 3634TIP3    H132317   5.029   3.825  13.571  0.0557 -1.6765 -0.1772
 3634TIP3    H232318   4.930   3.748  13.486 -1.1521  0.9539 -1.2166
 3635TIP3   OH232319   2.472   0.413  17.127 -0.0048  0.2170  0.1367
 3635TIP3    H132320   2.494   0.324  17.156  0.7739  0.1551 -0.6348
 3635TIP3    H232321   2.427   0.401  17.044  1.5000  0.6222 -0.7556
 3636TIP3   OH232322   2.964   3.436  13.002  0.3161  0.7093 -0.6431
 3636TIP3    H132323   2.916   3.428  12.919  0.5659  0.7006 -0.7877
 3636TIP3    H232324   3.056   3.433  12.976  0.3980  1.2205 -0.4142
 3637TIP3   OH232325   0.990   1.183  15.171 -0.2531  0.0619 -0.1225
 3637TIP3    H132326   1.001   1.149  15.082  1.1607  1.3452 -0.4628
 3637TIP3    H232327   1.076   1.175  15.211 -0.6157  0.5081  0.7520
 3638TIP3   OH232328   5.303   5.564   3.419 -0.0575  0.0190  0.2651
 3638TIP3    H132329   5.290   5.556   3.513 -0.1955 -0.4716  0.2046
 3638TIP3    H232330   5.246   5.636   3.392  2.1359  2.0804  1.0171
 3639TIP3   OH232331   4.576   3.761   0.890  0.2576 -0.0842  0.1015
 3639TIP3    H132332   4.525   3.746   0.810 -0.1453 -1.3423  0.5722
 3639TIP3    H232333   4.546   3.692   0.950  1.5870 -0.0433  0.8285
 3640TIP3   OH232334   6.006   0.113  14.472  0.0590  0.0314 -0.6222
 3640TIP3    H132335   6.098   0.103  14.498  0.1390  0.9164 -0.5604
 3640TIP3    H232336   5.979   0.025  14.447  1.1070 -0.1228 -1.2459
 3641TIP3   OH232337   5.785   4.144  14.642 -0.0898 -0.3172  0.4458
 3641TIP3    H132338   5.806   4.186  14.725 -1.9719 -0.4091  0.9916
 3641TIP3    H232339   5.837   4.064  14.641  0.8358  0.2778  0.9965
 3642TIP3   OH232340   4.910   6.296  12.865 -0.1158 -0.0300 -0.0833
 3642TIP3    H132341   4.939   6.367  12.808 -0.6687 -0.2996 -0.7041
 3642TIP3    H232342   4.846   6.247  12.813  1.5876 -2.0546 -0.3310
 3643TIP3   OH232343   3.258   5.720  11.159  0.2992 -0.4550 -0.2360
 3643TIP3    H132344   3.329   5.659  11.177  0.2071 -0.5399 -0.1563
 3643TIP3    H232345   3.278   5.797  11.211  0.2230 -0.5603 -0.0511
 3644TIP3   OH232346   2.342   5.222   6.788  1.0820 -0.0136  0.5846
 3644TIP3    H132347   2.364   5.268   6.706 -0.6108 -0.8072 -0.3298
 3644TIP3    H232348   2.312   5.292   6.846 -1.2707  0.1196 -0.7235
 3645TIP3   OH232349   3.378   1.106   0.463  0.7632 -0.1515  0.3122
 3645TIP3    H132350   3.347   1.038   0.523  4.6021 -2.0502  0.2694
 3645TIP3    H232351   3.329   1.091   0.382 -0.4873 -1.0351  1.2116
 3646TIP3   OH232352   0.832   6.572   4.208  0.0034 -0.1408 -0.2221
 3646TIP3    H132353   0.773   6.648   4.216  1.5552  1.1693 -0.9066
 3646TIP3    H232354   0.814   6.536   4.122 -0.1079  0.0087 -0.2625
 3647TIP3   OH232355   5.440   0.438  14.789 -0.3020 -0.2320  0.2075
 3647TIP3    H132356   5.446   0.344  14.808  0.9308  0.0071  1.1059
 3647TIP3    H232357   5.517   0.456  14.735 -0.5483  0.2614  0.0208
 3648TIP3   OH232358   1.105   0.420  15.203 -0.0556  0.3455  0.3273
 3648TIP3    H132359   1.089   0.467  15.121 -0.4444 -0.9843 -0.3721
 3648TIP3    H232360   1.147   0.485  15.260  0.9090  1.0737 -1.1752
 3649TIP3   OH232361   5.759   2.943  15.943 -0.5195 -0.2170 -0.3936
 3649TIP3    H132362   5.685   2.981  15.989 -1.8785 -1.1602 -1.7707
 3649TIP3    H232363   5.761   2.988  15.858 -0.7795 -1.6013 -1.1575
 3650TIP3   OH232364   3.133   6.537   5.131  0.1918 -0.0117 -0.4006
 3650TIP3    H132365   3.100   6.470   5.192  1.5809 -0.2634  0.0880
 3650TIP3    H232366   3.158   6.487   5.053  3.0072 -0.3585  0.6578
 3651TIP3   OH232367   0.559   2.030   2.132 -0.1021  0.2431  0.3573
 3651TIP3    H132368   0.564   1.966   2.062 -0.0201 -1.0740  1.5576
 3651TIP3    H232369   0.536   1.980   2.210  1.5244  1.4052  1.6299
 3652TIP3   OH232370   4.450   3.358   4.676  0.3730 -0.7960  0.9261
 3652TIP3    H132371   4.542   3.339   4.697  0.4743 -1.2907  0.0503
 3652TIP3    H232372   4.408   3.273   4.672  0.4457 -0.7660 -1.2531
 3653TIP3   OH232373   3.878   5.234   4.143  0.0202  0.1837 -0.3726
 3653TIP3    H132374   3.833   5.207   4.063 -0.1767  0.2255 -0.2775
 3653TIP3    H232375   3.817   5.295   4.185  0.2097  0.3200 -0.2928
 3654TIP3   OH232376   3.866   1.122  12.930 -0.0697  0.3207  0.1967
 3654TIP3    H132377   3.948   1.083  12.900 -1.7006 -3.2261  0.1058
 3654TIP3    H232378   3.821   1.149  12.850 -0.7669 -1.5988 -0.1100
 3655TIP3   OH232379   3.727   2.406   4.451  0.1107 -0.1629  0.3993
 3655TIP3    H132380   3.800   2.462   4.425 -0.1256 -0.4627 -0.9636
 3655TIP3    H232381   3.696   2.444   4.533 -1.6565  3.2406 -1.7347
 3656TIP3   OH232382   6.323   4.605  11.547  0.2454 -0.2227  0.6367
 3656TIP3    H132383   6.282   4.608  11.633 -2.5269  0.1324 -0.6622
 3656TIP3    H232384   6.303   4.689  11.508  1.5269 -0.3641 -0.3691
 3657TIP3   OH232385   2.621   2.794   2.295 -0.3360 -0.0141  0.6279
 3657TIP3    H132386   2.709   2.759   2.307 -0.1598  0.6561  1.2846
 3657TIP3    H232387   2.628   2.854   2.220 -0.6731 -1.4717 -0.6052
 3658TIP3   OH232388   5.905   0.284  15.233  0.0568  0.8125  0.1821
 3658TIP3    H132389   5.948   0.343  15.295  0.2348  1.0689 -0.1785
 3658TIP3    H232390   5.974   0.222  15.209  0.0430  0.8287  0.1000
 3659TIP3   OH232391   0.086   5.128  12.468  0.4874  0.4518  0.0541
 3659TIP3    H132392  -0.007   5.144  12.480  0.3062 -1.6558  1.7751
 3659TIP3    H232393   0.121   5.118  12.557  1.9202 -0.9907 -0.6309
 3660TIP3   OH232394   0.310   1.759  16.587 -0.0892  0.3120 -0.2846
 3660TIP3    H132395   0.268   1.833  16.543  1.7278  1.0254 -0.8948
 3660TIP3    H232396   0.282   1.682  16.537 -2.5523  0.4817  0.7790
 3661TIP3   OH232397   1.595   4.111  15.912  0.4198 -0.0107 -0.9771
 3661TIP3    H132398   1.574   4.189  15.963 -0.6680 -1.1328  0.3095
 3661TIP3    H232399   1.511   4.083  15.876  0.5523 -1.4813 -0.1581
 3662TIP3   OH232400   2.129   5.046   2.274 -0.0021 -0.1557  0.0869
 3662TIP3    H132401   2.077   4.972   2.306  1.2242 -0.8518  0.5136
 3662TIP3    H232402   2.066   5.102   2.229 -1.4020 -0.1723  1.9909
 3663TIP3   OH232403   4.203   3.793  13.091  0.6444 -0.0716  0.2382
 3663TIP3    H132404   4.181   3.714  13.140  0.9559 -0.1952  0.1759
 3663TIP3    H232405   4.297   3.788  13.076  0.5598 -0.0219 -0.3467
 3664TIP3   OH232406   2.076   0.735  12.195 -0.3396  0.8468 -0.3034
 3664TIP3    H132407   2.072   0.685  12.277  0.9511 -1.4134 -1.5807
 3664TIP3    H232408   2.120   0.816  12.219  1.9966 -0.7095  0.8500
 3665TIP3   OH232409   4.106   4.146   3.142  0.2739 -0.0468  0.3591
 3665TIP3    H132410   4.147   4.232   3.137  0.2422 -0.0840 -0.4702
 3665TIP3    H232411   4.145   4.106   3.220  0.0316  0.8472  0.9455
 3666TIP3   OH232412   0.003   5.630   3.757 -0.5415 -1.3359 -0.1819
 3666TIP3    H132413  -0.044   5.691   3.701 -1.0319 -1.4777  0.0706
 3666TIP3    H232414  -0.045   5.631   3.840  0.0617 -1.2763  0.1708
 3667TIP3   OH232415   5.861   3.048  14.169 -0.2178  0.2584 -0.3975
 3667TIP3    H132416   5.812   2.966  14.168  1.0301 -0.5055 -0.5807
 3667TIP3    H232417   5.819   3.100  14.237 -1.0460 -0.5259 -0.2992
 3668TIP3   OH232418   6.049   0.162  13.009  0.5263 -0.1399 -0.3002
 3668TIP3    H132419   6.142   0.142  13.003  1.1505  2.1329  1.0064
 3668TIP3    H232420   6.019   0.168  12.918  1.5540 -1.3181 -0.7161
 3669TIP3   OH232421   5.327   4.628  16.844  0.3532  0.4330 -0.7396
 3669TIP3    H132422   5.299   4.536  16.842  0.6629  0.2894  0.7368
 3669TIP3    H232423   5.247   4.677  16.862  0.4588  0.3044  0.1151
 3670TIP3   OH232424   3.912   0.285  13.517 -0.3003 -0.0158 -0.5636
 3670TIP3    H132425   3.859   0.364  13.507 -0.5252 -0.0273  0.4910
 3670TIP3    H232426   3.965   0.281  13.437  0.1853  1.5638 -0.3362
 3671TIP3   OH232427   5.224   4.487  13.946 -0.4105 -0.2857  0.5229
 3671TIP3    H132428   5.255   4.473  14.035  1.3231  1.5557  0.2398
 3671TIP3    H232429   5.299   4.524  13.899 -2.0231  1.1374 -1.0574
 3672TIP3   OH232430   5.916   0.294   2.963 -0.1147  0.5997  0.4049
 3672TIP3    H132431   5.949   0.376   2.927 -0.8624 -0.1701 -2.1331
 3672TIP3    H232432   5.827   0.315   2.992  0.3403  1.1163  1.4684
 3673TIP3   OH232433   3.878   1.687  13.002 -0.2137  0.3640 -0.7320
 3673TIP3    H132434   3.867   1.592  13.002  0.3748  0.2797  1.1310
 3673TIP3    H232435   3.789   1.722  13.001 -0.4589 -0.2233  0.0591
 3674TIP3   OH232436   4.896   4.403   4.643  0.4870 -0.2475 -0.1938
 3674TIP3    H132437   4.905   4.440   4.555  0.0650  0.2026 -0.0526
 3674TIP3    H232438   4.806   4.368   4.644  1.0593 -1.7816 -0.5133
 3675TIP3   OH232439   0.300   2.681  12.598 -0.1139 -0.2617  0.1989
 3675TIP3    H132440   0.225   2.662  12.542 -1.1278  0.3942  1.3251
 3675TIP3    H232441   0.352   2.744  12.547 -0.5507 -0.3780 -0.3929
 3676TIP3   OH232442   2.188   2.341   0.586  0.3137 -0.0139  0.6873
 3676TIP3    H132443   2.203   2.342   0.491  1.9792  0.0430  0.9354
 3676TIP3    H232444   2.148   2.426   0.605 -0.4595 -0.2144 -0.0258
 3677TIP3   OH232445   2.237   1.995  14.443  0.1548  0.3735  0.5521
 3677TIP3    H132446   2.218   1.985  14.350  1.8745  1.8923  0.0115
 3677TIP3    H232447   2.185   2.070  14.470  1.6249  1.5271  0.2041
 3678TIP3   OH232448   5.112   5.101  15.801  0.6395  0.4978 -0.2834
 3678TIP3    H132449   5.017   5.093  15.793  0.4762  0.2869  1.5474
 3678TIP3    H232450   5.147   5.046  15.731 -0.5979 -0.9178  0.1680
 3679TIP3   OH232451   3.716   4.267   1.446  0.3019  0.1903 -0.3186
 3679TIP3    H132452   3.636   4.308   1.413  0.6148  0.9576 -0.1257
 3679TIP3    H232453   3.776   4.339   1.460  0.6750 -0.2806  0.5425
 3680TIP3   OH232454   0.673   2.904   1.212  0.3196  0.0749  0.1090
 3680TIP3    H132455   0.703   2.889   1.123 -0.5165  0.6412 -0.2716
 3680TIP3    H232456   0.707   2.990   1.235  1.0169 -0.3072  0.5540
 3681TIP3   OH232457   4.723   4.250   6.393 -0.2292  0.7778 -0.4398
 3681TIP3    H132458   4.679   4.281   6.314  0.2867 -0.1277 -1.0804
 3681TIP3    H232459   4.800   4.203   6.362  0.1039  0.6079  0.6088
 3682TIP3   OH232460   5.771   4.843  16.067  0.1007  0.0582 -0.1577
 3682TIP3    H132461   5.750   4.884  15.983 -0.2880  0.4443  0.1303
 3682TIP3    H232462   5.752   4.910  16.132 -0.3340 -0.5032  0.3013
 3683TIP3   OH232463   1.015   4.608  15.073 -0.2902 -0.5657  0.6355
 3683TIP3    H132464   1.036   4.516  15.053 -0.9957 -1.1500  2.4329
 3683TIP3    H232465   1.054   4.623  15.159  0.2179  0.9820  0.1473
 3684TIP3   OH232466   6.566   1.511  16.010  0.6004 -0.4608 -0.0792
 3684TIP3    H132467   6.600   1.592  15.972 -0.0753 -0.4352 -0.6460
 3684TIP3    H232468   6.498   1.483  15.949  0.8193 -1.4474  0.1216
 3685TIP3   OH232469   5.420   4.545   0.470 -0.5512  0.1271  0.5124
 3685TIP3    H132470   5.425   4.627   0.519 -0.1111  0.5039 -0.1549
 3685TIP3    H232471   5.394   4.572   0.382  2.4807 -0.1352 -0.5106
 3686TIP3   OH232472   2.402   3.984  16.198 -0.3377 -0.4005 -0.0886
 3686TIP3    H132473   2.469   3.994  16.130 -0.6951 -0.7779 -0.4980
 3686TIP3    H232474   2.383   4.073  16.227 -0.7380 -0.1880 -1.0160
 3687TIP3   OH232475   5.438   1.253   5.588 -0.0755  0.0527  0.1829
 3687TIP3    H132476   5.507   1.212   5.537 -0.3806  0.5979 -0.6657
 3687TIP3    H232477   5.383   1.179   5.617 -0.0678 -0.2254 -0.5077
 3688TIP3   OH232478   0.416   5.109  12.467 -0.4136 -0.0725  0.0838
 3688TIP3    H132479   0.348   5.133  12.404  1.1156  0.1988 -1.4839
 3688TIP3    H232480   0.440   5.019  12.443 -1.0670 -0.6177  1.4118
 3689TIP3   OH232481   3.993   6.418  14.973  0.1904 -0.1340 -0.4245
 3689TIP3    H132482   4.026   6.463  15.051 -0.5811 -0.1055 -0.1132
 3689TIP3    H232483   4.004   6.482  14.903  2.8398 -0.8876 -0.7748
 3690TIP3   OH232484   2.997   4.055  16.706 -0.3844  0.0203 -0.2975
 3690TIP3    H132485   2.956   4.013  16.631 -0.3306 -1.1247  0.2944
 3690TIP3    H232486   2.925   4.075  16.765 -0.3083 -0.1279 -0.1535
 3691TIP3   OH232487   3.967   4.770  15.360  0.5688 -0.7407  0.3411
 3691TIP3    H132488   3.988   4.844  15.303 -0.8235 -0.2552  0.4376
 3691TIP3    H232489   4.044   4.761  15.417  0.3877  1.2044  0.9124
 3692TIP3   OH232490   3.785   6.209   6.126 -0.2615  0.3621  0.0283
 3692TIP3    H132491   3.804   6.283   6.182  0.9643  0.0212  0.0751
 3692TIP3    H232492   3.783   6.133   6.185 -0.2374  0.1755 -0.2087
 3693TIP3   OH232493   5.070   4.864  13.512  0.1612 -0.9104 -0.7246
 3693TIP3    H132494   5.031   4.841  13.428  1.1588  2.0515 -2.0726
 3693TIP3    H232495   5.089   4.958  13.505  2.6805 -1.1482  1.8291
 3694TIP3   OH232496   5.465   4.693  15.440 -0.5471  0.3317 -0.4262
 3694TIP3    H132497   5.560   4.688  15.430 -0.4087 -0.4026  0.9992
 3694TIP3    H232498   5.432   4.712  15.352  1.0131  2.2818 -0.6271
 3695TIP3   OH232499   5.602   5.854  11.384  0.0209  0.3282  0.2032
 3695TIP3    H132500   5.557   5.884  11.463  0.0764 -0.2595  0.4596
 3695TIP3    H232501   5.644   5.933  11.349 -0.4899  0.7056  0.4353
 3696TIP3   OH232502   0.945   4.020  16.964 -1.0107  0.3685 -0.2383
 3696TIP3    H132503   0.896   4.044  17.043  0.0820 -0.6322  0.7656
 3696TIP3    H232504   0.925   3.927  16.951  1.6017 -0.4152  0.9553
 3697TIP3   OH232505   5.250   3.414   3.649 -0.7757 -0.2508  0.6331
 3697TIP3    H132506   5.298   3.496   3.652 -1.1611  0.0065 -0.0816
 3697TIP3    H232507   5.317   3.346   3.660 -0.2279  0.0981 -0.4883
 3698TIP3   OH232508   2.831   0.017   3.327 -0.1732  0.0926 -0.3218
 3698TIP3    H132509   2.911   0.055   3.364 -0.0480 -2.4723  2.2446
 3698TIP3    H232510   2.762   0.077   3.354  0.4986  0.6640  0.1689
 3699TIP3   OH232511   0.493   2.232   1.008 -0.3788 -0.2805 -0.1737
 3699TIP3    H132512   0.463   2.230   1.099 -0.8921  0.0623 -0.3384
 3699TIP3    H232513   0.586   2.210   1.014 -0.6705 -1.4524  0.3256
 3700TIP3   OH232514   5.287   6.695  16.470  0.2242 -0.1964 -0.1916
 3700TIP3    H132515   5.197   6.686  16.440  0.5467 -1.1847 -0.8906
 3700TIP3    H232516   5.287   6.659  16.559  0.1067 -0.9872 -0.5084
 3701TIP3   OH232517   5.383   3.512  14.408  0.2555  0.0946  0.5354
 3701TIP3    H132518   5.310   3.465  14.369 -1.1038  3.1523 -0.7349
 3701TIP3    H232519   5.371   3.502  14.503 -1.2203 -0.2861  0.3119
 3702TIP3   OH232520   5.107   3.097   4.957 -0.7741  0.4809 -0.1264
 3702TIP3    H132521   5.108   3.032   5.028  1.0762  0.6942  0.0689
 3702TIP3    H232522   5.169   3.063   4.893 -0.8264  1.3770 -0.6600
 3703TIP3   OH232523   2.052   1.769   0.234  0.1333 -0.1634  0.1773
 3703TIP3    H132524   1.958   1.780   0.224  0.0543  0.7004  1.8480
 3703TIP3    H232525   2.066   1.759   0.328  1.9785  2.3861  0.2358
 3704TIP3   OH232526   0.607   4.533   5.513 -0.1910  0.1932 -0.2987
 3704TIP3    H132527   0.547   4.495   5.577 -0.9220  0.0572 -1.0644
 3704TIP3    H232528   0.629   4.460   5.455 -0.3238  0.5615 -0.8094
 3705TIP3   OH232529   5.191   0.133  17.108  0.1614  0.6604  0.0869
 3705TIP3    H132530   5.187   0.046  17.069 -1.3826  0.5141  0.5483
 3705TIP3    H232531   5.111   0.140  17.160  0.4968  2.1747  0.4248
 3706TIP3   OH232532   2.886   4.115   1.631  0.5353  0.3999  0.2423
 3706TIP3    H132533   2.804   4.135   1.586 -1.3765 -1.1028  2.8245
 3706TIP3    H232534   2.901   4.190   1.689  0.6141  0.4026  0.2182
 3707TIP3   OH232535   1.377   0.251   4.126  0.3708 -0.0683  0.1884
 3707TIP3    H132536   1.458   0.256   4.177  0.4985 -0.7908  0.0743
 3707TIP3    H232537   1.379   0.163   4.088  0.4920  0.6118 -1.4202
 3708TIP3   OH232538   1.417   4.635  14.413 -0.6726 -0.0229 -0.2257
 3708TIP3    H132539   1.476   4.677  14.352 -0.4687  0.4905  0.3254
 3708TIP3    H232540   1.462   4.555  14.439  0.2882  0.9391  1.0813
 3709TIP3   OH232541   4.922   0.013   0.956  0.0167  0.2197 -0.1941
 3709TIP3    H132542   4.850   0.065   0.993  0.0090  1.6588 -2.1483
 3709TIP3    H232543   4.999   0.040   1.005 -0.3085  0.7215  0.0400
 3710TIP3   OH232544   0.282   0.130   3.979  0.5982 -0.0132 -0.2307
 3710TIP3    H132545   0.374   0.144   3.958  0.6311  0.9460  0.5310
 3710TIP3    H232546   0.269   0.035   3.969  1.8761 -0.2628  0.5009
 3711TIP3   OH232547   6.662   0.633   5.388 -0.3568 -0.6712  0.6152
 3711TIP3    H132548   6.692   0.664   5.473  2.3751 -0.7485 -0.2787
 3711TIP3    H232549   6.678   0.706   5.328 -1.6589 -0.8417  0.0375
 3712TIP3   OH232550   4.009   2.406   0.396  0.1013 -0.2638  0.1023
 3712TIP3    H132551   3.983   2.489   0.436  0.1361 -1.4994  2.8046
 3712TIP3    H232552   3.927   2.368   0.366  0.0122  0.4304 -0.5679
 3713TIP3   OH232553   3.289   0.628  13.170  0.1559  0.0392 -0.3537
 3713TIP3    H132554   3.324   0.539  13.163 -1.4241 -0.8003  1.7721
 3713TIP3    H232555   3.304   0.652  13.262 -1.4928  1.0556 -0.3300
 3714TIP3   OH232556   0.772   6.782  15.546  0.1177 -0.0366  0.0842
 3714TIP3    H132557   0.737   6.863  15.508 -0.2981 -0.4547 -0.4474
 3714TIP3    H232558   0.759   6.792  15.640 -0.2158  0.3863 -0.0044
 3715TIP3   OH232559   0.315   1.600  16.063  0.1981 -0.1691  0.2087
 3715TIP3    H132560   0.315   1.527  16.125  0.7207  0.1270  0.5632
 3715TIP3    H232561   0.304   1.559  15.977  1.3317 -0.7339  0.3310
 3716TIP3   OH232562   3.502   4.684  14.669 -0.0785  0.0619  0.3671
 3716TIP3    H132563   3.556   4.735  14.609  0.1640  0.2505  0.7473
 3716TIP3    H232564   3.426   4.657  14.616 -0.2482  0.8828  0.1889
 3717TIP3   OH232565   2.801   0.278  11.915 -0.0628 -0.2878  0.3387
 3717TIP3    H132566   2.744   0.354  11.904  1.0657  0.6255  0.7162
 3717TIP3    H232567   2.774   0.240  11.998  0.5290  0.7062  0.9903
 3718TIP3   OH232568   3.298   3.146   3.951 -0.1223 -0.2261  0.5216
 3718TIP3    H132569   3.330   3.220   4.003  0.5059 -0.4227  0.4186
 3718TIP3    H232570   3.374   3.116   3.902 -0.3706 -0.9640  0.5780
 3719TIP3   OH232571   2.565   1.347   2.631 -0.0222 -0.1052 -0.0942
 3719TIP3    H132572   2.507   1.295   2.686  1.7235 -1.4361  0.5478
 3719TIP3    H232573   2.534   1.330   2.542 -1.8711  0.8162  0.3542
 3720TIP3   OH232574   0.341   5.975  12.988 -0.1689 -0.4330 -0.3778
 3720TIP3    H132575   0.318   5.922  13.065  0.4343 -0.3634 -0.1461
 3720TIP3    H232576   0.262   6.026  12.970 -0.3021 -0.4126  0.2341
 3721TIP3   OH232577   3.400   6.589   4.371  0.2322  0.3963 -0.2740
 3721TIP3    H132578   3.444   6.538   4.303  1.7808  1.4493 -0.0868
 3721TIP3    H232579   3.441   6.561   4.453 -0.1881  0.6242  0.0210
 3722TIP3   OH232580   6.649   0.549   2.655 -0.2587  0.0490  0.3815
 3722TIP3    H132581   6.598   0.610   2.709 -2.8604  0.6853 -2.6690
 3722TIP3    H232582   6.589   0.522   2.586  1.9500 -3.3318 -0.3153
 3723TIP3   OH232583   4.418   5.982   3.172  0.3697 -0.3844 -0.1667
 3723TIP3    H132584   4.398   6.067   3.133  0.6323  1.3352  3.3185
 3723TIP3    H232585   4.513   5.979   3.177  0.3618 -0.9025 -0.2443
 3724TIP3   OH232586   4.669   1.939   0.668  0.1370 -0.3451 -0.4390
 3724TIP3    H132587   4.626   1.958   0.752 -0.4705  0.7814 -0.9948
 3724TIP3    H232588   4.611   1.874   0.627 -1.3187  1.5055 -1.3843
 3725TIP3   OH232589   0.364   1.919  15.931 -0.0475  0.5124  0.2078
 3725TIP3    H132590   0.454   1.896  15.910  0.4416  3.0230 -0.6052
 3725TIP3    H232591   0.358   1.912  16.026  0.5656 -1.1313  0.1339
 3726TIP3   OH232592   6.349   1.113  15.745  0.6353  0.3344  0.0513
 3726TIP3    H132593   6.306   1.177  15.802  2.2233 -0.6549  2.4692
 3726TIP3    H232594   6.324   1.028  15.781  0.9197 -0.3541 -1.3223
 3727TIP3   OH232595   5.656   3.062  15.392 -0.0547 -0.0982 -0.6132
 3727TIP3    H132596   5.574   3.086  15.347  0.2801  0.0355 -1.1602
 3727TIP3    H232597   5.703   3.145  15.399 -0.2806 -0.0539  0.3459
 3728TIP3   OH232598   3.156   3.449  16.256 -0.4175  0.3302  0.6063
 3728TIP3    H132599   3.196   3.421  16.174 -0.2690  1.7475  0.1838
 3728TIP3    H232600   3.168   3.544  16.258  0.4559  0.1989  2.7294
 3729TIP3   OH232601   5.733   1.613  13.636 -0.1200  0.7821 -0.0628
 3729TIP3    H132602   5.732   1.650  13.724 -0.5187 -1.4701  0.9274
 3729TIP3    H232603   5.640   1.600  13.615  0.0032  0.6694 -0.5376
 3730TIP3   OH232604   2.815   0.162  12.366 -0.5434  0.4989  0.3581
 3730TIP3    H132605   2.775   0.241  12.330  0.0505  0.7503  0.2409
 3730TIP3    H232606   2.757   0.091  12.339 -0.4033  0.7499 -0.6083
 3731TIP3   OH232607   4.073   1.254   5.889 -0.2887  0.3210 -0.1584
 3731TIP3    H132608   4.053   1.178   5.835  0.2836 -0.1711  0.3171
 3731TIP3    H232609   4.045   1.229   5.977 -0.9695  1.0158 -0.1689
 3732TIP3   OH232610   6.486   0.137   5.585 -0.3631 -0.0245  0.4038
 3732TIP3    H132611   6.540   0.215   5.588 -0.1620 -0.1142 -0.6731
 3732TIP3    H232612   6.396   0.170   5.581 -0.3441  0.1292  1.0901
 3733TIP3   OH232613   3.774   3.563   4.272 -0.2703  0.5916 -0.0476
 3733TIP3    H132614   3.692   3.545   4.318 -0.9470  2.0010 -0.6773
 3733TIP3    H232615   3.833   3.492   4.299 -2.9825 -2.9936 -2.9136
 3734TIP3   OH232616   1.636   0.431  11.813  0.9256  0.4361  0.0023
 3734TIP3    H132617   1.609   0.511  11.767 -1.2674  0.5936  1.4743
 3734TIP3    H232618   1.653   0.461  11.903  1.9997 -0.4210  0.0849
 3735TIP3   OH232619   6.435   6.459   1.354  0.0466 -0.1654 -0.2405
 3735TIP3    H132620   6.399   6.394   1.415  0.7952 -0.4368 -0.0785
 3735TIP3    H232621   6.501   6.506   1.405  0.7246 -0.4424 -0.8596
 3736TIP3   OH232622   3.232   4.217   1.191 -0.0891 -0.0354  0.0668
 3736TIP3    H132623   3.299   4.221   1.123  0.5336  4.0736  0.7960
 3736TIP3    H232624   3.151   4.242   1.147 -0.7840 -2.8104 -0.3171
 3737TIP3   OH232625   1.208   4.273   3.338 -0.1600  0.5240  0.2180
 3737TIP3    H132626   1.272   4.219   3.385 -0.5687 -0.1616  0.0044
 3737TIP3    H232627   1.238   4.273   3.247 -0.1030  0.7410  0.2376
 3738TIP3   OH232628   4.202   2.627  14.201  0.0755  0.3338 -0.3941
 3738TIP3    H132629   4.297   2.614  14.211 -0.3581 -2.6474  0.1018
 3738TIP3    H232630   4.170   2.632  14.291 -0.5153 -0.9571 -0.5245
 3739TIP3   OH232631   6.274   3.577   4.071 -0.0181  0.2402 -0.0820
 3739TIP3    H132632   6.289   3.668   4.047  1.2338 -0.0487 -0.4708
 3739TIP3    H232633   6.202   3.548   4.015 -0.1007  0.8511 -0.2900
 3740TIP3   OH232634   1.172   2.284   2.426  0.5078  0.1854 -0.3533
 3740TIP3    H132635   1.093   2.271   2.374  0.5287  0.5272 -0.4745
 3740TIP3    H232636   1.207   2.196   2.439  0.5176  0.1026 -0.9425
 3741TIP3   OH232637   0.173   1.703   3.438  0.6704  0.3857 -0.0266
 3741TIP3    H132638   0.182   1.796   3.459  0.3581  0.9163 -2.1153
 3741TIP3    H232639   0.148   1.701   3.345  1.2078 -1.7996 -0.1696
 3742TIP3   OH232640   3.295   4.660   6.388  0.5364  0.1823  0.5139
 3742TIP3    H132641   3.317   4.733   6.447  1.5075  0.0426  0.3430
 3742TIP3    H232642   3.201   4.647   6.399 -0.1221  3.0358 -1.2211
 3743TIP3   OH232643   6.156   6.716  11.367  0.3522  0.1019  0.1525
 3743TIP3    H132644   6.228   6.725  11.430  1.7883  2.1352 -1.6974
 3743TIP3    H232645   6.099   6.791  11.385  0.5686  0.4783 -0.7511
 3744TIP3   OH232646   2.332   0.424  16.666  0.0006  0.3331  0.0887
 3744TIP3    H132647   2.411   0.397  16.715 -0.9660 -1.3998  0.7346
 3744TIP3    H232648   2.259   0.396  16.721 -1.0973  0.1499 -1.4255
 3745TIP3   OH232649   5.728   1.334  12.197  0.3985  0.2776  0.7590
 3745TIP3    H132650   5.712   1.269  12.265  0.5455 -0.4085  0.1436
 3745TIP3    H232651   5.675   1.305  12.122 -0.9740  1.8720  1.0934
 3746TIP3   OH232652   4.676   5.314   2.045 -0.1723 -0.0186 -0.4573
 3746TIP3    H132653   4.656   5.309   2.139  2.0033 -0.4510 -0.0016
 3746TIP3    H232654   4.626   5.390   2.014  0.9307  1.5395  1.5248
 3747TIP3   OH232655   3.638   3.883   1.137  0.5086  0.2324 -0.3842
 3747TIP3    H132656   3.591   3.959   1.170  2.3464  1.6193 -0.8731
 3747TIP3    H232657   3.686   3.915   1.061  1.2935 -1.4232 -0.6238
 3748TIP3   OH232658   0.972   6.006   5.120  0.3831  0.3035 -0.1681
 3748TIP3    H132659   1.010   6.031   5.204  2.2069 -0.9511 -0.5811
 3748TIP3    H232660   0.942   6.089   5.082  2.1513  1.2696  0.4674
 3749TIP3   OH232661   6.330   2.732  14.857  0.1003 -0.1518 -0.5859
 3749TIP3    H132662   6.241   2.758  14.878 -0.3867 -1.1118 -1.4034
 3749TIP3    H232663   6.368   2.809  14.814  0.2511  0.8715  1.3462
 3750TIP3   OH232664   3.709   3.084   2.353 -0.7534  0.0836 -0.0781
 3750TIP3    H132665   3.755   3.165   2.330  0.8164 -1.0525 -1.0849
 3750TIP3    H232666   3.732   3.069   2.444 -1.3145  0.9528  0.2048
 3751TIP3   OH232667   1.700   5.059   5.174 -0.7056 -0.3601  0.2535
 3751TIP3    H132668   1.744   5.098   5.099  1.7827 -0.0635  1.8236
 3751TIP3    H232669   1.607   5.076   5.159 -0.3184 -0.9937 -3.1167
 3752TIP3   OH232670   0.217   1.348   0.877  0.0115 -0.2174 -0.3629
 3752TIP3    H132671   0.200   1.258   0.847  0.3078 -0.8259  1.2609
 3752TIP3    H232672   0.303   1.370   0.840  0.6964 -1.2201  0.6215
 3753TIP3   OH232673   5.473   3.837   4.237 -0.2483 -0.3421  0.3679
 3753TIP3    H132674   5.497   3.783   4.162 -0.8093 -0.6645  0.4207
 3753TIP3    H232675   5.402   3.790   4.279  0.0184 -0.1259  1.0645
 3754TIP3   OH232676   3.857   2.442  11.677  0.1227 -0.0341  0.1772
 3754TIP3    H132677   3.861   2.484  11.592  3.5314 -1.1921 -0.3014
 3754TIP3    H232678   3.807   2.361  11.661  0.7530 -0.2508 -0.7413
 3755TIP3   OH232679   0.403   0.333  11.976 -0.0397 -0.2260  0.2091
 3755TIP3    H132680   0.326   0.277  11.974 -1.6632  1.8909  1.2388
 3755TIP3    H232681   0.373   0.417  11.941  1.4629  1.0073  1.7686
 3756TIP3   OH232682   2.976   4.601  12.912  0.5040  0.6851 -0.3035
 3756TIP3    H132683   2.891   4.624  12.875  0.1262 -0.7601 -0.3750
 3756TIP3    H232684   3.031   4.580  12.837 -0.1294 -1.8053 -0.1047
 3757TIP3   OH232685   4.728   5.538   0.851 -0.6332  0.2424  0.5651
 3757TIP3    H132686   4.708   5.561   0.941 -2.2634  1.2920 -0.0518
 3757TIP3    H232687   4.689   5.451   0.839  0.2561 -0.2334  1.0912
 3758TIP3   OH232688   0.877   2.634   2.888 -0.4372 -0.9453 -0.1537
 3758TIP3    H132689   0.970   2.612   2.879 -0.5523 -1.4658 -0.0826
 3758TIP3    H232690   0.870   2.674   2.974 -0.3060 -1.0436 -0.0965
 3759TIP3   OH232691   0.839   3.044  15.399 -0.4268  0.1558  0.5735
 3759TIP3    H132692   0.805   3.035  15.310  3.6841 -1.6232 -0.9353
 3759TIP3    H232693   0.849   3.138  15.411  1.0654  0.3314 -1.7320
 3760TIP3   OH232694   5.437   2.408  14.535 -0.6882  0.1874 -0.3137
 3760TIP3    H132695   5.345   2.396  14.512 -0.9072 -1.8416  1.4905
 3760TIP3    H232696   5.439   2.489  14.586 -1.1639  1.2212 -1.8981
 3761TIP3   OH232697   2.636   4.819  13.199 -0.1360  0.1091  0.2028
 3761TIP3    H132698   2.641   4.850  13.289 -0.1112  2.1885 -0.4771
 3761TIP3    H232699   2.715   4.856  13.157  0.1684 -1.3333 -0.5142
 3762TIP3   OH232700   5.279   5.956  15.602  0.2528  0.2188 -0.2258
 3762TIP3    H132701   5.263   6.020  15.671 -2.6062  0.1235 -0.7101
 3762TIP3    H232702   5.282   6.007  15.522 -0.4652 -0.0773 -0.4465
 3763TIP3   OH232703   2.573   6.265   3.232  0.2454  0.6279  0.1611
 3763TIP3    H132704   2.617   6.238   3.312 -0.1209 -0.4849  0.0049
 3763TIP3    H232705   2.521   6.188   3.207 -1.5550  1.8093  0.1926
 3764TIP3   OH232706   2.666   0.176  14.154 -0.0168  0.2712  0.1472
 3764TIP3    H132707   2.628   0.201  14.238  1.4752  3.8496 -0.1538
 3764TIP3    H232708   2.705   0.257  14.120  3.0083 -1.9845 -2.0776
 3765TIP3   OH232709   0.528   1.084   1.599  0.0476  0.0849  0.4050
 3765TIP3    H132710   0.553   1.060   1.688 -0.0977 -0.3012  0.3438
 3765TIP3    H232711   0.585   1.032   1.542  1.2483  1.5232  0.2680
 3766TIP3   OH232712   3.637   1.803   4.140 -0.9612  0.3849 -0.2005
 3766TIP3    H132713   3.692   1.840   4.071 -1.6440 -1.3576 -1.7227
 3766TIP3    H232714   3.690   1.811   4.220  1.0139 -0.0995 -1.4088
 3767TIP3   OH232715   4.261   2.922  16.241 -0.5271  0.0846 -0.2817
 3767TIP3    H132716   4.288   3.012  16.257 -1.5967  0.4486 -0.4246
 3767TIP3    H232717   4.335   2.883  16.195  0.5378  0.4562  1.0824
 3768TIP3   OH232718   5.339   3.308   5.198  0.1359 -0.6998  0.0022
 3768TIP3    H132719   5.245   3.320   5.209 -0.1291 -1.6766 -1.1014
 3768TIP3    H232720   5.378   3.350   5.275 -1.1710  0.0660  0.2624
 3769TIP3   OH232721   3.639   5.832  15.008 -0.0036 -0.2289 -0.5409
 3769TIP3    H132722   3.628   5.746  15.048  2.2361  0.0958  0.8975
 3769TIP3    H232723   3.720   5.824  14.957  0.7446  1.2730  0.3820
 3770TIP3   OH232724   5.348   6.350  13.934 -0.4340 -0.0167  0.0803
 3770TIP3    H132725   5.305   6.363  14.018  1.2231  0.2722  0.9188
 3770TIP3    H232726   5.407   6.425  13.925  2.2568 -1.9812  0.5113
 3771TIP3   OH232727   0.644   0.727  13.805  0.4045  0.0236  0.5327
 3771TIP3    H132728   0.707   0.791  13.773  0.8423 -0.4549  0.4336
 3771TIP3    H232729   0.659   0.723  13.899  0.6845 -0.2607  0.4772
 3772TIP3   OH232730   6.162   5.167  11.291 -0.6614 -0.9272 -0.0241
 3772TIP3    H132731   6.245   5.204  11.260 -0.0504 -0.6520  1.8612
 3772TIP3    H232732   6.142   5.097  11.229 -0.1716  0.4644 -1.7860
 3773TIP3   OH232733   3.783   0.848  17.198  0.8580 -0.1357 -0.0557
 3773TIP3    H132734   3.857   0.788  17.193  1.2655  0.3513  0.1378
 3773TIP3    H232735   3.713   0.804  17.150  1.0507 -0.9146  0.3860
 3774TIP3   OH232736   4.664   6.535  15.610 -0.3873  0.4535 -0.0940
 3774TIP3    H132737   4.737   6.483  15.577  0.1972  1.8318 -1.0117
 3774TIP3    H232738   4.587   6.495  15.570 -0.2471 -1.4920  1.4859
 3775TIP3   OH232739   2.658   3.952   1.544  0.0206  0.8464  0.0763
 3775TIP3    H132740   2.575   3.904   1.553  0.0813  0.6566 -0.3948
 3775TIP3    H232741   2.690   3.960   1.634 -0.2087  0.3870  0.2020
 3776TIP3   OH232742   2.278   1.220   5.545 -0.0965 -0.5520  0.1076
 3776TIP3    H132743   2.323   1.300   5.572 -0.0992 -0.9099  1.1853
 3776TIP3    H232744   2.206   1.211   5.608 -1.9978  0.2988 -1.8954
 3777TIP3   OH232745   0.036   4.225   6.289  0.2376 -0.2829  0.2026
 3777TIP3    H132746   0.096   4.258   6.223  0.5961 -0.4500  0.4428
 3777TIP3    H232747   0.087   4.225   6.370 -0.6372  1.3367  0.7839
 3778TIP3   OH232748   3.101   3.933  11.986 -0.1548 -0.1670 -0.2496
 3778TIP3    H132749   3.124   3.847  11.952 -1.1320 -0.4822 -0.1196
 3778TIP3    H232750   3.091   3.988  11.909  0.0773 -0.2718 -0.3528
 3779TIP3   OH232751   5.891   3.885  16.936 -0.5533 -0.0775  0.0532
 3779TIP3    H132752   5.835   3.819  16.897  0.1223  0.4140 -1.7889
 3779TIP3    H232753   5.963   3.836  16.976 -1.5596 -0.6168  1.2336
 3780TIP3   OH232754   4.334   6.465   4.998 -0.1659  0.0737  0.5869
 3780TIP3    H132755   4.269   6.534   4.985 -0.4965 -0.3609 -0.0922
 3780TIP3    H232756   4.413   6.512   5.026 -0.4317  0.7071  0.2967
 3781TIP3   OH232757   2.589   0.194   9.791  0.7598  0.8720  0.0620
 3781TIP3    H132758   2.505   0.238   9.782  0.1077 -0.6091 -1.5779
 3781TIP3    H232759   2.629   0.234   9.867 -0.4542  3.1823 -0.4510
 3782TIP3   OH232760   4.526   6.422  12.244  0.1847 -0.1535  0.3436
 3782TIP3    H132761   4.517   6.447  12.152 -0.7505  0.4540  0.5834
 3782TIP3    H232762   4.610   6.378  12.250  2.4369  3.9267  0.0879
 3783TIP3   OH232763   6.629   0.132   4.870 -0.0127 -0.4949  0.2368
 3783TIP3    H132764   6.656   0.066   4.806  0.0603  1.1394 -1.4160
 3783TIP3    H232765   6.702   0.193   4.874 -0.6454  0.2300  0.7941
 3784TIP3   OH232766   5.674   0.728   3.167 -0.0048 -0.5184 -0.2526
 3784TIP3    H132767   5.615   0.698   3.236  0.6243  0.5475  0.7753
 3784TIP3    H232768   5.750   0.670   3.173  0.0175 -0.4725 -0.0784
 3785TIP3   OH232769   5.837   1.906  16.387 -1.1765 -0.5230 -0.0156
 3785TIP3    H132770   5.812   1.973  16.324 -0.4033 -0.4754 -0.2770
 3785TIP3    H232771   5.821   1.945  16.472 -1.6767 -0.3772 -0.1733
 3786TIP3   OH232772   1.052   0.102   1.539  0.3624 -0.3534 -0.0737
 3786TIP3    H132773   0.971   0.088   1.489  1.0883  0.7215 -1.5931
 3786TIP3    H232774   1.053   0.030   1.603 -2.4732  0.3907  0.9058
 3787TIP3   OH232775   3.291   1.976   4.545  0.1673  0.4192  0.3582
 3787TIP3    H132776   3.335   1.899   4.579  0.0520 -0.7280 -2.0354
 3787TIP3    H232777   3.210   1.981   4.596 -0.4660 -1.8438 -0.3670
 3788TIP3   OH232778   5.130   2.859  12.174  0.4537 -0.6532 -0.2330
 3788TIP3    H132779   5.142   2.950  12.203 -0.1836  0.2967 -2.7839
 3788TIP3    H232780   5.061   2.824  12.230 -0.6932  1.0896 -0.5213
 3789TIP3   OH232781   0.984   3.500   4.408  0.5150 -0.2374  0.3764
 3789TIP3    H132782   0.915   3.445   4.371  0.8733  0.5321 -1.5150
 3789TIP3    H232783   1.065   3.455   4.384  0.7293 -0.4238  1.4122
 3790TIP3   OH232784   5.091   5.687  14.515 -0.3015  0.2862  0.2363
 3790TIP3    H132785   5.031   5.628  14.469  1.2456 -0.9931 -0.1876
 3790TIP3    H232786   5.175   5.642  14.513  0.3434  1.3460  2.2044
 3791TIP3   OH232787   1.569   3.291  16.323 -0.1303  0.4308 -0.0206
 3791TIP3    H132788   1.602   3.327  16.240  0.7315  1.2652  0.6671
 3791TIP3    H232789   1.474   3.292  16.313 -0.0676  1.4995 -0.6099
 3792TIP3   OH232790   1.929   4.961  15.412 -0.2219 -0.3248 -0.0701
 3792TIP3    H132791   1.884   4.984  15.331 -3.9900 -2.4214  1.2983
 3792TIP3    H232792   1.992   4.893  15.387  0.8024  1.1973 -1.6983
 3793TIP3   OH232793   6.124   1.217  12.307  1.4321  0.3544  0.4157
 3793TIP3    H132794   6.141   1.267  12.227 -2.6928 -0.8056 -1.3401
 3793TIP3    H232795   6.165   1.132  12.291 -0.4290 -0.3081 -1.0899
 3794TIP3   OH232796   2.694   5.344  13.922 -0.4403 -0.0824 -0.3713
 3794TIP3    H132797   2.704   5.387  14.007 -1.6547  2.1576 -1.3078
 3794TIP3    H232798   2.600   5.329  13.915 -0.6283  1.6961 -2.1863
 3795TIP3   OH232799   4.023   5.846  11.062  0.0105  0.2285  0.0918
 3795TIP3    H132800   4.098   5.839  11.003  0.7215 -1.7861  1.1890
 3795TIP3    H232801   3.950   5.806  11.014 -0.2092  1.5016 -0.6704
 3796TIP3   OH232802   2.454   4.552   3.039  0.0442  0.6892  0.9297
 3796TIP3    H132803   2.373   4.572   2.992 -0.1294 -0.2214  0.8358
 3796TIP3    H232804   2.523   4.564   2.974 -0.0587  0.9060  0.8577
 3797TIP3   OH232805   3.870   3.867   5.211  0.1807  0.2565 -0.2660
 3797TIP3    H132806   3.829   3.928   5.150 -0.3335  0.0794 -0.1007
 3797TIP3    H232807   3.797   3.817   5.248  0.5264  0.0777  0.1817
 3798TIP3   OH232808   2.778   5.407  16.966  0.2465  0.1900  0.5627
 3798TIP3    H132809   2.719   5.482  16.956  0.4322  0.3380  0.5718
 3798TIP3    H232810   2.797   5.379  16.877  0.2365  0.2027  0.5576
 3799TIP3   OH232811   2.927   4.490  16.676 -0.6597 -0.3871 -0.0307
 3799TIP3    H132812   2.841   4.510  16.639 -1.9492 -2.4004  1.7741
 3799TIP3    H232813   2.986   4.488  16.600 -2.4426 -0.2449 -1.4520
 3800TIP3   OH232814   4.485   1.314  16.473 -0.0576 -0.2310  0.2368
 3800TIP3    H132815   4.494   1.220  16.490  0.3153 -0.3665 -0.7052
 3800TIP3    H232816   4.570   1.340  16.438 -0.4309  0.2983 -0.2754
 3801TIP3   OH232817   0.323   5.205  15.713 -0.3347 -0.6152 -0.1745
 3801TIP3    H132818   0.355   5.199  15.803 -1.2285 -1.8123  0.0844
 3801TIP3    H232819   0.253   5.269  15.716  0.5666  0.3824 -0.3040
 3802TIP3   OH232820   1.997   2.392   4.018  0.3255  0.5387  0.1567
 3802TIP3    H132821   2.087   2.423   4.011  0.1840  1.3869  1.9440
 3802TIP3    H232822   2.006   2.302   4.049  0.5872  0.1514 -1.0029
 3803TIP3   OH232823   2.685   6.464   5.260  0.0655 -0.8434  0.1237
 3803TIP3    H132824   2.679   6.456   5.165  0.8094 -0.2911  0.0306
 3803TIP3    H232825   2.775   6.489   5.277 -0.2236 -0.3177  0.9363
 3804TIP3   OH232826   2.345   5.878  16.353 -0.5976  0.2939 -0.0963
 3804TIP3    H132827   2.316   5.885  16.262 -0.0427  1.0457 -0.2117
 3804TIP3    H232828   2.429   5.922  16.356 -1.0071  1.0302  0.9732
 3805TIP3   OH232829   2.902   3.073  14.683 -0.5153  0.2576 -0.1754
 3805TIP3    H132830   2.912   3.168  14.679  0.3043  0.1518 -0.7119
 3805TIP3    H232831   2.929   3.049  14.772  1.4303  0.2827 -0.7365
 3806TIP3   OH232832   2.517   6.196  15.635 -0.1531  0.2330 -0.4093
 3806TIP3    H132833   2.471   6.237  15.562  0.8461  0.4125 -0.9494
 3806TIP3    H232834   2.597   6.249  15.645 -0.0671 -0.0662  0.5149
 3807TIP3   OH232835   2.636   1.098   4.827  0.1305 -0.7129 -0.3060
 3807TIP3    H132836   2.691   1.021   4.820  0.0902 -0.6814 -1.0377
 3807TIP3    H232837   2.592   1.090   4.912  1.4544 -0.6017  0.4001
 3808TIP3   OH232838   2.579   0.045  15.088 -0.1407 -0.8088 -0.2467
 3808TIP3    H132839   2.521   0.017  15.159 -1.7082 -1.2947 -1.7025
 3808TIP3    H232840   2.552  -0.006  15.012  2.1702 -1.0185 -0.9919
 3809TIP3   OH232841   5.363   1.268   3.020  0.1028 -0.4755 -0.5445
 3809TIP3    H132842   5.320   1.347   3.053 -0.6411 -1.9303  2.1061
 3809TIP3    H232843   5.435   1.252   3.082 -0.7058 -2.7002 -0.1066
 3810TIP3   OH232844   5.308   4.909  15.896 -0.4606 -0.4008 -0.2487
 3810TIP3    H132845   5.317   4.868  15.982 -1.4078  1.1241  0.6008
 3810TIP3    H232846   5.253   4.986  15.912  0.5817  0.7370 -1.9419
 3811TIP3   OH232847   0.470   0.845  15.746  0.1119 -0.1258 -0.5412
 3811TIP3    H132848   0.412   0.769  15.755 -1.3814  0.9433 -0.9361
 3811TIP3    H232849   0.451   0.879  15.658  2.0130 -0.2788 -1.0566
 3812TIP3   OH232850   6.464   3.702   2.741 -0.8702 -0.2949  0.2005
 3812TIP3    H132851   6.399   3.631   2.740 -1.3657  0.1729 -1.8718
 3812TIP3    H232852   6.520   3.684   2.666  0.3364  0.3157  0.9364
 3813TIP3   OH232853   5.574   5.877   2.644 -0.4338 -0.2754 -0.2854
 3813TIP3    H132854   5.539   5.960   2.613  0.3924 -0.0552 -0.6470
 3813TIP3    H232855   5.655   5.864   2.594  0.7844 -0.0287  1.5631
 3814TIP3   OH232856   0.833   3.656   5.137 -0.5006 -0.5815  0.5436
 3814TIP3    H132857   0.746   3.658   5.177 -0.3783 -1.5226  0.8738
 3814TIP3    H232858   0.822   3.604   5.057 -0.4954  0.3108 -0.0372
 3815TIP3   OH232859   2.422   0.405  14.350 -0.4631  0.3147 -0.4033
 3815TIP3    H132860   2.457   0.396  14.261  1.6074  1.1159  0.2902
 3815TIP3    H232861   2.361   0.332  14.359 -1.3170  0.7095 -2.7605
 3816TIP3   OH232862   1.443   3.148   2.525 -0.0042 -0.2813  0.6307
 3816TIP3    H132863   1.482   3.086   2.463 -0.6259  0.3579 -0.4237
 3816TIP3    H232864   1.410   3.093   2.596  1.7521 -0.9242  0.9605
 3817TIP3   OH232865   4.589   4.309  14.576 -0.3242 -0.2079  0.3430
 3817TIP3    H132866   4.579   4.266  14.661 -0.0948  0.1579  0.5577
 3817TIP3    H232867   4.612   4.238  14.516  2.5436 -0.0518  1.1670
 3818TIP3   OH232868   3.068   3.647  11.572 -0.6656  0.7366 -0.3227
 3818TIP3    H132869   3.072   3.609  11.485 -0.0979 -2.3096  0.9580
 3818TIP3    H232870   3.008   3.722  11.563 -0.2353  0.7709 -3.3785
 3819TIP3   OH232871   0.881   1.668  12.396 -0.3855  0.6717 -0.3626
 3819TIP3    H132872   0.965   1.622  12.391 -0.0871  1.1036  0.5510
 3819TIP3    H232873   0.816   1.600  12.381  0.0836  0.0741  0.2331
 3820TIP3   OH232874   3.558   4.515  16.612 -0.0250  0.2566  0.3917
 3820TIP3    H132875   3.471   4.488  16.640  0.1914 -1.0673 -0.1860
 3820TIP3    H232876   3.554   4.516  16.516  0.3904  0.8568  0.3804
 3821TIP3   OH232877   1.018   3.919  16.418  1.1712 -0.7498  0.0121
 3821TIP3    H132878   0.990   4.006  16.445  0.4766 -1.2059  0.7722
 3821TIP3    H232879   0.953   3.890  16.355  0.7151 -1.2193  0.6907
 3822TIP3   OH232880   3.515   4.179  16.586 -0.2486 -0.5184  0.2311
 3822TIP3    H132881   3.533   4.175  16.492  0.8387 -0.7838  0.4436
 3822TIP3    H232882   3.424   4.151  16.594 -0.3604 -0.4522 -0.7487
 3823TIP3   OH232883   6.624   6.742  16.413  0.3315  0.2395  0.1084
 3823TIP3    H132884   6.584   6.702  16.337  0.2186  1.0114 -0.2469
 3823TIP3    H232885   6.584   6.829  16.418  1.9192  1.0061 -0.2178
 3824TIP3   OH232886   3.990   5.898  15.868 -0.7271 -0.3806 -0.3818
 3824TIP3    H132887   4.016   5.904  15.960 -0.9577 -0.6390 -0.3007
 3824TIP3    H232888   3.903   5.859  15.870 -0.9430  0.0750 -0.6812
 3825TIP3   OH232889   1.321   1.282   1.218 -0.2085 -0.3011 -0.0530
 3825TIP3    H132890   1.404   1.292   1.264 -1.5310  0.5363  2.2227
 3825TIP3    H232891   1.344   1.293   1.126  2.0741  0.7972  0.5958
 3826TIP3   OH232892   4.849   1.374  13.494  0.2682 -0.6963  0.1728
 3826TIP3    H132893   4.818   1.430  13.423  0.7657 -0.6307  0.0053
 3826TIP3    H232894   4.851   1.286  13.456  1.0153 -0.5840 -0.0456
 3827TIP3   OH232895   5.492   5.528   6.471 -0.2984  0.0937  0.7642
 3827TIP3    H132896   5.557   5.591   6.503 -0.3944  0.4286  0.3132
 3827TIP3    H232897   5.464   5.564   6.386 -1.1968  0.0441  1.0310
 3828TIP3   OH232898   1.483   3.192   3.236 -0.1887  0.4464  0.0917
 3828TIP3    H132899   1.398   3.234   3.243 -0.2008  0.5050 -0.3479
 3828TIP3    H232900   1.463   3.100   3.218 -0.1620  0.2600  1.0140
 3829TIP3   OH232901   3.651   4.523  15.571 -0.8871 -0.1583  0.3176
 3829TIP3    H132902   3.568   4.485  15.600  0.0427 -2.4003  0.1523
 3829TIP3    H232903   3.713   4.503  15.641 -0.6661  2.3730  0.8949
 3830TIP3   OH232904   5.409   5.817  14.502  0.3409  0.2634  0.0473
 3830TIP3    H132905   5.475   5.802  14.434 -0.6163 -0.0264 -0.8393
 3830TIP3    H232906   5.358   5.736  14.504 -0.1825  0.6029  0.4961
 3831TIP3   OH232907   2.376   3.111   2.809  0.1396  0.2517  0.3276
 3831TIP3    H132908   2.424   3.065   2.740 -0.9984 -2.5827  1.3509
 3831TIP3    H232909   2.437   3.179   2.839  2.2738 -1.1885 -0.6176
 3832TIP3   OH232910   1.633   2.999   4.241  0.1428  0.6019 -0.0910
 3832TIP3    H132911   1.701   2.935   4.220  0.7603  0.7963  1.3049
 3832TIP3    H232912   1.554   2.947   4.257  0.0091  0.3627 -1.4211
 3833TIP3   OH232913   5.103   6.334  10.654 -0.3346 -0.0846  0.6660
 3833TIP3    H132914   5.180   6.389  10.643 -0.8964  0.5252 -0.3953
 3833TIP3    H232915   5.134   6.245  10.637 -0.0821  0.2793 -0.9005
 3834TIP3   OH232916   5.385   6.072  13.865  0.4300  0.0776  0.8872
 3834TIP3    H132917   5.338   6.022  13.931 -3.9899  2.2718 -0.4156
 3834TIP3    H232918   5.361   6.163  13.883  0.2873  0.8284 -2.8249
 3835TIP3   OH232919   1.513   1.990   1.466 -0.5841  0.2058  0.1290
 3835TIP3    H132920   1.531   2.083   1.447  1.7570  0.0692  1.4975
 3835TIP3    H232921   1.418   1.986   1.477 -0.8379  2.2372 -0.9976
 3836TIP3   OH232922   4.168   5.822   1.122  0.6541 -0.2273  0.4242
 3836TIP3    H132923   4.171   5.917   1.120  0.6305 -0.2031  1.2153
 3836TIP3    H232924   4.166   5.795   1.030  2.0869  0.4949  0.1588
 3837TIP3   OH232925   5.475   5.803  14.777 -0.5869 -0.1645  0.3894
 3837TIP3    H132926   5.439   5.857  14.706  1.1627  1.5932  0.8190
 3837TIP3    H232927   5.399   5.785  14.833 -1.2070  1.9917  0.3139
 3838TIP3   OH232928   0.445   2.236  13.892 -0.2648  0.6685 -0.0744
 3838TIP3    H132929   0.445   2.151  13.848  1.8736  0.4322  0.2976
 3838TIP3    H232930   0.456   2.300  13.822  1.0608  0.4221 -0.1150
 3839TIP3   OH232931   5.662   1.434  14.781 -0.0010 -0.0006 -0.0378
 3839TIP3    H132932   5.573   1.458  14.756 -0.2763  0.8272  1.6166
 3839TIP3    H232933   5.650   1.362  14.844  0.6581 -2.0423 -2.1810
 3840TIP3   OH232934   5.348   3.747   5.216  0.8389 -0.0918 -0.0848
 3840TIP3    H132935   5.344   3.842   5.221  0.3150 -0.1335  0.3291
 3840TIP3    H232936   5.265   3.717   5.253  0.8053 -0.6961 -0.6301
 3841TIP3   OH232937   0.406   6.776   2.183 -0.0254 -0.6906  0.7161
 3841TIP3    H132938   0.419   6.844   2.249  0.4958  0.1818 -0.2661
 3841TIP3    H232939   0.312   6.760   2.183 -0.6719  2.6805 -1.5917
 3842TIP3   OH232940   3.024   3.724   0.095 -0.1480  0.5681  0.0970
 3842TIP3    H132941   2.954   3.747   0.034  0.5082  2.0179 -0.1076
 3842TIP3    H232942   2.987   3.653   0.148 -1.7833  1.3248 -0.0121
 3843TIP3   OH232943   5.015   2.433   3.238  0.0587 -0.0155 -0.2170
 3843TIP3    H132944   4.949   2.376   3.279 -1.0876  0.2673 -1.6171
 3843TIP3    H232945   5.054   2.481   3.311  0.6644 -2.1726  0.9502
 3844TIP3   OH232946   4.317   1.963  11.528 -0.4742  0.8422 -0.1195
 3844TIP3    H132947   4.234   1.945  11.485 -1.2753  1.1401  1.2714
 3844TIP3    H232948   4.332   1.886  11.584  0.5634  0.4474 -0.9103
 3845TIP3   OH232949   0.238   3.325  15.021  0.0235 -0.1004 -0.5606
 3845TIP3    H132950   0.240   3.381  15.099  0.5354  0.7362 -1.1595
 3845TIP3    H232951   0.169   3.261  15.038  1.0261 -0.7378  1.1370
 3846TIP3   OH232952   6.545   1.806  13.861  0.4576 -0.2803  0.0171
 3846TIP3    H132953   6.541   1.756  13.779 -0.0354  0.1662 -0.2360
 3846TIP3    H232954   6.632   1.788  13.896  1.0202  0.2275 -1.0671
 3847TIP3   OH232955   6.586   3.465   0.974 -0.7577  0.0004 -0.2971
 3847TIP3    H132956   6.543   3.481   0.890 -1.4414 -0.3815 -0.0232
 3847TIP3    H232957   6.570   3.545   1.025  0.2648  0.5192 -0.7790
 3848TIP3   OH232958   1.894   2.208  13.207 -0.2508  0.0199  0.0973
 3848TIP3    H132959   1.816   2.153  13.216 -0.1683 -0.1040  0.0627
 3848TIP3    H232960   1.861   2.295  13.188 -0.4889  0.5587  2.8079
 3849TIP3   OH232961   5.578   2.628   1.387  0.4555 -0.7173  0.5679
 3849TIP3    H132962   5.530   2.697   1.341  1.9581 -0.5081 -0.7122
 3849TIP3    H232963   5.621   2.672   1.460  1.4700 -0.2693 -0.2892
 3850TIP3   OH232964   6.629   1.364  13.544 -0.7160  0.1324  0.5385
 3850TIP3    H132965   6.552   1.328  13.588 -0.5269 -0.2567  0.5489
 3850TIP3    H232966   6.700   1.304  13.567 -0.7650 -0.4798 -0.8787
 3851TIP3   OH232967   3.855   0.688  12.270  0.0082 -0.3841 -0.4804
 3851TIP3    H132968   3.838   0.775  12.236 -1.5635 -1.2348 -1.9646
 3851TIP3    H232969   3.870   0.700  12.363 -2.7959  1.1785 -0.1909
 3852TIP3   OH232970   0.614   3.762  15.044 -0.0228 -0.3099  0.4733
 3852TIP3    H132971   0.593   3.747  14.952 -0.4005 -1.3331  0.7180
 3852TIP3    H232972   0.709   3.769  15.046  0.0082 -0.5862  0.0534
 3853TIP3   OH232973   6.074   4.436   2.009 -0.6268  0.3931 -0.1166
 3853TIP3    H132974   5.998   4.389   1.974 -0.9074  1.0384 -0.3686
 3853TIP3    H232975   6.144   4.420   1.945 -1.2193  1.8180 -1.1429
 3854TIP3   OH232976   1.449   1.506  13.339 -0.3582 -0.4032  0.1829
 3854TIP3    H132977   1.492   1.576  13.290  1.0271 -1.5437 -0.2630
 3854TIP3    H232978   1.474   1.521  13.430  1.4783 -1.3828 -0.1419
 3855TIP3   OH232979   2.993   5.472   6.019  0.0709 -0.4404 -0.0328
 3855TIP3    H132980   3.025   5.488   6.108  2.3628  0.2410 -0.9279
 3855TIP3    H232981   2.974   5.559   5.984  0.6751 -0.5737 -0.7146
 3856TIP3   OH232982   1.886   2.535  12.290 -0.5565 -0.5912  0.6244
 3856TIP3    H132983   1.921   2.500  12.372  0.8932  0.9430  0.6894
 3856TIP3    H232984   1.959   2.526  12.228  0.0980  2.8771  0.8232
 3857TIP3   OH232985   2.353   2.631   0.605  0.0167  0.2426  0.5758
 3857TIP3    H132986   2.263   2.627   0.637 -0.7317  0.7287 -1.3871
 3857TIP3    H232987   2.370   2.725   0.594  0.7345  0.1466  0.9031
 3858TIP3   OH232988   1.882   2.433   3.174  0.2890  0.1592  0.0689
 3858TIP3    H132989   1.911   2.507   3.228 -2.0531  0.8167  0.4885
 3858TIP3    H232990   1.830   2.473   3.104  1.6936 -0.8489 -1.6001
 3859TIP3   OH232991   6.539   5.592   5.257  0.6039  0.2928 -0.1233
 3859TIP3    H132992   6.475   5.595   5.186  2.1993 -0.1102 -1.6105
 3859TIP3    H232993   6.568   5.501   5.258  1.7661  0.6663  0.0022
 3860TIP3   OH232994   0.972   0.875  14.957 -0.7507  0.7297 -0.5890
 3860TIP3    H132995   0.884   0.859  14.922  0.1713 -0.3459 -2.5372
 3860TIP3    H232996   1.013   0.932  14.892  0.4525  0.0675 -0.4282
 3861TIP3   OH232997   5.984   4.904  15.201 -0.0149  0.0025  0.4429
 3861TIP3    H132998   5.994   4.812  15.176 -0.6730 -0.0460  0.3318
 3861TIP3    H232999   6.044   4.951  15.143 -1.0671 -0.1733 -0.8349
 3862TIP3   OH233000   0.355   1.586  11.953 -0.0167  0.2979  0.4921
 3862TIP3    H133001   0.371   1.573  11.860 -0.9424 -4.2103  0.8011
 3862TIP3    H233002   0.260   1.585  11.961  0.0414  1.5289  1.3885
 3863TIP3   OH233003   0.874   2.390   2.532  0.5154  0.4850 -0.0037
 3863TIP3    H133004   0.793   2.440   2.540  0.6110  0.6848 -0.2969
 3863TIP3    H233005   0.854   2.322   2.467  0.4469  0.2627  0.2484
 3864TIP3   OH233006   0.314   2.508  16.511  0.0232  0.1297 -0.0454
 3864TIP3    H133007   0.335   2.505  16.418  0.3219  1.2209 -0.0130
 3864TIP3    H233008   0.343   2.423  16.545  0.7350  0.0788 -0.7710
 3865TIP3   OH233009   5.026   0.755  16.720 -0.2699 -0.5871 -0.6469
 3865TIP3    H133010   5.074   0.738  16.639 -1.1451 -2.7500 -0.7625
 3865TIP3    H233011   4.961   0.821  16.695  0.4177 -0.1577 -1.3375
 3866TIP3   OH233012   3.474   5.641  11.732 -0.8191  0.2473  0.1894
 3866TIP3    H133013   3.512   5.728  11.717 -0.6146 -0.0253 -0.9454
 3866TIP3    H233014   3.432   5.619  11.649  0.9452 -1.6427 -0.2368
 3867TIP3   OH233015   4.893   2.567   5.897 -0.2809 -0.6169  0.5451
 3867TIP3    H133016   4.849   2.485   5.919 -1.3275  0.2801  1.9103
 3867TIP3    H233017   4.944   2.589   5.975  0.5831 -0.3553 -0.0906
 3868TIP3   OH233018   2.310   0.015   5.402  0.4917  0.1877 -0.0048
 3868TIP3    H133019   2.275  -0.027   5.481 -0.7446 -0.1685 -0.7244
 3868TIP3    H233020   2.377  -0.045   5.370 -1.5889 -1.5104 -1.2875
 3869TIP3   OH233021   3.389   1.376  16.608  0.2874  0.1434 -0.0547
 3869TIP3    H133022   3.466   1.321  16.619  1.4351  2.2567  3.0805
 3869TIP3    H233023   3.419   1.451  16.557  0.0612  0.4348  0.2311
 3870TIP3   OH233024   1.258   2.777  14.685  0.1084 -0.0102  0.2991
 3870TIP3    H133025   1.182   2.790  14.742 -0.2638 -2.3468  0.3910
 3870TIP3    H233026   1.227   2.716  14.618  1.1388  1.1247 -1.2294
 3871TIP3   OH233027   3.153   2.450  11.456 -0.1598 -0.0202 -0.0184
 3871TIP3    H133028   3.111   2.468  11.371 -2.2447 -0.2397  0.9201
 3871TIP3    H233029   3.167   2.355  11.456 -0.3187 -0.0453 -0.0772
 3872TIP3   OH233030   5.256   3.562  11.967  0.1063  0.0771  0.1384
 3872TIP3    H133031   5.164   3.579  11.948  0.1466 -0.0785 -0.1887
 3872TIP3    H233032   5.260   3.468  11.986  0.0105  0.2816  1.2083
 3873TIP3   OH233033   3.222   2.851  12.524 -0.1912  0.2044 -0.2603
 3873TIP3    H133034   3.217   2.872  12.431  0.5256  1.7699  0.0535
 3873TIP3    H233035   3.133   2.826  12.547 -0.5227  0.4804 -1.2038
 3874TIP3   OH233036   6.128   0.898  12.442  1.0028  0.3727 -0.1072
 3874TIP3    H133037   6.219   0.918  12.422  1.6970 -0.7130  1.8076
 3874TIP3    H233038   6.118   0.924  12.534  0.0380 -1.7012  0.3845
 3875TIP3   OH233039   5.364   1.416  15.084  0.1615  0.6305  0.2846
 3875TIP3    H133040   5.345   1.510  15.090 -1.2385  0.2844  1.6460
 3875TIP3    H233041   5.341   1.393  14.993 -1.6590  1.1672  0.5773
 3876TIP3   OH233042   3.644   3.275   4.135  0.4434  0.3405 -0.1319
 3876TIP3    H133043   3.619   3.206   4.073  1.0367 -0.4239  0.4781
 3876TIP3    H233044   3.699   3.334   4.083 -0.3094  0.5321 -0.7344
 3877TIP3   OH233045   4.412   4.256  14.835 -0.0345 -0.4043 -0.2458
 3877TIP3    H133046   4.420   4.182  14.775  0.4319  0.0390 -0.7322
 3877TIP3    H233047   4.448   4.225  14.918 -4.1737 -2.3381  0.9867
 3878TIP3   OH233048   1.585   5.527  14.933 -0.1837 -0.7366 -0.6577
 3878TIP3    H133049   1.628   5.559  14.854  0.4537 -1.2337 -0.5200
 3878TIP3    H233050   1.517   5.591  14.952  0.0125 -0.3374 -1.3068
 3879TIP3   OH233051   1.488   0.285  11.600 -0.3646  0.1867 -0.3483
 3879TIP3    H133052   1.521   0.312  11.685 -0.4423  0.2078 -0.3246
 3879TIP3    H233053   1.564   0.289  11.542 -0.4834  0.9412 -0.4529
 3880TIP3   OH233054   0.826   6.138  11.863  0.1196 -0.4342  0.1614
 3880TIP3    H133055   0.852   6.194  11.790 -0.6312 -1.1095 -0.6384
 3880TIP3    H233056   0.758   6.187  11.908 -2.3901 -1.7542 -2.0638
 3881TIP3   OH233057   0.000   1.574   4.171  0.1501  0.0307  0.6882
 3881TIP3    H133058  -0.036   1.599   4.086  1.7500 -0.3650 -0.1224
 3881TIP3    H233059  -0.077   1.562   4.227 -1.0698 -2.0602 -1.3421
 3882TIP3   OH233060   2.755   2.695  16.269  0.2851 -0.3670  0.3464
 3882TIP3    H133061   2.750   2.714  16.175  1.8168  0.4024  0.4021
 3882TIP3    H233062   2.708   2.767  16.310  0.5210 -0.1325  0.2138
 3883TIP3   OH233063   6.608   1.093  16.420  0.0137 -0.1559 -0.0161
 3883TIP3    H133064   6.626   1.184  16.446  0.0067  0.3369 -1.7016
 3883TIP3    H233065   6.528   1.098  16.368  0.6814 -0.9746 -1.1264
 3884TIP3   OH233066   2.599   6.250  14.899 -0.1590  0.8090  0.3750
 3884TIP3    H133067   2.666   6.299  14.945  0.5667  1.3941 -1.2783
 3884TIP3    H233068   2.613   6.270  14.807 -0.3020 -1.9275 -0.2797
 3885TIP3   OH233069   0.392   0.230  15.944  0.3279  0.5293  0.1873
 3885TIP3    H133070   0.451   0.302  15.969 -1.6915  2.3678 -0.1641
 3885TIP3    H233071   0.346   0.263  15.867 -0.3245 -1.3349 -0.2330
 3886TIP3   OH233072   6.418   5.003   3.335  0.0566 -0.0651  0.2566
 3886TIP3    H133073   6.421   5.066   3.407 -0.7085 -0.1934  0.4089
 3886TIP3    H233074   6.347   5.034   3.279  0.3206 -0.2472 -0.1786
 3887TIP3   OH233075   2.752   5.843  10.778  0.1793  0.2772 -0.2737
 3887TIP3    H133076   2.840   5.881  10.778  0.5828 -0.6589  0.0287
 3887TIP3    H233077   2.728   5.839  10.871  0.4164 -0.8556 -0.2608
 3888TIP3   OH233078   3.110   5.161  17.238 -0.2033  0.0389 -0.5894
 3888TIP3    H133079   3.017   5.166  17.215  0.0273  0.8188 -1.3596
 3888TIP3    H233080   3.144   5.248  17.221  0.6735 -0.2354 -0.2778
 3889TIP3   OH233081   0.003   2.346   0.545  0.2675  0.3803  0.1377
 3889TIP3    H133082  -0.064   2.293   0.589  1.1251 -0.7233  0.1564
 3889TIP3    H233083   0.060   2.377   0.616 -0.6327  1.9143  0.1939
 3890TIP3   OH233084   1.438   2.621  14.904  0.1480 -0.9707  0.4416
 3890TIP3    H133085   1.392   2.635  14.821  0.1902  1.8579  0.8437
 3890TIP3    H233086   1.381   2.662  14.970  1.7825 -0.0546  1.3199
 3891TIP3   OH233087   3.688   0.345   3.617 -0.3073 -0.5834 -0.2835
 3891TIP3    H133088   3.600   0.336   3.580  0.6025 -1.1826 -2.3893
 3891TIP3    H233089   3.715   0.433   3.593  1.6180 -2.1159 -4.2066
 3892TIP3   OH233090   0.444   4.093  12.287  0.1850 -0.2946  0.2428
 3892TIP3    H133091   0.489   4.085  12.371  1.9794 -2.4827 -0.8990
 3892TIP3    H233092   0.434   4.004  12.256 -0.2894  0.4976 -1.9670
 3893TIP3   OH233093   4.188   2.101  14.214 -0.3424 -0.1103 -0.0305
 3893TIP3    H133094   4.162   2.192  14.227 -1.4001 -0.3056 -0.6818
 3893TIP3    H233095   4.111   2.050  14.239  1.4203 -1.0419  3.8565
 3894TIP3   OH233096   2.731   1.089   3.997  0.0921 -0.3134 -0.5342
 3894TIP3    H133097   2.744   1.029   4.070  0.2017 -0.0222 -0.3124
 3894TIP3    H233098   2.689   1.166   4.036 -0.5972 -0.4915 -0.9225
 3895TIP3   OH233099   2.690   0.451   0.083  0.2036  0.1249 -0.2153
 3895TIP3    H133100   2.661   0.500   0.159  1.5113  0.3529  0.1547
 3895TIP3    H233101   2.612   0.441   0.029 -0.9671 -0.8556  1.5948
 3896TIP3   OH233102   2.162   5.602  14.026  0.0656 -0.0017  0.9390
 3896TIP3    H133103   2.213   5.558  14.094 -0.4020  0.4634  1.6013
 3896TIP3    H233104   2.077   5.560  14.028  0.3335 -0.5903  0.0203
 3897TIP3   OH233105   3.543   6.101   5.776 -0.3136  0.0399  0.0062
 3897TIP3    H133106   3.456   6.116   5.813  0.4933 -0.8829  2.3362
 3897TIP3    H233107   3.538   6.014   5.737  0.2274 -1.0516  2.2782
 3898TIP3   OH233108   1.011   3.579  12.706  0.0597 -0.1954  0.0041
 3898TIP3    H133109   1.084   3.587  12.645  0.3847 -0.5240  0.3527
 3898TIP3    H233110   1.026   3.496  12.752 -0.1247  0.1050  0.6109
 3899TIP3   OH233111   1.063   6.647   2.595  0.2381  0.5912  0.2573
 3899TIP3    H133112   1.023   6.708   2.657  2.0391  1.8649  0.2084
 3899TIP3    H233113   1.153   6.678   2.586  0.3601 -0.3351 -2.0247
 3900TIP3   OH233114   3.965   6.124  13.968 -0.0951  0.6898 -0.0532
 3900TIP3    H133115   3.872   6.133  13.988 -0.9611  0.2787 -3.5138
 3900TIP3    H233116   3.999   6.064  14.035 -2.5155  0.1366  0.7125
 3901TIP3   OH233117   5.648   0.839   0.470 -0.5548 -0.6467  0.0033
 3901TIP3    H133118   5.704   0.855   0.394  0.4580 -1.0560  0.6660
 3901TIP3    H233119   5.681   0.758   0.508 -1.1922 -0.5513  0.7765
 3902TIP3   OH233120   2.573   1.575  13.411  1.1724  0.3702 -0.3957
 3902TIP3    H133121   2.625   1.651  13.382 -0.2824  1.2047 -0.8506
 3902TIP3    H233122   2.599   1.505  13.351  1.2571  0.9737 -1.0846
 3903TIP3   OH233123   0.000   6.442   2.126 -0.3173  0.5874 -0.4077
 3903TIP3    H133124   0.009   6.410   2.216 -0.0995 -1.1221 -1.0220
 3903TIP3    H233125   0.044   6.527   2.127  2.3389 -0.7220  0.4073
 3904TIP3   OH233126   3.143   6.293  11.875  0.1707  0.4145  0.1611
 3904TIP3    H133127   3.235   6.273  11.892  0.1079 -0.0491 -0.0304
 3904TIP3    H233128   3.134   6.286  11.780 -0.1496  0.0734  0.2179
 3905TIP3   OH233129   5.331   1.264   3.473 -0.8692  0.4807  0.1305
 3905TIP3    H133130   5.283   1.347   3.480 -1.4002  0.3266 -1.5538
 3905TIP3    H233131   5.280   1.212   3.411 -0.5011 -1.0898  1.1292
 3906TIP3   OH233132   6.044   5.222   1.264  0.0895  0.4964  0.2761
 3906TIP3    H133133   6.074   5.152   1.321 -1.4014  0.4410  1.0192
 3906TIP3    H233134   5.998   5.178   1.193  1.6089  0.5875 -0.8047
 3907TIP3   OH233135   3.594   6.611  15.885  0.5972 -0.4750 -0.0675
 3907TIP3    H133136   3.618   6.631  15.975 -1.0688  0.7689  0.1267
 3907TIP3    H233137   3.590   6.515  15.881  0.4658 -0.5200  1.2229
 3908TIP3   OH233138   2.553   2.066   1.822 -0.3283  0.0320 -0.9464
 3908TIP3    H133139   2.568   1.973   1.811 -0.3293 -0.0332 -0.4117
 3908TIP3    H233140   2.464   2.072   1.857  0.2136  0.1476  0.4361
 3909TIP3   OH233141   5.474   4.290  11.917  0.2156 -1.2519  0.1626
 3909TIP3    H133142   5.468   4.241  11.835 -0.1803  2.1187 -1.9401
 3909TIP3    H233143   5.383   4.314  11.936  0.4540 -0.9469  0.9022
 3910TIP3   OH233144   4.738   5.280   5.237  0.3933  0.2108 -0.2477
 3910TIP3    H133145   4.649   5.312   5.251  0.6545  1.6257 -1.6356
 3910TIP3    H233146   4.727   5.195   5.195 -0.3119  0.0608  0.2511
 3911TIP3   OH233147   3.532   2.987   1.360  0.2503  0.8165  0.4461
 3911TIP3    H133148   3.566   3.072   1.335 -1.5888  1.1572 -0.9328
 3911TIP3    H233149   3.540   2.933   1.282  0.6764 -0.0605  1.0811
 3912TIP3   OH233150   5.420   5.047   1.403  0.6061  0.0114 -0.5384
 3912TIP3    H133151   5.372   5.087   1.330  0.7220  0.8488 -0.1527
 3912TIP3    H233152   5.411   4.953   1.388  1.6016  0.1743 -2.2668
 3913TIP3   OH233153   3.003   6.714  13.488 -0.1667  0.0164  0.5640
 3913TIP3    H133154   2.953   6.769  13.549  2.8057  2.4318  0.9499
 3913TIP3    H233155   3.005   6.628  13.529 -3.8583 -0.1575  0.5749
 3914TIP3   OH233156   2.203   0.965  12.351  0.3882  0.3542 -0.1099
 3914TIP3    H133157   2.258   0.925  12.419  0.1276 -0.0753 -0.1433
 3914TIP3    H233158   2.262   1.022  12.302  0.6876  0.2888  0.1715
 3915TIP3   OH233159   2.110   4.388   0.407 -0.1422 -0.7548  0.4887
 3915TIP3    H133160   2.127   4.314   0.466  1.6597 -1.2095 -0.5795
 3915TIP3    H233161   2.160   4.368   0.328 -0.5513  1.0658 -0.2513
 3916TIP3   OH233162   1.820   5.264  16.504 -0.4449 -0.1869  0.0545
 3916TIP3    H133163   1.845   5.176  16.476  1.1493 -0.2225  1.4882
 3916TIP3    H233164   1.798   5.310  16.423  0.3838 -1.4081 -0.8746
 3917TIP3   OH233165   3.626   2.990   4.777  0.4997  0.1789 -0.2515
 3917TIP3    H133166   3.623   3.083   4.754  1.9451 -0.0316 -1.3288
 3917TIP3    H233167   3.711   2.979   4.818 -0.4267 -0.3012  1.5910
 3918TIP3   OH233168   5.754   3.815   1.301 -0.5270 -0.0497  0.3872
 3918TIP3    H133169   5.702   3.888   1.266 -0.5195 -1.0398 -1.7724
 3918TIP3    H233170   5.704   3.783   1.375 -1.0594  1.4763  0.7173
 3919TIP3   OH233171   4.192   1.261  12.984 -0.3990 -0.0723 -0.3644
 3919TIP3    H133172   4.231   1.298  13.063 -2.9150  1.6067  0.1640
 3919TIP3    H233173   4.246   1.295  12.913  0.2682  0.6074  0.4529
 3920TIP3   OH233174   2.520   1.651   7.076 -0.0380 -0.3378  0.1806
 3920TIP3    H133175   2.506   1.560   7.100  1.4250 -0.5163  0.4395
 3920TIP3    H233176   2.530   1.697   7.159  1.1981 -0.2942  0.0236
 3921TIP3   OH233177   4.035   5.277   4.968  0.6097  0.3453  0.2544
 3921TIP3    H133178   3.945   5.250   4.989  0.4297 -0.0428 -0.9712
 3921TIP3    H233179   4.025   5.360   4.922  0.9584  0.8823  1.1406
 3922TIP3   OH233180   2.398   3.837   3.344  0.4223  0.0209 -0.6970
 3922TIP3    H133181   2.381   3.861   3.436  0.5942  0.9537 -0.9077
 3922TIP3    H233182   2.399   3.742   3.345  1.2282  0.0274  0.4245
 3923TIP3   OH233183   4.621   0.479   0.314 -0.9616  0.3961  0.6308
 3923TIP3    H133184   4.600   0.488   0.407  0.5004  0.5229  0.9666
 3923TIP3    H233185   4.694   0.539   0.300 -2.0031  1.3211 -0.9059
 3924TIP3   OH233186   1.805   2.237  13.699  0.2353 -0.1694  0.2495
 3924TIP3    H133187   1.780   2.164  13.643 -0.5882  1.1681 -1.1517
 3924TIP3    H233188   1.741   2.306  13.681  1.1168  0.9906  1.3891
 3925TIP3   OH233189   2.678   5.805  15.024  0.0201 -0.1008  0.3947
 3925TIP3    H133190   2.632   5.809  14.940  0.3006 -1.8102  0.1472
 3925TIP3    H233191   2.728   5.724  15.020  2.6454  1.4620  0.8857
 3926TIP3   OH233192   1.065   5.202   1.803 -0.2234 -0.8703 -0.0120
 3926TIP3    H133193   1.071   5.297   1.794 -0.6299 -0.4717  3.1311
 3926TIP3    H233194   1.154   5.174   1.822  0.1120 -1.2881 -2.1674
 3927TIP3   OH233195   3.003   1.474  13.423 -0.1311 -0.3140  0.0526
 3927TIP3    H133196   3.059   1.397  13.424  0.4156  0.0414 -1.6120
 3927TIP3    H233197   2.925   1.448  13.472 -1.3436 -3.0103 -3.1061
 3928TIP3   OH233198   1.801   0.194  16.255  0.2353 -0.0881  0.0107
 3928TIP3    H133199   1.775   0.270  16.202  1.8776  0.9124  0.6005
 3928TIP3    H233200   1.718   0.158  16.286 -0.5561  2.0785  0.5475
 3929TIP3   OH233201   5.225   3.384  14.918 -0.1867 -0.3070 -0.3063
 3929TIP3    H133202   5.303   3.391  14.862  2.4896 -1.9203  3.0452
 3929TIP3    H233203   5.188   3.473  14.918  0.7007  0.1252 -3.1860
 3930TIP3   OH233204   0.433   2.052   3.743  0.7036 -0.0346  0.1487
 3930TIP3    H133205   0.396   2.043   3.831  2.9556 -1.7166  0.9505
 3930TIP3    H233206   0.512   2.104   3.755  1.8467 -1.5764 -0.6523
 3931TIP3   OH233207   6.764   5.446   3.534 -0.5794  0.5235 -0.0822
 3931TIP3    H133208   6.855   5.416   3.523 -1.1505 -3.1938  4.0431
 3931TIP3    H233209   6.769   5.510   3.604 -1.2600 -0.6128  1.0236
 3932TIP3   OH233210   2.201   3.620  17.209 -0.0531  0.5917  0.2394
 3932TIP3    H133211   2.137   3.691  17.209  0.5884  1.1847  0.6713
 3932TIP3    H233212   2.149   3.540  17.209 -0.7753  1.0539 -1.3673
 3933TIP3   OH233213   0.412   0.019   6.243 -0.7019 -0.5823 -0.2655
 3933TIP3    H133214   0.500   0.037   6.209 -1.3559 -1.7633 -2.6943
 3933TIP3    H233215   0.415  -0.073   6.268 -0.8503 -0.2578  0.9706
 3934TIP3   OH233216   1.306   4.087   2.765  0.7120 -0.0864 -0.2121
 3934TIP3    H133217   1.234   4.150   2.767  1.0001  0.2136  0.9421
 3934TIP3    H233218   1.377   4.130   2.812  0.8215 -1.3733  0.8114
 3935TIP3   OH233219   2.722   0.435  16.384 -0.1589  0.4195 -0.4348
 3935TIP3    H133220   2.638   0.479  16.396  0.1870  1.3648 -1.4310
 3935TIP3    H233221   2.787   0.505  16.384  0.5742 -0.2404 -0.4014
 3936TIP3   OH233222   4.091   2.074   6.971 -0.4211 -0.0370  0.2582
 3936TIP3    H133223   4.098   2.168   6.989 -0.2462 -0.2109  1.0929
 3936TIP3    H233224   4.050   2.070   6.884  1.2027  0.8322 -0.5757
 3937TIP3   OH233225   5.870   3.840  15.108 -0.1651  0.2429 -0.0247
 3937TIP3    H133226   5.878   3.804  15.020  0.0494 -0.2772  0.2078
 3937TIP3    H233227   5.923   3.920  15.105  0.9461 -0.4824  0.0159
 3938TIP3   OH233228   5.088   2.441   0.036  0.5413  0.0954  0.3304
 3938TIP3    H133229   5.057   2.529   0.014  0.3101 -0.4122 -1.3993
 3938TIP3    H233230   5.168   2.430  -0.014 -0.1439 -1.1768 -0.5170
 3939TIP3   OH233231   3.507   1.544  14.118  0.6054  0.0285 -0.0399
 3939TIP3    H133232   3.465   1.562  14.202  1.0050 -0.7981  0.3465
 3939TIP3    H233233   3.453   1.590  14.053 -0.1666  0.0047  0.5828
 3940TIP3   OH233234   5.614   5.846   0.575 -0.2617 -0.1358 -0.2813
 3940TIP3    H133235   5.642   5.909   0.642 -0.8187 -0.6900  0.4830
 3940TIP3    H233236   5.548   5.792   0.619 -1.7607  0.4696 -1.7441
 3941TIP3   OH233237   6.280   2.527   0.805  0.0333 -0.7638  0.3652
 3941TIP3    H133238   6.204   2.584   0.817  0.9243  0.3002  1.0777
 3941TIP3    H233239   6.268   2.457   0.870  0.1147 -0.0984  1.1099
 3942TIP3   OH233240   3.931   0.013  16.373 -0.3756  0.0284 -0.6567
 3942TIP3    H133241   3.926   0.039  16.281 -2.3753 -0.8275 -0.8211
 3942TIP3    H233242   3.848   0.042  16.411 -1.2316 -3.0545 -0.0557
 3943TIP3   OH233243   6.311   3.033  15.600 -0.2662  0.4095  0.2352
 3943TIP3    H133244   6.220   3.058  15.585 -0.3222 -0.4888 -1.0012
 3943TIP3    H233245   6.307   2.972  15.673 -0.3409  2.4311  1.9704
 3944TIP3   OH233246   2.972   1.497  11.937  0.1913  0.0229 -0.1424
 3944TIP3    H133247   2.958   1.566  11.872  0.1763 -0.3242 -0.5040
 3944TIP3    H233248   2.889   1.491  11.983 -0.3011 -0.8151 -1.1268
 3945TIP3   OH233249   5.372   1.812   5.959  0.0447 -0.2851  0.1598
 3945TIP3    H133250   5.417   1.783   5.879  2.0251 -1.1580  1.5689
 3945TIP3    H233251   5.293   1.758   5.962 -0.8516  0.8220 -2.0017
 3946TIP3   OH233252   1.559   3.302  12.610  0.0052  0.4395  0.7414
 3946TIP3    H133253   1.623   3.235  12.587  2.5022  2.6116  1.1961
 3946TIP3    H233254   1.486   3.288  12.549  1.6548 -0.9851 -0.9315
 3947TIP3   OH233255   6.060   2.395   1.933 -0.0448  0.1020 -0.2701
 3947TIP3    H133256   6.067   2.342   2.012 -0.2335 -1.4988 -1.3029
 3947TIP3    H233257   6.141   2.446   1.932  0.7594 -1.1415  0.0591
 3948TIP3   OH233258   0.469   4.736   5.376 -0.0437 -0.0840  0.2244
 3948TIP3    H133259   0.527   4.677   5.425  0.0125  0.5927  0.9863
 3948TIP3    H233260   0.385   4.690   5.374  0.7483 -1.5100 -1.7172
 3949TIP3   OH233261   6.049   3.735  11.263 -0.3257 -0.2964  0.5390
 3949TIP3    H133262   6.019   3.644  11.266  0.3726 -0.4984  1.9923
 3949TIP3    H233263   6.052   3.762  11.355 -1.3200  1.4737  0.0712
 3950TIP3   OH233264   4.434   0.369   4.435 -0.3509  0.1004 -0.1312
 3950TIP3    H133265   4.452   0.322   4.517  1.1684 -0.7786 -0.9485
 3950TIP3    H233266   4.506   0.344   4.377 -1.7660  0.2142 -1.9632
 3951TIP3   OH233267   4.272   2.303  16.369  0.2151  0.5671  0.1106
 3951TIP3    H133268   4.336   2.275  16.304  1.3004 -0.3865  1.5356
 3951TIP3    H233269   4.190   2.313  16.321  0.8388 -0.8054 -1.2485
 3952TIP3   OH233270   4.782   0.387  14.301  0.8706 -0.2957 -0.6029
 3952TIP3    H133271   4.755   0.296  14.311  2.2136 -0.7269 -0.7950
 3952TIP3    H233272   4.759   0.409  14.211  1.4544 -0.7573 -0.8658
 3953TIP3   OH233273   1.727   2.067   4.196 -0.1600  0.7111 -0.7663
 3953TIP3    H133274   1.811   2.080   4.241 -0.4977 -1.2552  0.4905
 3953TIP3    H233275   1.717   2.145   4.142  1.8553  1.5921  0.0636
 3954TIP3   OH233276   6.030   1.575  14.370  0.1670 -0.1943 -0.1651
 3954TIP3    H133277   5.997   1.544  14.455 -0.3536  0.8094  0.0144
 3954TIP3    H233278   5.956   1.564  14.310  0.1524  0.1686 -0.2180
 3955TIP3   OH233279   5.050   4.898   3.385  0.3609 -0.4534  0.4801
 3955TIP3    H133280   4.990   4.841   3.336  1.1688 -0.2007 -0.8175
 3955TIP3    H233281   5.137   4.873   3.356  0.7242  1.5941 -0.2790
 3956TIP3   OH233282   4.306   3.302   6.411  0.3254  0.0681 -0.1737
 3956TIP3    H133283   4.322   3.396   6.423 -1.2582  0.0140  2.9330
 3956TIP3    H233284   4.328   3.263   6.496 -0.2265 -2.1893 -1.0493
 3957TIP3   OH233285   4.356   6.152   1.406  0.4585 -0.0026 -0.0751
 3957TIP3    H133286   4.275   6.156   1.456 -0.2187 -1.0949 -1.0705
 3957TIP3    H233287   4.357   6.064   1.369  1.8397  0.1843 -0.5077
 3958TIP3   OH233288   5.302   2.853   4.216  0.2293  0.1235 -1.0544
 3958TIP3    H133289   5.353   2.929   4.189 -1.8505  1.9111 -0.0989
 3958TIP3    H233290   5.339   2.829   4.301  0.0666  0.8485 -0.7773
 3959TIP3   OH233291   6.464   0.783  13.556  0.5522  0.0322 -0.0303
 3959TIP3    H133292   6.437   0.764  13.466 -0.0298 -1.9971  0.5658
 3959TIP3    H233293   6.539   0.726  13.571  1.2440  1.0581  0.4744
 3960TIP3   OH233294   6.276   1.801   3.681  0.6632  0.1360 -0.0673
 3960TIP3    H133295   6.349   1.862   3.695  0.6507 -0.2288  1.7253
 3960TIP3    H233296   6.268   1.754   3.765  0.0431 -1.6409 -1.0964
 3961TIP3   OH233297   2.564   5.809  14.415 -0.6721 -0.7057 -0.3252
 3961TIP3    H133298   2.513   5.755  14.476 -2.4876  0.1375 -1.0657
 3961TIP3    H233299   2.531   5.898  14.428 -1.2117 -0.5466 -2.6388
 3962TIP3   OH233300   6.741   4.961  17.028  0.6585 -0.3371 -0.1703
 3962TIP3    H133301   6.798   4.982  16.954  0.2762 -1.0148 -0.6626
 3962TIP3    H233302   6.717   4.870  17.015  0.9159 -0.5799  1.0150
 3963TIP3   OH233303   2.851   6.202   1.591  0.2239  0.4879 -0.5534
 3963TIP3    H133304   2.792   6.129   1.609  0.4513  0.3003 -0.5687
 3963TIP3    H233305   2.869   6.196   1.497 -2.3431  2.5030 -1.2239
 3964TIP3   OH233306   6.195   1.121   1.685 -0.6679  0.9031  0.1967
 3964TIP3    H133307   6.290   1.106   1.679 -0.6374  1.1127  0.1315
 3964TIP3    H233308   6.188   1.210   1.722 -0.8416  0.7024  0.6513
 3965TIP3   OH233309   0.374   0.104  13.483  0.6257  0.2325  0.3851
 3965TIP3    H133310   0.321   0.025  13.495 -2.0575  1.8485 -0.3449
 3965TIP3    H233311   0.396   0.133  13.571 -0.2127 -0.1643  0.7310
 3966TIP3   OH233312   1.706   3.499   4.848 -0.9251 -0.4382 -0.5052
 3966TIP3    H133313   1.749   3.575   4.808 -1.0657 -1.0504 -1.8314
 3966TIP3    H233314   1.688   3.440   4.775 -0.7803 -1.7757  0.5220
 3967TIP3   OH233315   5.526   1.146  13.652 -0.3053 -0.2583 -0.8330
 3967TIP3    H133316   5.604   1.200  13.664 -0.4120 -0.2410 -0.2138
 3967TIP3    H233317   5.540   1.070  13.709 -1.0018  0.0276 -0.2695
 3968TIP3   OH233318   0.097   5.760  16.590  0.7740 -0.4228  0.0817
 3968TIP3    H133319   0.170   5.738  16.532 -0.1870 -0.3987 -1.1590
 3968TIP3    H233320   0.098   5.691  16.657  2.1534 -0.2133  0.2927
 3969TIP3   OH233321   6.226   2.531   6.135  0.0686  0.1452  0.1703
 3969TIP3    H133322   6.172   2.541   6.213  0.5751  1.5476  0.3659
 3969TIP3    H233323   6.296   2.471   6.161 -0.6635 -0.6474  0.3099
 3970TIP3   OH233324   4.452   3.497  10.565  0.0398 -0.2601  0.5423
 3970TIP3    H133325   4.510   3.547  10.622 -1.0285 -0.3160  1.6963
 3970TIP3    H233326   4.473   3.527  10.476  0.5555  1.0382  1.0999
 3971TIP3   OH233327   0.245   2.437  10.622  0.0286 -0.1927 -0.0515
 3971TIP3    H133328   0.225   2.348  10.649  0.0629 -0.2023 -0.0576
 3971TIP3    H233329   0.168   2.466  10.574 -0.1347 -0.0859  0.2751
 3972TIP3   OH233330   4.326   5.324  14.719  0.1431 -0.3264  0.4906
 3972TIP3    H133331   4.264   5.371  14.662 -1.2823 -0.1646  2.1505
 3972TIP3    H233332   4.394   5.294  14.659  1.1322  3.8843 -0.6257
 3973TIP3   OH233333   1.229   5.721  13.272 -0.1492  0.1482 -0.1990
 3973TIP3    H133334   1.231   5.654  13.339  0.0588  0.7275  0.3777
 3973TIP3    H233335   1.317   5.721  13.235 -0.2373 -0.1089 -0.4055
 3974TIP3   OH233336   4.336   1.593   6.799  0.2582  0.1546  0.2487
 3974TIP3    H133337   4.413   1.607   6.854  0.6173  1.0120 -0.4753
 3974TIP3    H233338   4.355   1.639   6.718 -0.2917 -1.0854 -0.5987
 3975TIP3   OH233339   4.261   3.626   1.339  0.4737  0.1624  0.4764
 3975TIP3    H133340   4.259   3.539   1.378  0.6922 -0.7963 -1.5941
 3975TIP3    H233341   4.354   3.644   1.325  0.4159  0.6276  0.6705
 3976TIP3   OH233342   2.349   5.045  12.707  0.2465 -0.1148  0.0294
 3976TIP3    H133343   2.378   5.007  12.790 -1.3665 -1.4161  0.0365
 3976TIP3    H233344   2.301   5.124  12.733  0.0337 -0.3360  0.3213
 3977TIP3   OH233345   0.369   4.909   0.797 -0.2603 -0.1557  0.8375
 3977TIP3    H133346   0.407   4.922   0.884  1.2860  0.4726  0.0751
 3977TIP3    H233347   0.444   4.898   0.739 -1.2810 -0.3393 -0.4672
 3978TIP3   OH233348   2.907   6.229   1.323  0.6628  0.5567 -0.1087
 3978TIP3    H133349   2.881   6.310   1.279 -2.8703  0.2970  1.3285
 3978TIP3    H233350   2.872   6.159   1.267  0.6153  0.1108  0.4784
 3979TIP3   OH233351   5.393   0.335   3.628  0.4990  0.7524 -0.6828
 3979TIP3    H133352   5.300   0.337   3.652  0.0665 -0.9095 -2.1016
 3979TIP3    H233353   5.413   0.242   3.618  2.2952  1.1030 -0.5490
 3980TIP3   OH233354   6.246   1.754   3.183  0.3352 -0.0953 -0.3556
 3980TIP3    H133355   6.237   1.715   3.270  1.8115  2.5266  1.0170
 3980TIP3    H233356   6.331   1.723   3.152 -0.7445 -2.0720 -1.4632
 3981TIP3   OH233357   4.129   0.636  14.489 -0.0231  0.1200 -0.1961
 3981TIP3    H133358   4.186   0.661  14.561 -0.0016 -0.6595  0.0645
 3981TIP3    H233359   4.113   0.717  14.441  0.1946  0.5903  0.5208
 3982TIP3   OH233360   4.131   6.043   2.694 -0.1771 -0.2382  0.1789
 3982TIP3    H133361   4.161   6.106   2.760 -0.5146 -0.0698  0.1718
 3982TIP3    H233362   4.211   6.004   2.660 -0.0109 -0.5010  0.8675
 3983TIP3   OH233363   1.710   1.018  15.022 -0.1256 -0.3944  0.3774
 3983TIP3    H133364   1.757   0.935  15.034 -0.4490 -0.1881  3.5991
 3983TIP3    H233365   1.654   1.003  14.946  0.1121 -3.0103  0.6639
 3984TIP3   OH233366   0.698   4.549   4.099 -0.0014 -0.9981 -0.3105
 3984TIP3    H133367   0.680   4.576   4.008 -0.3395  0.2766  0.1239
 3984TIP3    H233368   0.625   4.586   4.149  1.7170  0.7735  0.8985
 3985TIP3   OH233369   2.782   4.193  12.691  0.9092 -0.4901  0.2416
 3985TIP3    H133370   2.872   4.158  12.688  1.1254  0.0809  0.1121
 3985TIP3    H233371   2.793   4.288  12.696  0.3623 -0.5135  2.6632
 3986TIP3   OH233372   0.606   2.644   0.012  0.2846 -0.7698 -0.1206
 3986TIP3    H133373   0.566   2.571   0.059  0.5349 -1.2477 -0.6555
 3986TIP3    H233374   0.630   2.609  -0.073  0.8217 -0.1836 -0.2207
 3987TIP3   OH233375   5.928   0.098   3.206 -0.3544 -0.2393 -0.3496
 3987TIP3    H133376   5.925   0.146   3.123  1.2924 -1.2892 -1.0612
 3987TIP3    H233377   6.021   0.102   3.231 -0.9593  0.6475  1.7947
 3988TIP3   OH233378   5.490   0.535   1.742 -0.3345  0.1306 -0.1647
 3988TIP3    H133379   5.407   0.506   1.703 -0.2676 -0.1598 -0.0883
 3988TIP3    H233380   5.556   0.519   1.675 -0.4658  1.1928 -0.5724
 3989TIP3   OH233381   0.899   5.010  13.630  0.3189  0.5644 -0.3155
 3989TIP3    H133382   0.885   5.103  13.646 -0.9796  0.4176 -0.4972
 3989TIP3    H233383   0.821   4.982  13.582  0.2818 -0.8060  0.5068
 3990TIP3   OH233384   0.029   0.157  12.765 -0.0147  0.4398 -0.2924
 3990TIP3    H133385   0.015   0.062  12.774  2.0106 -0.1291 -2.3492
 3990TIP3    H233386  -0.030   0.183  12.693 -1.1329  0.9105  0.7823
 3991TIP3   OH233387   5.398   0.791   5.561  0.9348  0.1968  0.4961
 3991TIP3    H133388   5.485   0.755   5.582 -0.3928 -3.1194  0.6229
 3991TIP3    H233389   5.337   0.726   5.596 -1.5758  1.5343 -1.3259
 3992TIP3   OH233390   5.310   2.877  11.904  0.1185 -0.8972 -0.2679
 3992TIP3    H133391   5.259   2.796  11.907 -0.1756 -0.6923  0.4285
 3992TIP3    H233392   5.349   2.884  11.991 -0.5465  0.1455 -0.0471
 3993TIP3   OH233393   2.387   2.308   4.518 -0.2351  0.1270  0.0614
 3993TIP3    H133394   2.378   2.215   4.535  1.0981  0.0362  0.3377
 3993TIP3    H233395   2.482   2.323   4.513 -0.3997  1.6699  1.1618
 3994TIP3   OH233396   2.414   5.468  12.594  0.2460  0.1647  0.1252
 3994TIP3    H133397   2.319   5.478  12.586  0.5173  0.6924 -3.3530
 3994TIP3    H233398   2.450   5.543  12.546  2.4182 -0.8235  0.1418
 3995TIP3   OH233399   5.887   5.069  11.561 -0.5750  0.1910 -0.1136
 3995TIP3    H133400   5.932   5.145  11.598 -2.8835  1.4355  0.1969
 3995TIP3    H233401   5.862   5.097  11.473  0.5310 -1.0179 -0.8249
 3996TIP3   OH233402   1.837   1.204  13.933 -0.1222 -0.7231  0.0975
 3996TIP3    H133403   1.802   1.182  13.847  0.8999 -2.4893  0.0999
 3996TIP3    H233404   1.786   1.280  13.962 -1.8385 -1.3558 -1.2020
 3997TIP3   OH233405   2.269   4.915  15.679 -0.5865 -0.3755  0.3110
 3997TIP3    H133406   2.178   4.934  15.656 -0.3664  1.8234  1.1504
 3997TIP3    H233407   2.319   4.937  15.600 -0.8150 -2.1403 -0.3491
 3998TIP3   OH233408   0.112   3.995  13.641  0.4183  0.1631  0.1435
 3998TIP3    H133409   0.023   4.013  13.670 -0.2709 -0.9626 -1.2182
 3998TIP3    H233410   0.114   4.021  13.549  1.6416  0.6402  0.2870
 3999TIP3   OH233411   3.749   5.606  10.326  0.6243  0.0983 -0.2454
 3999TIP3    H133412   3.748   5.565  10.240 -0.2875  1.7232 -1.0247
 3999TIP3    H233413   3.746   5.533  10.387 -0.2341 -1.0195 -1.5935
 4000TIP3   OH233414   2.737   6.064  15.110  0.1935  0.1747  0.2601
 4000TIP3    H133415   2.658   6.085  15.060  1.4740  0.9238 -1.5127
 4000TIP3    H233416   2.747   5.970  15.099 -0.5271  0.0609  0.5794
 4001TIP3   OH233417   0.594   3.239   5.104  0.1716  0.1376  0.0800
 4001TIP3    H133418   0.666   3.195   5.149 -0.0038  0.8831  1.1008
 4001TIP3    H233419   0.597   3.329   5.136 -0.2206  0.5811 -1.0868
 4002TIP3   OH233420   5.414   4.921   3.087  0.3030  0.1235  0.2095
 4002TIP3    H133421   5.415   5.011   3.119 -1.5288  0.2749 -0.0911
 4002TIP3    H233422   5.400   4.867   3.165 -0.7319  0.2553  0.1200
 4003TIP3   OH233423   3.374   5.803   2.001 -0.3185  0.6554 -0.1777
 4003TIP3    H133424   3.413   5.841   2.080  0.6615 -1.5330  0.4359
 4003TIP3    H233425   3.280   5.813   2.014 -0.0960  3.8815 -0.5880
 4004TIP3   OH233426   1.100   2.487  11.682  0.2115 -0.0838 -0.0694
 4004TIP3    H133427   1.079   2.414  11.740 -2.0316 -1.4561 -2.4897
 4004TIP3    H233428   1.196   2.493  11.685  0.4523 -3.1629  0.1812
 4005TIP3   OH233429   5.181   0.013  14.356  0.1355 -0.2074  0.0941
 4005TIP3    H133430   5.124  -0.064  14.350  1.8665 -1.5129  0.1293
 4005TIP3    H233431   5.169   0.058  14.273 -1.4327 -0.1051  0.3557
 4006TIP3   OH233432   5.337   4.674   4.056  0.2929  0.3208 -0.7123
 4006TIP3    H133433   5.389   4.644   4.131 -0.9414  0.2137  0.1248
 4006TIP3    H233434   5.271   4.732   4.094 -0.5702 -0.0072 -1.6660
 4007TIP3   OH233435   4.260   4.248  15.343  0.1864  0.1137 -0.2558
 4007TIP3    H133436   4.196   4.200  15.396  1.5730 -0.3170  1.0668
 4007TIP3    H233437   4.207   4.304  15.286 -1.4321 -1.9195 -0.8233
 4008TIP3   OH233438   5.871   3.970   1.531  0.2815 -0.1095 -0.3153
 4008TIP3    H133439   5.868   3.893   1.475  1.0860 -1.1362  0.9985
 4008TIP3    H233440   5.964   3.993   1.536  0.2661 -0.2413  0.8495
 4009TIP3   OH233441   5.515   2.563   5.546 -0.3558 -0.4916  0.1349
 4009TIP3    H133442   5.454   2.637   5.541 -1.3874 -1.2568  1.0907
 4009TIP3    H233443   5.570   2.572   5.469 -3.6740 -1.5337 -2.5030
 4010TIP3   OH233444   2.922   3.941   4.521 -0.6683  0.2025 -0.3511
 4010TIP3    H133445   2.991   3.921   4.459  1.0612  0.4018  1.4511
 4010TIP3    H233446   2.927   3.872   4.587 -1.5064  0.7844  0.3426
 4011TIP3   OH233447   6.433   6.765  14.709 -0.4275 -0.7195 -0.0984
 4011TIP3    H133448   6.368   6.822  14.668 -1.5978 -1.5928  0.4797
 4011TIP3    H233449   6.421   6.779  14.803  1.5599  0.5377 -0.0050
 4012TIP3   OH233450   3.664   0.815   5.323 -0.1253 -0.0050 -0.2853
 4012TIP3    H133451   3.610   0.813   5.402  1.0824 -3.5800  0.5324
 4012TIP3    H233452   3.618   0.759   5.261  0.1949  0.8167 -1.2781
 4013TIP3   OH233453   3.959   0.093  14.354 -0.2509  0.2329 -0.6507
 4013TIP3    H133454   3.877   0.077  14.399  0.5508 -1.5428  0.2532
 4013TIP3    H233455   4.019   0.124  14.422  0.9138 -2.2934 -0.4384
 4014TIP3   OH233456   2.361   2.867   0.895 -0.4220 -0.5992  0.0974
 4014TIP3    H133457   2.348   2.776   0.920 -1.5001 -0.7362 -0.9298
 4014TIP3    H233458   2.308   2.917   0.956 -0.2610 -0.6957  0.3159
 4015TIP3   OH233459   1.902   3.339  13.786  0.8420 -0.1692 -0.1906
 4015TIP3    H133460   1.976   3.386  13.747  0.4598  1.2119  0.6793
 4015TIP3    H233461   1.909   3.357  13.880  0.3349 -1.3848  0.0927
 4016TIP3   OH233462   3.225   5.047   2.632 -0.1071  0.4929  0.3654
 4016TIP3    H133463   3.158   5.066   2.697 -0.5693  0.4547 -0.0941
 4016TIP3    H233464   3.190   4.973   2.583  0.5616  0.0668  0.5373
 4017TIP3   OH233465   0.862   5.825   3.027 -0.2042 -0.2525 -0.1554
 4017TIP3    H133466   0.930   5.872   2.979 -2.1524  2.7807 -0.1327
 4017TIP3    H233467   0.839   5.751   2.971 -2.3712  3.1380 -4.0360
 4018TIP3   OH233468   1.790   1.065   2.833  0.4275 -0.1175 -0.8154
 4018TIP3    H133469   1.804   0.984   2.882 -1.1058  0.6329  0.9438
 4018TIP3    H233470   1.866   1.119   2.852  0.3905 -0.2897 -0.1630
 4019TIP3   OH233471   2.695   5.597   0.369  0.4030 -0.3536  0.5648
 4019TIP3    H133472   2.653   5.670   0.323  1.4317 -0.6735 -0.9389
 4019TIP3    H233473   2.781   5.590   0.328  1.0901 -1.0913  2.1221
 4020TIP3   OH233474   0.660   4.105   5.666  0.2185 -0.7111  0.2354
 4020TIP3    H133475   0.655   4.201   5.662 -1.1029 -0.7347  0.9977
 4020TIP3    H233476   0.751   4.085   5.646  0.3340  0.6612 -0.7199
 4021TIP3   OH233477   0.008   0.471  16.246  0.3653  0.3846 -0.3142
 4021TIP3    H133478  -0.085   0.452  16.231  0.2851  1.2796 -1.0023
 4021TIP3    H233479   0.009   0.560  16.282  0.9244  0.1969  0.1372
 4022TIP3   OH233480   3.363   3.926  13.946  0.6690 -0.1536  1.2116
 4022TIP3    H133481   3.395   3.977  14.020 -0.7484  0.0946  1.6736
 4022TIP3    H233482   3.298   3.983  13.904 -0.2319 -1.1857  1.1682
 4023TIP3   OH233483   2.104   0.527   0.975 -0.1853  0.0817  0.1756
 4023TIP3    H133484   2.133   0.476   0.899 -1.3618  1.4240 -1.2401
 4023TIP3    H233485   2.170   0.511   1.042  1.0142 -0.9748 -1.2142
 4024TIP3   OH233486   1.000   3.652  10.935 -0.2625 -0.1594  0.7904
 4024TIP3    H133487   0.920   3.692  10.900  0.6475  1.7580  0.8143
 4024TIP3    H233488   1.058   3.645  10.859  0.3241  0.4638  1.1741
 4025TIP3   OH233489   5.662   1.282   2.387  0.4976  0.6041 -0.1211
 4025TIP3    H133490   5.690   1.354   2.445  0.2177 -0.0178  0.7856
 4025TIP3    H233491   5.744   1.247   2.352  0.6224  1.5359 -0.7689
 4026TIP3   OH233492   1.871   0.116   0.809 -0.4550  0.2863  0.4615
 4026TIP3    H133493   1.828   0.103   0.725 -0.7078 -1.1036  0.7897
 4026TIP3    H233494   1.914   0.032   0.827 -0.0947  0.6895  1.5374
 4027TIP3   OH233495   5.324   3.791   0.049  0.0708 -0.2831  0.1753
 4027TIP3    H133496   5.415   3.763   0.057  0.0022 -1.0540 -1.4596
 4027TIP3    H233497   5.303   3.776  -0.044 -1.5042  0.5276  0.3904
 4028TIP3   OH233498   4.087   2.529   6.018  0.0683 -0.3200 -0.0861
 4028TIP3    H133499   4.023   2.464   5.989  0.1039  0.0632 -1.0253
 4028TIP3    H233500   4.052   2.562   6.101  0.1306 -1.6523  0.4734
 4029TIP3   OH233501   3.257   4.588  11.516  0.0043  0.3986  0.0152
 4029TIP3    H133502   3.192   4.571  11.448 -0.4811 -1.3452  0.8780
 4029TIP3    H233503   3.221   4.547  11.594  1.6423  0.3598  0.7636
 4030TIP3   OH233504   6.699   3.021  11.964 -0.2086 -0.0987  0.8384
 4030TIP3    H133505   6.777   3.076  11.971 -2.1307  2.8113  0.3025
 4030TIP3    H233506   6.645   3.046  12.038 -0.7819 -1.8724  1.0427
 4031TIP3   OH233507   2.087   5.997   0.249  0.5131  0.2123 -0.0561
 4031TIP3    H133508   2.106   5.923   0.191  1.1993  0.4113 -0.0826
 4031TIP3    H233509   2.160   5.999   0.310 -1.3721 -1.5053  2.3819
 4032TIP3   OH233510   2.047   1.161   2.983  0.4513 -0.5275  0.5923
 4032TIP3    H133511   2.098   1.089   3.020  1.7878 -0.1254 -0.4133
 4032TIP3    H233512   2.112   1.215   2.937 -0.4349  1.6109  1.7974
 4033TIP3   OH233513   5.566   2.502  12.078  0.5877 -0.4156  0.2409
 4033TIP3    H133514   5.491   2.562  12.076  2.0946  1.5425  0.0545
 4033TIP3    H233515   5.560   2.459  12.163 -0.9547 -0.5858  0.0668
 4034TIP3   OH233516   3.741   0.340   6.095  0.1954 -0.3764  0.1505
 4034TIP3    H133517   3.786   0.285   6.031  1.5771  0.1386  0.6602
 4034TIP3    H233518   3.811   0.383   6.144 -0.7366  4.3156 -2.2930
 4035TIP3   OH233519   6.450   3.566   5.012  0.4405 -0.1823  0.5022
 4035TIP3    H133520   6.424   3.554   4.921 -1.4703  3.5576  0.4355
 4035TIP3    H233521   6.388   3.513   5.062 -0.2735 -0.0802 -0.2677
 4036TIP3   OH233522   3.835   2.413  14.288 -0.2016  0.6500 -0.2698
 4036TIP3    H133523   3.770   2.475  14.254 -0.4843  0.3528 -0.2714
 4036TIP3    H233524   3.790   2.328  14.287  0.4396  0.3189 -0.9683
 4037TIP3   OH233525   0.132   5.442   5.093 -0.5855 -0.3284  0.0410
 4037TIP3    H133526   0.090   5.484   5.017 -0.2271 -1.5752 -0.8602
 4037TIP3    H233527   0.192   5.509   5.127 -0.8751  0.3004 -0.6636
 4038TIP3   OH233528   6.067   3.789   1.698 -0.1837  0.0598 -0.3286
 4038TIP3    H133529   6.065   3.861   1.761 -3.1538  0.3281 -0.6832
 4038TIP3    H233530   6.071   3.831   1.613  0.7641 -0.2651 -0.4556
 4039TIP3   OH233531   0.923   1.050   5.750  0.1706 -0.3590  0.7750
 4039TIP3    H133532   0.977   1.058   5.829  1.6841 -0.1766 -0.2459
 4039TIP3    H233533   0.835   1.074   5.779  1.1926  2.3621  1.8388
 4040TIP3   OH233534   1.686   0.551   5.670 -0.0693 -0.2772 -0.2244
 4040TIP3    H133535   1.711   0.499   5.747 -1.1869 -0.7000 -0.1381
 4040TIP3    H233536   1.765   0.599   5.647  0.8671 -1.7159 -0.0584
 4041TIP3   OH233537   5.169   5.126   0.922 -0.1856 -0.4933  0.4790
 4041TIP3    H133538   5.138   5.204   0.877 -0.2364 -1.0170 -0.3948
 4041TIP3    H233539   5.100   5.107   0.986 -0.3871 -0.0832  0.3851
 4042TIP3   OH233540   0.728   1.995   2.938  0.0722  0.0389  0.1631
 4042TIP3    H133541   0.777   2.073   2.967  0.5118  0.0244 -0.5304
 4042TIP3    H233542   0.642   2.005   2.979  0.3086  0.6055  0.5386
 4043TIP3   OH233543   3.925   1.906   5.231 -0.0722  0.2475 -0.6201
 4043TIP3    H133544   3.977   1.845   5.178  0.7983  0.5854 -0.1539
 4043TIP3    H233545   3.920   1.864   5.317  0.0487  0.5691 -0.4580
 4044TIP3   OH233546   2.710   0.135  12.638 -0.5883  0.2524  0.0337
 4044TIP3    H133547   2.772   0.123  12.567  1.5808  0.4378  1.8426
 4044TIP3    H233548   2.650   0.203  12.606  0.9414  1.0346 -1.2253
 4045TIP3   OH233549   3.248   5.368  13.420  0.2242 -0.1669 -0.2868
 4045TIP3    H133550   3.231   5.436  13.355  0.0653  0.9801  0.9368
 4045TIP3    H233551   3.270   5.291  13.368 -3.7567 -0.3803 -1.8338
 4046TIP3   OH233552   1.631   4.407   1.179 -0.3720  0.3282 -0.7038
 4046TIP3    H133553   1.617   4.319   1.214 -1.3402  1.2759  1.3582
 4046TIP3    H233554   1.634   4.394   1.084 -2.8682 -1.6294 -0.5838
 4047TIP3   OH233555   3.383   6.243  12.683  0.1574 -0.0249  0.1303
 4047TIP3    H133556   3.315   6.257  12.749  1.2937 -0.3451  1.3933
 4047TIP3    H233557   3.451   6.307  12.704  0.0352  0.6414 -1.4334
 4048TIP3   OH233558   2.247   1.628   4.995 -0.4242  0.2599 -0.5974
 4048TIP3    H133559   2.292   1.550   5.030  0.4367  1.1932  0.4467
 4048TIP3    H233560   2.159   1.623   5.031 -0.0416  0.3291  0.3694
 4049TIP3   OH233561   3.729   3.691  15.505 -0.5630 -0.3395  0.4647
 4049TIP3    H133562   3.789   3.624  15.474 -0.7036 -0.8712  1.3091
 4049TIP3    H233563   3.654   3.685  15.446 -0.1571 -0.2509 -0.0647
 4050TIP3   OH233564   1.735   4.307  14.318 -0.1139  0.0539  0.4482
 4050TIP3    H133565   1.789   4.315  14.397  1.1253  3.3579 -0.6253
 4050TIP3    H233566   1.778   4.239  14.266  1.3567  0.6081  0.9022
 4051TIP3   OH233567   2.449   4.412  13.508 -0.0538  0.1930  0.0502
 4051TIP3    H133568   2.541   4.393  13.528 -0.0809  0.2712  0.2484
 4051TIP3    H233569   2.426   4.484  13.567  0.7781  2.5593 -2.4341
 4052TIP3   OH233570   6.513   0.913   0.005 -0.1693  0.2158  0.6268
 4052TIP3    H133571   6.552   0.984  -0.045 -1.4969  0.7580  0.3376
 4052TIP3    H233572   6.582   0.848   0.013  1.0993  1.5738  0.9780
 4053TIP3   OH233573   1.266   5.823   5.832 -0.0459  0.1440 -0.3898
 4053TIP3    H133574   1.298   5.739   5.864  0.2107  0.3552 -0.0937
 4053TIP3    H233575   1.344   5.877   5.821 -0.1868  0.2639 -0.8170
 4054TIP3   OH233576   2.945   1.759   5.503 -0.4730 -0.6867 -0.2659
 4054TIP3    H133577   2.879   1.737   5.437 -0.0982 -0.5243 -0.7023
 4054TIP3    H233578   2.984   1.674   5.526  1.6989 -0.4279 -2.7239
 4055TIP3   OH233579   0.957   1.313   0.874  0.0059  0.2221 -0.2285
 4055TIP3    H133580   0.955   1.236   0.816 -1.8718 -1.3562  1.8600
 4055TIP3    H233581   1.001   1.282   0.953 -0.6292  1.3414  0.5727
 4056TIP3   OH233582   5.047   1.536  16.054 -0.5561  0.2568  0.1084
 4056TIP3    H133583   5.126   1.568  16.009  0.1121 -1.3351  0.1164
 4056TIP3    H233584   5.066   1.549  16.147  0.1526 -1.1157  0.1659
 4057TIP3   OH233585   0.121   3.100   2.973 -0.1878  0.0462  0.3767
 4057TIP3    H133586   0.041   3.069   3.015  1.0927 -2.8067  0.8617
 4057TIP3    H233587   0.120   3.060   2.886 -0.0916  1.3454 -0.2292
 4058TIP3   OH233588   6.596   3.653  16.796 -0.2441  0.0187  0.3288
 4058TIP3    H133589   6.501   3.668  16.797 -0.0851  1.2355 -1.0265
 4058TIP3    H233590   6.606   3.565  16.760 -0.8186  0.4013 -0.8068
 4059TIP3   OH233591   1.927   3.207   6.068  0.0384 -0.1104  0.2212
 4059TIP3    H133592   1.918   3.147   6.143 -2.4084  0.0107  0.0555
 4059TIP3    H233593   1.897   3.291   6.102 -0.6822  0.0354 -0.7832
 4060TIP3   OH233594   2.943   4.284   1.100  0.4855 -0.2050 -0.4191
 4060TIP3    H133595   2.900   4.311   1.019  1.1140  1.1118 -0.3358
 4060TIP3    H233596   2.955   4.366   1.148 -1.0441 -1.1049  1.5818
 4061TIP3   OH233597   4.742   0.556   1.051  0.3617 -0.4329  0.3400
 4061TIP3    H133598   4.710   0.580   1.138  1.0649  0.1427  0.4463
 4061TIP3    H233599   4.835   0.579   1.052  0.2983 -0.0821 -0.6839
 4062TIP3   OH233600   3.221   5.761   5.386 -0.1352 -0.3732  0.1126
 4062TIP3    H133601   3.306   5.800   5.408 -0.4834 -0.5329  1.7835
 4062TIP3    H233602   3.156   5.822   5.420 -0.6851 -1.3791  0.8967
 4063TIP3   OH233603   6.216   1.437   4.114 -0.5653  0.5487 -0.4546
 4063TIP3    H133604   6.292   1.389   4.146  0.2876  1.1623 -1.5709
 4063TIP3    H233605   6.149   1.369   4.102  0.1057 -0.1312 -0.4201
 4064TIP3   OH233606   4.423   5.268   3.122 -0.2685  0.5899  0.4410
 4064TIP3    H133607   4.352   5.221   3.166 -0.0860 -0.8865 -0.8042
 4064TIP3    H233608   4.378   5.318   3.053 -0.2787  1.0079  0.7455
 4065TIP3   OH233609   2.745   2.937  12.134  0.2179 -0.6138 -0.0402
 4065TIP3    H133610   2.658   2.968  12.159  0.1395 -0.5978 -0.3234
 4065TIP3    H233611   2.782   3.008  12.082 -0.9935 -1.9951 -2.9353
 4066TIP3   OH233612   2.094   6.049  10.989 -0.0299  0.2348  0.4337
 4066TIP3    H133613   2.075   6.017  10.901 -0.9096 -0.1105  0.7490
 4066TIP3    H233614   2.188   6.068  10.987 -0.2666  1.3152 -0.9109
 4067TIP3   OH233615   5.804   4.920  12.621  0.6283 -0.4861 -0.1676
 4067TIP3    H133616   5.728   4.976  12.605  0.9936  0.1469  0.2793
 4067TIP3    H233617   5.832   4.891  12.534  0.8488  0.5782 -0.4511
 4068TIP3   OH233618   6.186   1.814  11.914  0.1463  0.4886 -0.4162
 4068TIP3    H133619   6.170   1.756  11.989 -1.5527  1.5856  0.0989
 4068TIP3    H233620   6.240   1.762  11.855  1.5766 -0.3776  1.5928
 4069TIP3   OH233621   2.070   1.235  13.008 -0.3893  0.5006 -0.4367
 4069TIP3    H133622   2.036   1.319  12.977 -1.5615  0.3066  0.3154
 4069TIP3    H233623   2.070   1.179  12.930  1.4452  1.5020 -1.1963
 4070TIP3   OH233624   1.624   2.298  16.584 -0.1867  0.0426 -0.4355
 4070TIP3    H133625   1.685   2.309  16.656  1.3777  0.9411 -1.8588
 4070TIP3    H233626   1.613   2.203  16.576 -1.1188 -0.0419  1.5599
 4071TIP3   OH233627   6.094   5.323   2.322 -0.6820  0.2751  0.7927
 4071TIP3    H133628   6.189   5.314   2.315 -0.6347  1.4408 -0.1981
 4071TIP3    H233629   6.065   5.328   2.231 -1.5817  1.1349  1.1318
 4072TIP3   OH233630   2.168   0.437  15.258  0.1096  0.3389 -0.0270
 4072TIP3    H133631   2.134   0.510  15.310 -0.2662 -0.0388  0.2604
 4072TIP3    H233632   2.160   0.361  15.315 -0.1887 -0.0606 -0.5912
 4073TIP3   OH233633   1.152   3.254   3.680 -0.3114  0.5333 -0.0568
 4073TIP3    H133634   1.148   3.264   3.775 -2.6644 -0.8043  0.0223
 4073TIP3    H233635   1.242   3.277   3.657  0.4381  0.3423  2.5504
 4074TIP3   OH233636   5.141   1.588   5.344  0.2810 -0.0136 -0.3771
 4074TIP3    H133637   5.057   1.551   5.370 -0.0574  1.5351  0.7245
 4074TIP3    H233638   5.130   1.609   5.251 -0.6346  0.4281 -0.1704
 4075TIP3   OH233639   2.368   6.747  14.383  0.2962  0.9654  0.0750
 4075TIP3    H133640   2.422   6.825  14.387  1.6403  0.0249  1.0109
 4075TIP3    H233641   2.415   6.683  14.437 -1.8368  0.1733  1.0384
 4076TIP3   OH233642   0.535   3.514  12.108 -0.2675 -0.1215 -0.0063
 4076TIP3    H133643   0.495   3.587  12.060  0.0881 -0.0077 -0.1313
 4076TIP3    H233644   0.604   3.482  12.050 -1.5033 -1.6268 -0.6746
 4077TIP3   OH233645   0.325   1.708  14.635  0.1504  0.4520 -0.4228
 4077TIP3    H133646   0.367   1.690  14.719  0.3217  0.9254 -0.4066
 4077TIP3    H233647   0.261   1.638  14.624 -0.0692  0.5521  0.2361
 4078TIP3   OH233648   0.972   4.533  12.035 -0.2300 -0.0901 -0.1034
 4078TIP3    H133649   1.033   4.574  11.974 -1.5951 -0.0878 -1.4651
 4078TIP3    H233650   0.911   4.603  12.059 -0.3247 -0.3603  0.4515
 4079TIP3   OH233651   5.334   5.664  15.296  0.0973  0.2350  0.5369
 4079TIP3    H133652   5.356   5.664  15.390  0.0703 -1.6501  0.5542
 4079TIP3    H233653   5.287   5.747  15.283  0.0081  0.4707  2.2020
 4080TIP3   OH233654   0.186   3.851  14.419 -0.0677 -0.3207  0.4931
 4080TIP3    H133655   0.264   3.905  14.428 -0.0601 -0.0793 -0.8279
 4080TIP3    H233656   0.195   3.783  14.485  0.3728  0.7601  1.5618
 4081TIP3   OH233657   5.183   6.183   3.436  0.1098 -0.3708  0.1597
 4081TIP3    H133658   5.159   6.120   3.504 -0.4183  0.2700  0.5789
 4081TIP3    H233659   5.147   6.266   3.467 -0.3025 -0.1078 -1.0153
 4082TIP3   OH233660   0.820   0.412  17.057  0.3660 -0.3317  0.4755
 4082TIP3    H133661   0.744   0.431  17.003 -0.3752  1.0293  1.9614
 4082TIP3    H233662   0.895   0.443  17.006 -0.2267 -0.0032 -0.2008
 4083TIP3   OH233663   2.708   6.547  16.284 -0.0782  0.4615 -0.3870
 4083TIP3    H133664   2.723   6.526  16.192 -0.6970 -0.1332 -0.3461
 4083TIP3    H233665   2.700   6.463  16.328  0.1487  0.7436  0.2062
 4084TIP3   OH233666   2.515   4.726   5.393 -0.0329 -0.2493 -0.3659
 4084TIP3    H133667   2.481   4.815   5.387  0.0022 -0.1931  0.2863
 4084TIP3    H233668   2.501   4.701   5.484  0.4444 -0.7153 -0.4209
 4085TIP3   OH233669   5.894   3.586   0.257  0.2848 -0.1001 -0.2240
 4085TIP3    H133670   5.865   3.580   0.348 -0.3977 -3.5603 -0.6146
 4085TIP3    H233671   5.961   3.655   0.258 -1.4405  1.6393  2.4000
 4086TIP3   OH233672   1.220   2.526  15.528 -0.2972 -0.3011  0.1998
 4086TIP3    H133673   1.190   2.613  15.504 -1.2335  0.1685  2.9366
 4086TIP3    H233674   1.158   2.467  15.484  0.0140  0.3907 -1.2071
 4087TIP3   OH233675   2.092   3.849   1.977  0.2676 -0.5322 -0.1172
 4087TIP3    H133676   2.035   3.910   2.023  1.1835  0.2882 -0.0404
 4087TIP3    H233677   2.177   3.858   2.021  1.5055  1.1876 -2.6878
 4088TIP3   OH233678   1.695   5.400   2.096 -0.3500  0.0929 -0.9232
 4088TIP3    H133679   1.719   5.461   2.025  2.5757  1.7362  1.3401
 4088TIP3    H233680   1.758   5.328   2.088 -0.3748  0.0077 -0.3590
 4089TIP3   OH233681   1.890   0.552   1.146 -0.4357  0.9735 -0.2204
 4089TIP3    H133682   1.945   0.501   1.087 -2.5447 -3.0991  1.1409
 4089TIP3    H233683   1.810   0.569   1.097  0.4381  3.4933 -0.8344
 4090TIP3   OH233684   3.828   0.888  14.442 -0.0350 -0.0882 -0.0937
 4090TIP3    H133685   3.826   0.815  14.380  2.0603  0.8229 -1.2744
 4090TIP3    H233686   3.766   0.863  14.511  0.6905 -3.0005 -0.4366
 4091TIP3   OH233687   3.759   1.590  15.988 -0.0062 -0.2145  0.1012
 4091TIP3    H133688   3.789   1.535  16.060 -0.0626  0.0184  0.3054
 4091TIP3    H233689   3.822   1.662  15.984  0.9106 -1.0676 -1.1184
 4092TIP3   OH233690   0.179   0.810   0.779 -0.2955  0.4276 -0.2597
 4092TIP3    H133691   0.255   0.818   0.837 -1.4486  1.7954  1.1246
 4092TIP3    H233692   0.216   0.787   0.694  1.4456 -1.7283  1.0310
 4093TIP3   OH233693   4.730   0.763   5.564 -0.2372 -0.2188 -0.8536
 4093TIP3    H133694   4.694   0.831   5.507 -1.5829  0.2970  0.5740
 4093TIP3    H233695   4.811   0.801   5.598  0.0279 -0.1120 -1.5978
 4094TIP3   OH233696   0.322   6.649   2.542 -0.2362 -0.1409 -0.3556
 4094TIP3    H133697   0.316   6.600   2.624 -1.0782 -1.5292 -1.2008
 4094TIP3    H233698   0.414   6.672   2.534 -0.2385  0.4905  1.2378
 4095TIP3   OH233699   3.987   4.716   3.708  0.0125 -0.1850  0.0928
 4095TIP3    H133700   3.920   4.666   3.661 -2.5645  3.3804 -0.2120
 4095TIP3    H233701   3.984   4.681   3.797  0.3400 -2.5226 -0.7719
 4096TIP3   OH233702   2.408   5.418   2.413  0.3277 -0.1402 -0.0405
 4096TIP3    H133703   2.363   5.341   2.447  0.8991 -0.8818 -0.9382
 4096TIP3    H233704   2.477   5.436   2.477 -0.3790  0.1820  0.6370
 4097TIP3   OH233705   5.844   2.023  15.781  0.2078 -0.0044 -0.3882
 4097TIP3    H133706   5.808   1.963  15.716 -0.5922 -0.3888  0.4037
 4097TIP3    H233707   5.904   1.969  15.832 -2.2726 -0.7523  1.8328
 4098TIP3   OH233708   1.657   2.186   1.172 -0.0183 -0.2859 -0.5002
 4098TIP3    H133709   1.616   2.100   1.184 -0.6666  0.1941  0.7558
 4098TIP3    H233710   1.732   2.168   1.115 -0.5520 -1.5681 -0.8322
 4099TIP3   OH233711   5.483   3.802  13.431  0.1709  0.0708 -0.2502
 4099TIP3    H133712   5.484   3.769  13.521  0.4595  0.1081 -0.2368
 4099TIP3    H233713   5.572   3.785  13.399  0.1319  0.2547 -0.4556
 4100TIP3   OH233714   4.550   4.862  15.918  0.1670  0.7657 -0.6675
 4100TIP3    H133715   4.575   4.770  15.907 -1.4921  0.1922  0.1241
 4100TIP3    H233716   4.534   4.894  15.830 -1.4033 -0.3511 -0.8004
 4101TIP3   OH233717   0.134   0.297  12.285 -0.3647  0.0327 -0.4613
 4101TIP3    H133718   0.158   0.278  12.376 -1.8795 -1.7235 -0.4077
 4101TIP3    H233719   0.063   0.236  12.266  1.3098 -1.0478 -3.5232
 4102TIP3   OH233720   4.301   4.625  14.517  0.6401 -0.4737  0.1134
 4102TIP3    H133721   4.330   4.668  14.598  0.1185  0.4449 -0.1778
 4102TIP3    H233722   4.314   4.691  14.449  2.1241 -1.6161 -0.7531
 4103TIP3   OH233723   1.048   2.445   5.683  0.0564  0.0195 -0.0397
 4103TIP3    H133724   1.030   2.468   5.592  2.4297 -1.3876 -0.9258
 4103TIP3    H233725   1.110   2.512   5.713  0.6657 -0.5281 -0.0527
 4104TIP3   OH233726   3.431   2.420  12.203 -0.0821  0.4068 -0.4267
 4104TIP3    H133727   3.389   2.334  12.208  0.3116  0.2404  0.1045
 4104TIP3    H233728   3.387   2.464  12.131  0.0036 -0.4101 -0.9885
 4105TIP3   OH233729   4.630   3.850  14.511 -0.3999 -0.3113 -0.1536
 4105TIP3    H133730   4.713   3.809  14.537 -1.1520 -2.4034 -0.9592
 4105TIP3    H233731   4.569   3.777  14.502 -1.9371  1.0577 -1.0764
 4106TIP3   OH233732   5.489   5.267  15.751  0.0657  0.1090  0.7416
 4106TIP3    H133733   5.489   5.284  15.845 -0.4867  0.7002  0.6402
 4106TIP3    H233734   5.399   5.286  15.723  0.2905  0.1909  0.0499
 4107TIP3   OH233735   4.628   1.416  12.142  0.1293 -0.2904 -0.2244
 4107TIP3    H133736   4.559   1.451  12.085 -0.1942  0.2434  0.4926
 4107TIP3    H233737   4.654   1.334  12.099 -0.8820 -0.4546 -0.5577
 4108TIP3   OH233738   6.577   3.241   4.618  0.3042  0.2181  0.1142
 4108TIP3    H133739   6.603   3.313   4.676  0.0050  1.1533 -0.9028
 4108TIP3    H233740   6.508   3.195   4.667 -0.7729  1.6976  0.0110
 4109TIP3   OH233741   3.520   2.515   2.214  0.2323 -0.7087 -0.1392
 4109TIP3    H133742   3.510   2.474   2.129 -1.7177 -0.1834 -0.1946
 4109TIP3    H233743   3.488   2.604   2.202 -1.0134 -0.9286  1.3734
 4110TIP3   OH233744   1.325   5.413   0.019  0.2208 -0.1616  0.2540
 4110TIP3    H133745   1.319   5.487  -0.041  0.7440 -2.3573 -2.6753
 4110TIP3    H233746   1.417   5.386   0.014  0.3684 -0.1376  2.3986
 4111TIP3   OH233747   4.018   3.783   5.956  0.0098  0.0960  0.2349
 4111TIP3    H133748   4.022   3.718   5.886 -0.4048 -1.2452  1.4250
 4111TIP3    H233749   4.101   3.772   6.003 -1.1739 -1.4260  2.0261
 4112TIP3   OH233750   4.420   1.043  16.503  0.4233  0.3253 -0.3011
 4112TIP3    H133751   4.441   0.951  16.519  1.0284  0.4239 -0.5247
 4112TIP3    H233752   4.395   1.045  16.410 -1.1067  0.1118  0.0932
 4113TIP3   OH233753   1.288   0.945   0.061 -0.1603 -0.3760  0.4650
 4113TIP3    H133754   1.215   0.986   0.107 -1.1244 -1.5075 -0.0310
 4113TIP3    H233755   1.281   0.978  -0.028  1.0179  0.9082  0.8272
 4114TIP3   OH233756   4.449   6.412  13.790 -0.3284 -0.2996 -0.4045
 4114TIP3    H133757   4.458   6.502  13.823 -1.0060 -0.2103 -0.4482
 4114TIP3    H233758   4.467   6.357  13.866  0.7873 -0.1418 -0.5471
 4115TIP3   OH233759   5.228   3.171  12.582 -0.7582 -0.2573  0.1798
 4115TIP3    H133760   5.321   3.193  12.587 -0.5667 -1.0763  0.4399
 4115TIP3    H233761   5.201   3.162  12.674 -1.6369  2.1324  0.1797
 4116TIP3   OH233762   1.725   1.069  17.043 -0.2044  0.5956 -0.2120
 4116TIP3    H133763   1.801   1.020  17.074 -0.7014 -0.3079 -0.4081
 4116TIP3    H233764   1.725   1.150  17.095  1.3465  0.9613 -0.7727
 4117TIP3   OH233765   0.217   4.262   1.240  0.3929  0.0428  0.3513
 4117TIP3    H133766   0.166   4.331   1.197 -0.9376 -1.3632 -0.4088
 4117TIP3    H233767   0.299   4.258   1.190  0.4475  1.0031  0.3481
 4118TIP3   OH233768   3.216   2.257   4.649 -0.4748 -0.0433 -0.4725
 4118TIP3    H133769   3.309   2.241   4.641 -0.2156  0.3643  1.4125
 4118TIP3    H233770   3.209   2.352   4.661 -1.1884  0.0069 -1.2128
 4119TIP3   OH233771   4.151   6.693  13.945 -0.6007  0.0633  0.2410
 4119TIP3    H133772   4.147   6.613  13.998 -2.7304 -0.7119 -1.0344
 4119TIP3    H233773   4.115   6.761  14.003 -1.1083 -0.4063  0.4891
 4120TIP3   OH233774   0.962   3.459  16.061 -0.1199 -0.0221 -0.2632
 4120TIP3    H133775   1.041   3.485  16.108 -0.1951 -0.6971  0.2415
 4120TIP3    H233776   0.892   3.508  16.103  0.1860  1.5449 -1.5418
 4121TIP3   OH233777   3.645   0.865   4.901 -0.6475 -0.0428 -0.2700
 4121TIP3    H133778   3.609   0.910   4.978  0.5433 -1.2102  1.0020
 4121TIP3    H233779   3.637   0.772   4.921  2.3804 -0.3570 -0.2340
 4122TIP3   OH233780   3.420   5.881   3.228  0.6686 -0.4242  0.1979
 4122TIP3    H133781   3.484   5.915   3.290  0.6558 -0.0846  0.0277
 4122TIP3    H233782   3.400   5.793   3.259  0.9229 -0.3835  0.4753
 4123TIP3   OH233783   3.266   5.339  10.471 -0.7114  0.2579 -0.6827
 4123TIP3    H133784   3.317   5.412  10.505 -1.8787  0.0239  1.6819
 4123TIP3    H233785   3.176   5.370  10.473 -1.0241 -0.5781 -1.4464
 4124TIP3   OH233786   0.153   4.163   3.408  0.2388 -0.1803 -0.1074
 4124TIP3    H133787   0.072   4.138   3.362  0.3779  0.8390 -0.9324
 4124TIP3    H233788   0.124   4.224   3.476  0.2849 -0.0051 -0.2450
 4125TIP3   OH233789   5.613   6.422   0.548 -0.3282  0.5122 -0.0102
 4125TIP3    H133790   5.672   6.441   0.621  0.7619 -0.3815 -0.6366
 4125TIP3    H233791   5.656   6.350   0.502 -1.8081 -0.0001 -0.6066
 4126TIP3   OH233792   1.911   4.913   2.458 -0.2147  0.2766  0.2035
 4126TIP3    H133793   1.856   4.984   2.488 -0.0545  0.0946  0.9295
 4126TIP3    H233794   1.964   4.889   2.534  0.5429  0.1506 -0.3557
 4127TIP3   OH233795   6.120   2.368  15.048  0.2629 -0.3066  0.7176
 4127TIP3    H133796   6.163   2.418  14.979  0.6386 -0.2829  0.9660
 4127TIP3    H233797   6.028   2.393  15.043  0.4525  0.4102  0.8407
 4128TIP3   OH233798   2.722   1.905   4.814 -0.0784  0.1610 -0.1708
 4128TIP3    H133799   2.779   1.837   4.850 -1.3316 -0.8120  0.0358
 4128TIP3    H233800   2.678   1.942   4.890  1.8512  2.4386 -0.0889
 4129TIP3   OH233801   0.023   0.785  12.449 -0.0759  0.0783  0.2478
 4129TIP3    H133802   0.064   0.725  12.387 -2.3197 -0.3880 -0.8160
 4129TIP3    H233803  -0.053   0.738  12.483  1.0373  0.3618  3.3470
 4130TIP3   OH233804   2.967   5.681   6.238 -0.0062  0.5078  0.0279
 4130TIP3    H133805   2.977   5.746   6.308  3.0186  0.4453 -0.2945
 4130TIP3    H233806   3.030   5.708   6.172 -0.5959 -1.2638 -1.2740
 4131TIP3   OH233807   6.099   5.148  10.930 -0.3204  0.4139  0.4079
 4131TIP3    H133808   6.051   5.070  10.956 -1.1463  0.8978  0.3650
 4131TIP3    H233809   6.173   5.115  10.879 -1.6545 -0.2480 -1.1395
 4132TIP3   OH233810   0.774   0.098  12.267  1.0642 -0.1816  0.1427
 4132TIP3    H133811   0.746   0.087  12.358 -1.5815 -0.3816 -0.6568
 4132TIP3    H233812   0.783   0.192  12.256 -0.0484 -0.0533  0.2345
 4133TIP3   OH233813   2.765   0.418   5.674 -0.5817  0.1007  0.4953
 4133TIP3    H133814   2.678   0.429   5.713 -0.2016 -0.7290  1.6222
 4133TIP3    H233815   2.796   0.334   5.710 -0.0094 -0.4421 -1.2378
 4134TIP3   OH233816   5.403   6.042   0.543 -0.0758 -0.1446 -0.1595
 4134TIP3    H133817   5.496   6.032   0.564 -0.3465  1.2228  1.9378
 4134TIP3    H233818   5.358   5.990   0.609 -0.8871  1.9647  1.0047
 4135TIP3   OH233819   1.087   4.978  17.122  0.0100  0.0473 -0.2780
 4135TIP3    H133820   1.102   4.889  17.092  0.7092  0.5951 -1.5718
 4135TIP3    H233821   1.150   5.031  17.073 -0.1595  1.2088  0.7314
 4136TIP3   OH233822   2.619   3.443   1.492  0.4451 -0.3103 -0.3200
 4136TIP3    H133823   2.530   3.417   1.517  0.4271 -1.6888 -1.6982
 4136TIP3    H233824   2.661   3.361   1.465  1.8350  0.4651 -0.5898
 4137TIP3   OH233825   3.242   0.824   2.600  0.4134 -0.3053  0.3841
 4137TIP3    H133826   3.242   0.782   2.514 -0.2165  1.4521 -0.5113
 4137TIP3    H233827   3.297   0.768   2.655 -0.1404 -2.0864 -0.8421
 4138TIP3   OH233828   2.757   6.201   3.851 -0.1436 -0.1251  0.0050
 4138TIP3    H133829   2.811   6.126   3.824 -0.2430 -0.2033  0.0240
 4138TIP3    H233830   2.774   6.268   3.784 -1.5193 -0.8345 -1.0839
 4139TIP3   OH233831   4.357   5.398  13.076 -0.6156  0.1783  0.4862
 4139TIP3    H133832   4.365   5.334  13.006 -0.3371  0.6493  0.0856
 4139TIP3    H233833   4.294   5.359  13.137 -0.3692 -0.5202  0.3014
 4140TIP3   OH233834   4.914   5.128   5.005 -0.1082  0.1963 -0.7050
 4140TIP3    H133835   5.004   5.127   4.972  0.6511  0.9503  1.2395
 4140TIP3    H233836   4.900   5.041   5.041  0.1317  0.3302 -0.2869
 4141TIP3   OH233837   2.806   1.176  12.731 -0.1763 -0.4804  0.1342
 4141TIP3    H133838   2.752   1.108  12.691  1.6123 -0.9747 -1.4965
 4141TIP3    H233839   2.860   1.130  12.795 -0.6880 -0.1951  0.7817
 4142TIP3   OH233840   6.105   0.206  15.524  0.3930 -0.3285  0.0824
 4142TIP3    H133841   6.170   0.141  15.498 -1.6226 -1.8254 -1.4503
 4142TIP3    H233842   6.105   0.270  15.453  0.7256  0.0842  0.4533
 4143TIP3   OH233843   4.005   5.525  15.405 -0.2491  0.6537  0.2836
 4143TIP3    H133844   3.936   5.476  15.361  0.7668  0.6291 -1.3053
 4143TIP3    H233845   3.997   5.614  15.371  0.3136  0.7238  0.3334
 4144TIP3   OH233846   5.533   5.369  14.436  0.0363  0.1105  0.1429
 4144TIP3    H133847   5.476   5.309  14.484  0.3427  0.1463  0.5561
 4144TIP3    H233848   5.549   5.325  14.352 -0.0940 -0.1876  0.2733
 4145TIP3   OH233849   3.226   4.216  16.983  0.6834 -0.4665  0.0728
 4145TIP3    H133850   3.160   4.279  16.953  1.3284 -0.2021 -0.8191
 4145TIP3    H233851   3.199   4.193  17.072 -1.5137 -1.5619 -0.8114
 4146TIP3   OH233852   0.211   6.405  12.717  0.2242  0.0932  0.3019
 4146TIP3    H133853   0.133   6.413  12.772 -0.3556  2.2954 -0.7869
 4146TIP3    H233854   0.274   6.465  12.757  0.7614 -0.3934  0.1851
 4147TIP3   OH233855   6.548   6.594  11.732  0.6171  0.5357  0.5943
 4147TIP3    H133856   6.607   6.580  11.806  0.5664 -2.1956  0.1827
 4147TIP3    H233857   6.475   6.534  11.747  1.2858 -1.1096 -2.3048
 4148TIP3   OH233858   5.940   2.109   3.729 -0.0977  0.1416 -0.3985
 4148TIP3    H133859   5.932   2.032   3.673 -0.2549 -0.1674  0.0449
 4148TIP3    H233860   6.029   2.103   3.765 -0.0767  0.2129 -0.4400
 4149TIP3   OH233861   4.242   5.031  16.692 -0.4814 -0.1313 -0.0707
 4149TIP3    H133862   4.323   5.013  16.645 -0.9085 -0.7815 -0.5707
 4149TIP3    H233863   4.271   5.056  16.780  0.2740  0.0371 -0.3606
 4150TIP3   OH233864   4.571   2.484  13.724  0.2033 -0.1807 -0.2039
 4150TIP3    H133865   4.505   2.420  13.696  0.3989 -1.4865  2.1560
 4150TIP3    H233866   4.545   2.508  13.813  2.3386  0.0669  0.3809
 4151TIP3   OH233867   2.526   2.465   2.650  0.7588  0.0707  0.2543
 4151TIP3    H133868   2.509   2.559   2.647  2.1800  0.3269 -0.3940
 4151TIP3    H233869   2.615   2.456   2.614 -0.3346 -1.7650 -2.1776
 4152TIP3   OH233870   2.721   3.139  13.422  0.1851  0.4361 -0.1495
 4152TIP3    H133871   2.727   3.219  13.369  0.1299  0.8488  0.4515
 4152TIP3    H233872   2.634   3.104  13.402 -0.0466  0.8749  0.0575
 4153TIP3   OH233873   1.252   0.267  11.927 -0.0886  0.1514 -0.7392
 4153TIP3    H133874   1.342   0.238  11.914 -0.2257 -0.0758 -1.1976
 4153TIP3    H233875   1.238   0.333  11.859 -0.7183 -0.8381 -1.5908
 4154TIP3   OH233876   6.664   2.340   2.362  0.5719 -0.1661  0.1722
 4154TIP3    H133877   6.582   2.292   2.374  0.5644 -0.7732 -2.1653
 4154TIP3    H233878   6.727   2.291   2.414  0.6654 -3.0551 -2.4922
 4155TIP3   OH233879   1.663   1.425  13.983 -0.2683 -0.1078  0.9444
 4155TIP3    H133880   1.704   1.502  13.944  0.2124 -0.2230  1.2069
 4155TIP3    H233881   1.590   1.460  14.034  0.6381  0.3066  1.9994
 4156TIP3   OH233882   3.833   4.778  11.048  0.3560  0.2259  0.7182
 4156TIP3    H133883   3.843   4.768  10.953 -2.6523 -2.0943  0.5591
 4156TIP3    H233884   3.742   4.755  11.065  0.4072  2.1200  4.0251
 4157TIP3   OH233885   0.218   0.137   5.906 -0.0930  0.2638  0.2263
 4157TIP3    H133886   0.216   0.232   5.897 -0.0098  0.2698  0.2648
 4157TIP3    H233887   0.174   0.120   5.989 -0.3907  0.2459  0.0637
 4158TIP3   OH233888   4.327   3.619  11.413  0.5707  0.1189  0.1603
 4158TIP3    H133889   4.262   3.550  11.431 -0.2164  0.4456 -1.3373
 4158TIP3    H233890   4.391   3.576  11.357  1.0992  0.0860  0.7874
 4159TIP3   OH233891   3.436   1.295  13.992 -0.4799  0.0012  0.4711
 4159TIP3    H133892   3.466   1.381  14.022  1.8462 -0.8783  0.7966
 4159TIP3    H233893   3.387   1.313  13.912 -0.4176  1.6819  0.7915
 4160TIP3   OH233894   5.149   6.478   4.775  0.0202 -0.3002  0.0813
 4160TIP3    H133895   5.157   6.403   4.715  0.2920 -0.5739  0.4605
 4160TIP3    H233896   5.071   6.459   4.827  0.8209 -0.9530  1.0627
 4161TIP3   OH233897   1.623   3.919   4.772  0.3308 -0.3126  0.0123
 4161TIP3    H133898   1.561   3.885   4.837 -1.2524  3.1262  0.4054
 4161TIP3    H233899   1.702   3.939   4.823  0.8090 -2.0975 -0.0002
 4162TIP3   OH233900   3.134   2.125  16.854  0.1223  0.1379 -0.2317
 4162TIP3    H133901   3.151   2.082  16.938 -0.1554  0.9900  0.2634
 4162TIP3    H233902   3.090   2.207  16.877 -2.0938 -0.7029 -1.3282
 4163TIP3   OH233903   3.926   4.458   1.163  0.3666  0.3147 -0.3678
 4163TIP3    H133904   3.898   4.375   1.125 -3.2970  0.4815  1.7662
 4163TIP3    H233905   3.892   4.524   1.103 -0.9458  0.4072  0.4649
 4164TIP3   OH233906   4.516   4.050   1.361 -0.1902  0.4467  0.3118
 4164TIP3    H133907   4.422   4.063   1.373 -0.4559  0.9102 -2.1009
 4164TIP3    H233908   4.535   4.086   1.275  1.5401 -2.9789 -0.8370
 4165TIP3   OH233909   0.885   2.075  16.712  0.8272 -0.7141 -0.1287
 4165TIP3    H133910   0.862   2.033  16.794 -1.1710  1.1488  0.3171
 4165TIP3    H233911   0.844   2.162  16.717 -0.1378 -0.8925 -3.4493
 4166TIP3   OH233912   1.924   1.839  15.736 -0.5800 -0.5284  0.6359
 4166TIP3    H133913   1.917   1.810  15.827 -1.2771  2.1670  1.4913
 4166TIP3    H233914   1.947   1.932  15.742 -0.4640 -0.3561 -1.9332
 4167TIP3   OH233915   1.243   4.486   1.115  0.3417 -0.1949 -0.4680
 4167TIP3    H133916   1.180   4.455   1.179  1.4367 -0.8220  0.3199
 4167TIP3    H233917   1.250   4.580   1.132 -0.7840 -0.0159 -0.9323
 4168TIP3   OH233918   3.908   1.201  13.318  0.2885 -0.4210  0.0779
 4168TIP3    H133919   3.879   1.133  13.256  3.5258 -0.5747 -1.3711
 4168TIP3    H233920   3.954   1.152  13.386  0.3193  0.1102  0.4359
 4169TIP3   OH233921   4.065   6.372  11.418  0.8555  0.6388  0.0630
 4169TIP3    H133922   4.006   6.436  11.456  0.7819 -0.4152  1.7523
 4169TIP3    H233923   4.153   6.406  11.436  0.8145  1.6522 -1.4998
 4170TIP3   OH233924   4.196   2.040   1.865 -0.1996 -0.0333 -0.1393
 4170TIP3    H133925   4.244   2.067   1.943  1.0765 -2.1070 -0.1404
 4170TIP3    H233926   4.109   2.015   1.897 -0.5658  1.6788  0.2049
 4171TIP3   OH233927   6.652   6.479   5.622  0.2371 -0.0814 -0.2528
 4171TIP3    H133928   6.637   6.574   5.622 -0.7435 -0.2201  0.8104
 4171TIP3    H233929   6.680   6.459   5.711 -0.7192 -0.9492 -0.1388
 4172TIP3   OH233930   1.292   3.125   4.812 -0.0827 -0.2999 -0.6488
 4172TIP3    H133931   1.245   3.171   4.743  0.2397  0.6691 -0.2240
 4172TIP3    H233932   1.355   3.189   4.845 -1.9842  0.1015  2.3364
 4173TIP3   OH233933   6.146   2.679   5.937 -0.6255  0.6301  0.2372
 4173TIP3    H133934   6.155   2.758   5.991 -1.4570  1.4356 -0.7848
 4173TIP3    H233935   6.193   2.611   5.986  0.0110  1.7302  1.1813
 4174TIP3   OH233936   0.345   6.615  10.556 -0.1223 -0.3620 -0.1778
 4174TIP3    H133937   0.432   6.654  10.554 -0.4608  0.6060  2.3772
 4174TIP3    H233938   0.293   6.669  10.496  0.6250  0.0553 -0.4491
 4175TIP3   OH233939   2.894   3.138   5.061 -0.1590 -0.1562 -0.6052
 4175TIP3    H133940   2.843   3.110   4.985  1.2961  1.6680 -2.3339
 4175TIP3    H233941   2.899   3.234   5.052 -0.2397  0.1344  1.9939
 4176TIP3   OH233942   5.462   2.616   0.221  0.0358 -0.2186  0.2201
 4176TIP3    H133943   5.468   2.687   0.285 -0.3440 -0.1936  0.2247
 4176TIP3    H233944   5.415   2.654   0.147 -1.8945 -1.0393  1.0070
 4177TIP3   OH233945   0.491   4.770  11.725 -0.5270 -0.5183  0.4835
 4177TIP3    H133946   0.442   4.793  11.646  0.8135  0.2363 -0.1389
 4177TIP3    H233947   0.424   4.751  11.790 -1.6521  1.2415 -0.1283
 4178TIP3   OH233948   5.491   1.371  11.754 -0.1034 -0.2602  0.1557
 4178TIP3    H133949   5.465   1.420  11.677  0.6065  0.7752  0.5612
 4178TIP3    H233950   5.502   1.281  11.723  0.6244  0.2334 -1.0506
 4179TIP3   OH233951   0.780   2.449  12.991  0.0721 -0.4711 -0.9741
 4179TIP3    H133952   0.697   2.477  13.030  0.6506  2.8076 -1.9442
 4179TIP3    H233953   0.756   2.377  12.932 -1.5597 -1.7923  1.2054
 4180TIP3   OH233954   6.095   1.084   1.417  0.5343  0.0095 -0.2004
 4180TIP3    H133955   6.132   1.087   1.505 -1.4214  0.2768  0.6401
 4180TIP3    H233956   6.047   1.001   1.414 -2.1775  1.5128  0.1693
 4181TIP3   OH233957   6.316   3.839   5.728  0.2327 -0.3561  0.4423
 4181TIP3    H133958   6.290   3.759   5.682  1.1694 -0.7100  0.5120
 4181TIP3    H233959   6.249   3.851   5.795  0.8140 -1.8373  1.3028
 4182TIP3   OH233960   1.765   3.284   6.491  0.1529 -0.6983  0.4892
 4182TIP3    H133961   1.763   3.369   6.534  0.0803 -0.4965  0.0964
 4182TIP3    H233962   1.857   3.272   6.467 -0.2278  0.4511 -1.7329
 4183TIP3   OH233963   3.390   3.986  15.071 -0.1506  0.0284  0.5715
 4183TIP3    H133964   3.460   3.922  15.081 -1.6635 -1.6898  0.4955
 4183TIP3    H233965   3.339   3.955  14.996 -1.6911  0.5464  1.3725
 4184TIP3   OH233966   3.627   6.767  11.066 -0.3693  0.0000  0.2029
 4184TIP3    H133967   3.659   6.848  11.025  0.2356  0.3987  1.4433
 4184TIP3    H233968   3.705   6.727  11.104 -0.9663 -0.2401  1.1903
 4185TIP3   OH233969   2.150   5.520  15.605  0.3947  0.1071  0.6687
 4185TIP3    H133970   2.175   5.612  15.611  0.9162 -0.0463  0.8949
 4185TIP3    H233971   2.228   5.477  15.570 -0.6414  0.1034 -1.7186
 4186TIP3   OH233972   4.726   5.045   0.641  0.7729 -0.2396 -0.5195
 4186TIP3    H133973   4.786   4.983   0.599  2.5783  1.4394 -0.4886
 4186TIP3    H233974   4.745   5.037   0.735 -0.6041 -1.2408 -0.2948
 4187TIP3   OH233975   6.174   6.605   2.264 -0.5038 -0.0947  0.2253
 4187TIP3    H133976   6.172   6.600   2.360  1.6379  1.0246  0.3516
 4187TIP3    H233977   6.196   6.517   2.236  1.7128  0.2105  0.9107
 4188TIP3   OH233978   4.913   5.097   1.051  0.1186  0.2713 -0.5067
 4188TIP3    H133979   4.867   5.098   1.135  0.6016 -1.8382 -0.1862
 4188TIP3    H233980   4.846   5.121   0.987 -0.9458 -0.8135  0.1814
 4189TIP3   OH233981   6.456   5.096   0.680 -0.7904  0.4696  0.2285
 4189TIP3    H133982   6.545   5.118   0.707 -0.1606  0.4899 -1.7768
 4189TIP3    H233983   6.450   5.001   0.694 -0.0287  0.2624 -0.7555
 4190TIP3   OH233984   6.461   4.970   6.090 -0.2110  0.3343 -0.1819
 4190TIP3    H133985   6.471   5.032   6.163  0.1293 -0.0829  0.1300
 4190TIP3    H233986   6.491   5.019   6.013  1.3268  0.1264  0.2712
 4191TIP3   OH233987   1.524   1.954   1.158  0.2671 -0.2023  0.2591
 4191TIP3    H133988   1.449   1.924   1.107  2.0964 -2.4775 -1.2458
 4191TIP3    H233989   1.516   1.908   1.242 -0.0406 -0.3961  0.1240
 4192TIP3   OH233990   2.820   2.417  16.263 -0.4211 -0.3792  0.2584
 4192TIP3    H133991   2.852   2.505  16.243  1.2745 -1.5390 -2.4003
 4192TIP3    H233992   2.729   2.430  16.289  0.4156  2.3665  2.0743
 4193TIP3   OH233993   0.541   3.176   4.499  0.2579  0.4170 -0.2506
 4193TIP3    H133994   0.608   3.117   4.464 -0.8977 -1.0206 -0.0874
 4193TIP3    H233995   0.579   3.263   4.492  2.3446 -0.4274  0.2842
 4194TIP3   OH233996   1.836   4.256   1.694 -0.2698 -0.1769 -0.1387
 4194TIP3    H133997   1.901   4.244   1.764 -1.3296 -0.1367  0.8788
 4194TIP3    H233998   1.883   4.236   1.614  0.3395 -2.6359  0.7903
 4195TIP3   OH233999   5.183   3.648   6.414  0.1914 -0.0376 -0.2458
 4195TIP3    H134000   5.102   3.625   6.368 -0.0010  0.6860 -0.2646
 4195TIP3    H234001   5.165   3.732   6.454  0.9926  0.2064 -0.3913
 4196TIP3   OH234002   6.028   3.169  15.560  0.1737 -0.2548  0.4598
 4196TIP3    H134003   5.984   3.188  15.477 -1.4500  0.1649  1.4011
 4196TIP3    H234004   6.047   3.254  15.598  1.2110 -0.4429  0.3820
 4197TIP3   OH234005   1.493   2.771   0.471 -0.3702  0.2696 -0.0358
 4197TIP3    H134006   1.565   2.829   0.494 -0.5116  0.1792  0.6260
 4197TIP3    H234007   1.430   2.828   0.427  0.2970  0.2600 -1.0107
 4198TIP3   OH234008   3.132   3.623  12.443 -0.4379 -0.0513 -0.6648
 4198TIP3    H134009   3.103   3.646  12.532  0.2489  1.4279 -0.8036
 4198TIP3    H234010   3.213   3.672  12.432 -0.5385 -0.2175 -2.1218
 4199TIP3   OH234011   1.663   4.059   1.825  0.0326 -0.4699  0.3797
 4199TIP3    H134012   1.604   4.126   1.859 -1.6133 -2.3111  1.1945
 4199TIP3    H234013   1.707   4.101   1.751 -2.4720  0.8359 -0.4054
 4200TIP3   OH234014   1.732   2.996  13.864  0.0499 -0.4596 -0.6549
 4200TIP3    H134015   1.769   2.992  13.952 -0.5603 -1.4132 -0.4305
 4200TIP3    H234016   1.804   3.024  13.808  0.4290  0.1852  0.1558
 4201TIP3   OH234017   6.194   0.547   0.367 -0.3875  0.4963 -0.7748
 4201TIP3    H134018   6.223   0.501   0.288  0.8835 -1.6074  0.8485
 4201TIP3    H234019   6.275   0.576   0.409 -0.9901  0.6108  0.3353
 4202TIP3   OH234020   4.200   1.695   0.381  0.3151 -0.6991  0.3005
 4202TIP3    H134021   4.254   1.616   0.376  0.1984 -0.7973  0.6093
 4202TIP3    H234022   4.181   1.705   0.474  1.3510  0.3797  0.4030
 4203TIP3   OH234023   3.335   6.270   2.782 -0.2568  0.1993 -0.5463
 4203TIP3    H134024   3.389   6.191   2.780  0.9875  1.0554 -1.5611
 4203TIP3    H234025   3.329   6.297   2.691 -1.1632  0.9427 -0.2685
 4204TIP3   OH234026   1.808   6.669  12.231 -0.3701 -0.6290 -0.6705
 4204TIP3    H134027   1.747   6.740  12.209 -0.2848 -0.2557  0.2692
 4204TIP3    H234028   1.888   6.714  12.257  0.1931 -1.1127 -1.5694
 4205TIP3   OH234029   4.000   2.558  15.726 -0.2132  0.5148 -0.2868
 4205TIP3    H134030   4.037   2.486  15.674 -0.0582 -0.1490  0.7462
 4205TIP3    H234031   3.909   2.564  15.698 -1.0699 -2.1068  1.8449
 4206TIP3   OH234032   4.663   3.657  10.715  0.3785  0.2926 -0.0506
 4206TIP3    H134033   4.717   3.578  10.715  1.2425  0.8679 -0.9025
 4206TIP3    H234034   4.724   3.728  10.739 -0.0037  0.9305 -0.9107
 4207TIP3   OH234035   2.989   6.430  13.539  0.0326 -0.0426 -0.0109
 4207TIP3    H134036   2.972   6.352  13.593 -0.4009  0.2370  0.2545
 4207TIP3    H234037   3.070   6.466  13.575 -0.7869  0.7229  1.1308
 4208TIP3   OH234038   2.805   4.855  12.033  0.4891  0.3376  0.2360
 4208TIP3    H134039   2.861   4.793  12.079  0.9716 -0.5408 -1.5343
 4208TIP3    H234040   2.731   4.803  12.003  2.2472 -0.0077 -3.6921
 4209TIP3   OH234041   6.359   0.068  14.980 -0.0881  0.0257  0.5011
 4209TIP3    H134042   6.370   0.162  14.971  0.6764  0.0169  1.2229
 4209TIP3    H234043   6.336   0.055  15.072  0.4381 -0.5352  0.5604
 4210TIP3   OH234044   2.895   0.356  13.016 -0.2973 -0.5468  0.1082
 4210TIP3    H134045   2.905   0.404  13.098 -1.0227  0.6632 -0.4888
 4210TIP3    H234046   2.962   0.288  13.018  0.0736 -0.1385  1.4298
 4211TIP3   OH234047   4.865   1.578   1.214 -0.2015 -0.1577 -0.0736
 4211TIP3    H134048   4.851   1.597   1.307  0.6723  1.3843 -0.2545
 4211TIP3    H234049   4.875   1.663   1.173  2.2247 -0.9212 -1.1422
 4212TIP3   OH234050   2.954   0.333  16.621  0.0315  0.1015  0.3590
 4212TIP3    H134051   2.980   0.354  16.710 -0.4464 -0.4544  0.6320
 4212TIP3    H234052   2.943   0.418  16.578  3.2810  0.3833 -0.0624
 4213TIP3   OH234053   0.617   4.452  13.697  0.1743 -0.0351 -0.6785
 4213TIP3    H134054   0.643   4.362  13.721  0.7606  0.0784 -0.8744
 4213TIP3    H234055   0.630   4.456  13.603 -0.5495  0.0365 -0.7765
 4214TIP3   OH234056   2.476   1.922  11.210  0.6188  0.3433 -0.6159
 4214TIP3    H134057   2.489   1.883  11.123 -0.2570 -1.2435 -0.0412
 4214TIP3    H234058   2.486   1.849  11.271 -0.5669  1.1158  0.5115
 4215TIP3   OH234059   3.741   1.074  10.787  0.1464 -0.2009  0.2922
 4215TIP3    H134060   3.660   1.025  10.770 -0.1125  0.3028  0.0470
 4215TIP3    H234061   3.799   1.011  10.830  1.4799 -2.0435 -4.0089
 4216TIP3   OH234062   2.849   0.551   3.891  0.4937 -0.0303 -0.4832
 4216TIP3    H134063   2.921   0.509   3.845 -0.2348 -1.3917 -0.3915
 4216TIP3    H234064   2.787   0.481   3.908 -1.2253  1.2695 -1.2619
 4217TIP3   OH234065   0.240   4.804  16.970 -0.3034  0.0498 -0.1600
 4217TIP3    H134066   0.289   4.747  17.029 -0.3255  0.8844  0.6696
 4217TIP3    H234067   0.304   4.830  16.904  0.1823  0.5323  0.4985
 4218TIP3   OH234068   1.829   0.069   5.267 -0.1147 -0.8687 -0.4206
 4218TIP3    H134069   1.771   0.088   5.193 -0.4328 -0.2474 -0.0175
 4218TIP3    H234070   1.903   0.129   5.255 -1.7134  1.6270  1.5473
 4219TIP3   OH234071   1.268   5.416  12.502  0.0054 -0.1132  0.1664
 4219TIP3    H134072   1.280   5.510  12.489  0.0609 -0.1609 -0.1542
 4219TIP3    H234073   1.297   5.377  12.419 -1.2639 -0.3190 -0.1992
 4220TIP3   OH234074   3.880   1.023  15.901  0.0259 -0.1500  0.0714
 4220TIP3    H134075   3.821   1.067  15.841  0.0547  0.3588  0.4122
 4220TIP3    H234076   3.924   1.094  15.948 -0.0070 -0.5400  0.7010
 4221TIP3   OH234077   1.717   6.738  13.011 -0.0115  0.0531 -0.1331
 4221TIP3    H134078   1.703   6.644  13.003 -3.1932  0.2931  1.8475
 4221TIP3    H234079   1.706   6.771  12.922  0.5057 -1.3410 -0.7331
 4222TIP3   OH234080   4.446   3.741   0.629 -0.7199  0.0356  0.2561
 4222TIP3    H134081   4.356   3.773   0.632 -0.8801  0.0403 -2.6856
 4222TIP3    H234082   4.491   3.802   0.569  1.9766  1.7060  3.8127
 4223TIP3   OH234083   6.780   0.356  14.910 -0.4515  0.4986 -0.2463
 4223TIP3    H134084   6.685   0.361  14.898 -0.2958  2.1245 -1.0258
 4223TIP3    H234085   6.794   0.364  15.004 -1.0316  1.5375 -0.2439
 4224TIP3   OH234086   2.478   5.429   4.722 -0.0372 -0.0787 -0.2682
 4224TIP3    H134087   2.550   5.366   4.724  0.2132  0.1859 -0.9608
 4224TIP3    H234088   2.400   5.375   4.709  0.0956 -0.3088 -0.1191
 4225TIP3   OH234089   1.979   0.037   3.213  0.4678  0.0265  0.0733
 4225TIP3    H134090   2.006  -0.022   3.284  0.1685 -0.7665 -0.4659
 4225TIP3    H234091   2.061   0.070   3.177  0.6520 -0.4505  0.0485
 4226TIP3   OH234092   2.741   6.072  11.814 -0.4864  0.0320 -0.0519
 4226TIP3    H134093   2.704   6.012  11.878 -1.8882 -0.6768 -1.4937
 4226TIP3    H234094   2.826   6.035  11.792  1.0905  1.5588  3.1345
 4227TIP3   OH234095   3.101   0.965   4.069 -0.1315 -0.2907  0.3480
 4227TIP3    H134096   3.140   1.050   4.052 -0.3210 -0.6671 -2.2115
 4227TIP3    H234097   3.100   0.957   4.164  1.6684  1.7211  0.5678
 4228TIP3   OH234098   5.840   4.670   2.275  0.3986  0.2471 -0.6242
 4228TIP3    H134099   5.882   4.746   2.316  1.2600 -1.4984  1.8592
 4228TIP3    H234100   5.755   4.663   2.318  0.9840 -1.1343  0.3356
 4229TIP3   OH234101   4.071   3.897   2.287 -0.3738  0.4676  0.6374
 4229TIP3    H134102   4.145   3.837   2.289  0.6837  1.6501 -1.1121
 4229TIP3    H234103   3.995   3.842   2.269  0.6004 -0.3429 -1.1162
 4230TIP3   OH234104   5.078   1.334   4.394 -0.1604  0.4051  0.3169
 4230TIP3    H134105   5.053   1.322   4.486  0.1339 -0.0647  0.3393
 4230TIP3    H234106   5.165   1.294   4.388  1.7591  4.2593  0.8164
 4231TIP3   OH234107   5.943   0.618  10.744  0.0538  0.1913  0.0885
 4231TIP3    H134108   6.012   0.553  10.732 -0.6957 -0.5407 -0.3197
 4231TIP3    H234109   5.983   0.701  10.719  1.0370 -0.1040  0.6665
 4232TIP3   OH234110   0.250   5.888  11.353 -0.0792  0.3183 -0.2854
 4232TIP3    H134111   0.191   5.833  11.302  0.0932 -1.5165  1.4039
 4232TIP3    H234112   0.327   5.900  11.297 -0.7193  0.0445 -1.2324
 4233TIP3   OH234113   1.334   0.475  13.470 -0.4346 -0.0718 -0.0607
 4233TIP3    H134114   1.378   0.498  13.388 -1.2920 -0.6248 -0.6944
 4233TIP3    H234115   1.404   0.448  13.528  0.1966  0.4333 -0.5830
 4234TIP3   OH234116   5.290   0.772   5.178  0.1653  0.5184  0.6899
 4234TIP3    H134117   5.271   0.729   5.262  1.9199 -1.1089  0.2800
 4234TIP3    H234118   5.247   0.717   5.113 -4.2080  3.6655  0.6892
 4235TIP3   OH234119   6.033   6.462   4.367  0.3831  0.1017  0.0171
 4235TIP3    H134120   5.947   6.425   4.386  0.4753  0.4118  1.0372
 4235TIP3    H234121   6.073   6.399   4.307 -0.2342 -0.4575  0.1893
 4236TIP3   OH234122   1.942   3.132  16.763 -0.5991  0.0982  0.1240
 4236TIP3    H134123   1.875   3.184  16.807 -1.1562 -1.0296  0.6262
 4236TIP3    H234124   1.898   3.050  16.741  1.1521 -1.4299  2.2020
 4237TIP3   OH234125   2.703   4.080  14.167  0.1076  0.0160 -0.2146
 4237TIP3    H134126   2.615   4.100  14.201  0.0780  0.0969 -0.3372
 4237TIP3    H234127   2.760   4.143  14.210  0.0914  0.0264 -0.2095
 4238TIP3   OH234128   3.379   6.297  13.913 -0.3661  0.2273 -0.1381
 4238TIP3    H134129   3.313   6.315  13.980  1.2148 -0.6784  1.7369
 4238TIP3    H234130   3.462   6.323  13.954  0.5907  0.0035 -1.8919
 4239TIP3   OH234131   1.159   5.426   5.819 -0.0521  0.1843  0.5137
 4239TIP3    H134132   1.231   5.408   5.878  1.7710 -0.0982 -1.7280
 4239TIP3    H234133   1.196   5.484   5.752 -1.9594  0.2486 -0.5458
 4240TIP3   OH234134   4.460   4.549  11.322  0.3141  0.1276 -0.1232
 4240TIP3    H134135   4.401   4.602  11.376  1.1821  0.7456  0.2236
 4240TIP3    H234136   4.467   4.597  11.240  0.0006 -0.1695 -0.3287
 4241TIP3   OH234137   3.171   6.481  10.320  0.3973 -0.6998 -0.1605
 4241TIP3    H134138   3.084   6.477  10.360  0.7098 -0.5155  0.5525
 4241TIP3    H234139   3.158   6.532  10.240  0.0446  0.2754  0.5018
 4242TIP3   OH234140   5.989   2.556   1.606 -0.7513  0.1206  0.0596
 4242TIP3    H134141   6.019   2.617   1.538 -1.9084  0.2948 -0.3044
 4242TIP3    H234142   6.064   2.547   1.665  0.0071  0.5622 -0.8251
 4243TIP3   OH234143   1.334   3.030  13.601 -0.1916  0.3351  1.1971
 4243TIP3    H134144   1.383   2.949  13.612 -0.4666  0.2840  2.0860
 4243TIP3    H234145   1.277   3.034  13.677 -0.4350  1.1879  0.9753
 4244TIP3   OH234146   0.470   3.643   3.100  0.2590 -0.1614 -0.2460
 4244TIP3    H134147   0.518   3.726   3.095 -1.9434  1.2269  0.7713
 4244TIP3    H234148   0.378   3.668   3.086 -0.5077 -2.3335  0.7520
 4245TIP3   OH234149   1.764   2.280   2.729 -0.1890  0.3942 -0.1519
 4245TIP3    H134150   1.858   2.269   2.716 -0.4894 -2.2345 -0.4825
 4245TIP3    H234151   1.752   2.271   2.823 -0.3686 -2.1276 -0.3650
 4246TIP3   OH234152   2.821   6.689   2.307 -0.3014  0.3672 -0.0153
 4246TIP3    H134153   2.771   6.611   2.330 -0.6914  0.1589 -1.5146
 4246TIP3    H234154   2.899   6.656   2.263  0.6156  0.7460  1.2694
 4247TIP3   OH234155   5.488   5.436  11.107 -0.0227 -0.4987 -0.4105
 4247TIP3    H134156   5.514   5.353  11.069  0.5990 -0.9755  1.0365
 4247TIP3    H234157   5.559   5.496  11.084 -0.4875 -0.3443 -1.4830
 4248TIP3   OH234158   1.176   0.358   5.363 -0.3019 -0.2047  0.1899
 4248TIP3    H134159   1.159   0.400   5.447 -0.2897  0.9373 -0.3643
 4248TIP3    H234160   1.267   0.379   5.343  0.1177 -1.6154  0.5128
 4249TIP3   OH234161   3.412   5.668  17.159 -0.4123  0.2191  0.1402
 4249TIP3    H134162   3.363   5.734  17.209 -2.4943 -1.2013  0.0329
 4249TIP3    H234163   3.363   5.659  17.077  2.0750  1.3725 -1.5269
 4250TIP3   OH234164   6.153   4.060  11.374  0.2200 -0.4658 -0.0529
 4250TIP3    H134165   6.212   4.020  11.438 -2.4378  1.4397  3.7551
 4250TIP3    H234166   6.194   4.144  11.352  0.9667 -0.9823 -0.7075
 4251TIP3   OH234167   5.542   6.478   5.901  0.3161  0.4597 -0.1983
 4251TIP3    H134168   5.629   6.440   5.892  0.6764  1.0820  0.5989
 4251TIP3    H234169   5.545   6.526   5.984 -0.8617  0.2681 -0.0303
 4252TIP3   OH234170   4.060   4.583   1.694  0.4341  0.0503 -0.2138
 4252TIP3    H134171   4.012   4.642   1.753 -0.7324 -2.1813  1.1407
 4252TIP3    H234172   4.138   4.559   1.743 -0.0380 -1.0119  0.0298
 4253TIP3   OH234173   5.981   4.612   3.641  0.1825 -0.6572 -0.5000
 4253TIP3    H134174   5.912   4.577   3.697  0.7808  1.3568  1.5715
 4253TIP3    H234175   5.976   4.707   3.653  2.3337 -0.3941 -1.4559
 4254TIP3   OH234176   3.858   4.772  14.221 -0.3739 -0.2198  0.1998
 4254TIP3    H134177   3.916   4.708  14.263  0.1320  0.8317  1.1443
 4254TIP3    H234178   3.854   4.845  14.283 -0.2988  1.0064 -1.2031
 4255TIP3   OH234179   1.463   6.077  10.747  0.0828  0.0948 -0.2677
 4255TIP3    H134180   1.432   6.124  10.670 -3.0693 -0.1623  0.7708
 4255TIP3    H234181   1.537   6.128  10.778 -1.1275  2.4691 -1.1467
 4256TIP3   OH234182   1.486   5.247   3.607  0.4538  0.1309  0.3603
 4256TIP3    H134183   1.435   5.176   3.568 -0.0903  0.4833  0.4241
 4256TIP3    H234184   1.433   5.325   3.592  0.8898  0.4703  0.5919
 4257TIP3   OH234185   4.686   3.411   2.622 -0.0796 -0.2481  0.5594
 4257TIP3    H134186   4.636   3.463   2.686 -3.2343 -3.4348  0.8239
 4257TIP3    H234187   4.774   3.407   2.659 -0.8385  1.2932  2.7022
 4258TIP3   OH234188   3.403   6.444  17.014 -0.0175 -0.2898  0.0464
 4258TIP3    H134189   3.351   6.377  17.059  0.1812 -0.1234  0.5185
 4258TIP3    H234190   3.361   6.452  16.929  0.0307 -1.1110 -0.0668
 4259TIP3   OH234191   1.623   5.287  11.947  0.7468 -0.1921 -0.0893
 4259TIP3    H134192   1.622   5.232  11.869  1.2053 -1.2341  0.6086
 4259TIP3    H234193   1.571   5.363  11.925 -2.3283 -2.2337 -0.1708
 4260TIP3   OH234194   4.852   6.490   4.209  0.1749 -0.4233  0.7092
 4260TIP3    H134195   4.902   6.520   4.133  0.4179 -0.7136  0.7495
 4260TIP3    H234196   4.841   6.568   4.263  0.4636 -0.3263  0.6298
 4261TIP3   OH234197   0.786   6.748   5.141  0.4279 -0.4018 -0.5344
 4261TIP3    H134198   0.878   6.721   5.142  0.4405 -0.3703 -0.7613
 4261TIP3    H234199   0.788   6.836   5.102  0.3153 -0.3546 -0.4325
 4262TIP3   OH234200   3.936   6.692  14.781  0.1707  0.2524 -0.3988
 4262TIP3    H134201   4.013   6.737  14.746  1.4039 -2.2758 -1.0387
 4262TIP3    H234202   3.922   6.619  14.721 -0.1832 -1.7830  2.0880
 4263TIP3   OH234203   5.432   1.102   1.334  0.2340  0.8429 -0.0238
 4263TIP3    H134204   5.392   1.104   1.421 -1.6934  0.0547 -0.8456
 4263TIP3    H234205   5.526   1.104   1.350 -0.1123  1.7954  2.0327
 4264TIP3   OH234206   1.263   5.512   0.858  0.3658 -0.3891 -0.0337
 4264TIP3    H134207   1.214   5.430   0.845 -1.1983  0.6988 -1.2102
 4264TIP3    H234208   1.315   5.521   0.779  1.5244 -0.8805  0.6584
 4265TIP3   OH234209   3.679   0.870  12.462  0.0286 -0.1132  0.0080
 4265TIP3    H134210   3.736   0.805  12.502 -0.0308  1.5794  2.9830
 4265TIP3    H234211   3.603   0.876  12.521 -0.1310  2.3613 -0.3636
 4266TIP3   OH234212   1.930   4.033   4.273 -0.4740 -0.4869  0.4147
 4266TIP3    H134213   1.836   4.015   4.275 -0.2479 -1.8390 -0.7382
 4266TIP3    H234214   1.945   4.077   4.189 -0.3776  1.5672  1.4713
 4267TIP3   OH234215   1.947   4.032   4.722 -0.3385  0.6529  0.0285
 4267TIP3    H134216   1.987   4.118   4.726  1.8048 -0.2543 -1.2856
 4267TIP3    H234217   1.979   3.993   4.640 -2.4184 -0.8328 -0.1362
 4268TIP3   OH234218   5.049   2.692  16.110 -0.3241 -0.3922  0.5043
 4268TIP3    H134219   4.960   2.665  16.132 -1.0289 -0.0102 -1.7982
 4268TIP3    H234220   5.072   2.756  16.178 -1.3668 -1.3041  1.7482
 4269TIP3   OH234221   4.727   2.669   3.257  0.2314 -0.1596  0.4734
 4269TIP3    H134222   4.762   2.757   3.269 -1.1361  0.1996  1.9918
 4269TIP3    H234223   4.754   2.621   3.335 -2.2390  0.0099  1.4857
 4270TIP3   OH234224   2.320   6.285  14.974 -0.5661 -0.1621  0.1845
 4270TIP3    H134225   2.407   6.271  14.936 -0.2403 -1.8484  1.4710
 4270TIP3    H234226   2.259   6.256  14.906 -0.0982  0.1911 -0.3884
 4271TIP3   OH234227   4.003   3.515   2.039 -0.6884 -0.4337 -0.1741
 4271TIP3    H134228   3.981   3.456   1.968 -0.4661 -0.2241 -0.4177
 4271TIP3    H234229   4.089   3.485   2.070 -0.8558 -0.6226  0.1092
 4272TIP3   OH234230   4.164   3.706   3.746  0.3859  0.6566 -0.2702
 4272TIP3    H134231   4.200   3.703   3.835  0.3790 -1.0794 -0.3069
 4272TIP3    H234232   4.240   3.693   3.689  0.4117  1.9281 -0.5184
 4273TIP3   OH234233   1.313   4.569   1.513 -0.0149 -0.6067  0.2374
 4273TIP3    H134234   1.266   4.578   1.596 -0.7377 -1.0882 -0.1103
 4273TIP3    H234235   1.250   4.527   1.455  0.5767 -0.5043 -0.4816
 4274TIP3   OH234236   3.573   4.046  12.171 -0.8426  0.5332 -0.1972
 4274TIP3    H134237   3.613   4.034  12.085 -0.4421  0.4012  0.0073
 4274TIP3    H234238   3.611   4.128  12.204  1.6274 -1.1696  1.3056
 4275TIP3   OH234239   0.194   6.216   3.770  0.2036  0.1777  0.3466
 4275TIP3    H134240   0.123   6.155   3.789 -0.1003  0.5345  0.3564
 4275TIP3    H234241   0.269   6.181   3.819 -0.0496 -0.0106  0.6052
 4276TIP3   OH234242   1.511   5.983  12.071  0.0638  0.0430  0.6483
 4276TIP3    H134243   1.490   6.055  12.130 -0.0487 -0.1888  0.8898
 4276TIP3    H234244   1.498   5.904  12.123  0.7440 -0.1295  0.5560
 4277TIP3   OH234245   4.655   5.136  10.959  0.5555 -0.0513  0.3743
 4277TIP3    H134246   4.669   5.167  10.869 -0.9455  0.2919  0.2463
 4277TIP3    H234247   4.561   5.118  10.964  0.8087 -1.1285  1.5500
 4278TIP3   OH234248   4.577   0.502  16.948 -0.6182 -0.1368  0.1840
 4278TIP3    H134249   4.613   0.545  16.870  2.0231 -0.4047  1.2026
 4278TIP3    H234250   4.572   0.572  17.013  1.2893 -0.7815  1.0628
 4279TIP3   OH234251   6.396   4.336   1.442  0.1377  0.2285  0.7317
 4279TIP3    H134252   6.446   4.416   1.426 -0.3055  0.3313 -0.1949
 4279TIP3    H234253   6.304   4.365   1.441  0.0043 -0.1694  1.1364
 4280TIP3   OH234254   5.340   0.502  11.699 -0.2782 -0.0923  0.0516
 4280TIP3    H134255   5.424   0.461  11.720 -0.6352 -0.4670  0.7551
 4280TIP3    H234256   5.282   0.429  11.677 -0.2498  0.2089 -1.0761
 4281TIP3   OH234257   0.940   2.300   6.448  0.8347  0.0288 -0.1643
 4281TIP3    H134258   0.971   2.233   6.509  1.5101  0.1009 -0.4281
 4281TIP3    H234259   0.847   2.279   6.435  0.7541 -0.1586  0.6616
 4282TIP3   OH234260   5.479   6.685  13.381  0.1037 -0.0449  0.6522
 4282TIP3    H134261   5.565   6.645  13.369 -0.4558 -1.0595 -0.1283
 4282TIP3    H234262   5.431   6.622  13.436  0.0121  0.7373  1.4713
 4283TIP3   OH234263   5.835   3.177  11.113 -0.4642 -0.7216 -0.1634
 4283TIP3    H134264   5.927   3.170  11.141 -0.6298  0.2483  0.6252
 4283TIP3    H234265   5.838   3.231  11.034 -0.6250  1.4606  1.3078
 4284TIP3   OH234266   3.618   0.921  12.869  0.4389 -0.5159 -0.2078
 4284TIP3    H134267   3.662   0.992  12.823 -2.0269  0.4534 -1.1265
 4284TIP3    H234268   3.591   0.960  12.953  1.0453 -1.0307  0.2357
 4285TIP3   OH234269   6.450   1.049   4.175 -0.3336  0.6922  0.3256
 4285TIP3    H134270   6.370   0.996   4.169  0.1373  0.1870 -2.3144
 4285TIP3    H234271   6.521   0.987   4.159  0.4975  1.4099  1.1737
 4286TIP3   OH234272   1.978   2.077   6.593 -0.2304 -0.7352  0.5955
 4286TIP3    H134273   1.935   2.076   6.507 -0.5980  0.1881  0.7568
 4286TIP3    H234274   2.069   2.057   6.574  0.1503  1.6160 -0.3099
 4287TIP3   OH234275   3.026   3.450   0.905 -0.2121 -0.1466  0.1952
 4287TIP3    H134276   3.026   3.358   0.876  1.6947 -0.1354  0.0434
 4287TIP3    H234277   2.943   3.485   0.874 -0.7873 -1.7260 -0.1022
 4288TIP3   OH234278   2.151   6.411   2.349 -0.0226 -0.5185  0.0673
 4288TIP3    H134279   2.209   6.485   2.327 -1.2579  0.2489 -0.6874
 4288TIP3    H234280   2.063   6.445   2.332 -0.9478 -0.5502  4.3519
 4289TIP3   OH234281   3.138   5.140   1.623  0.3285 -0.3569  0.2622
 4289TIP3    H134282   3.158   5.086   1.546  0.0234  0.0559 -0.1041
 4289TIP3    H234283   3.103   5.078   1.687  0.8826 -0.7541  0.1847
 4290TIP3   OH234284   0.155   1.671  14.117  0.0735 -0.1393 -0.5218
 4290TIP3    H134285   0.132   1.598  14.175 -0.7207 -0.0923 -0.7686
 4290TIP3    H234286   0.245   1.653  14.090  0.2517 -0.4618  0.2753
 4291TIP3   OH234287   4.446   5.603   5.007  0.2841 -0.4246  0.5852
 4291TIP3    H134288   4.398   5.556   4.939  1.4225  1.3963 -1.5463
 4291TIP3    H234289   4.534   5.616   4.971  0.4909  1.8245  1.7931
 4292TIP3   OH234290   6.686   3.137   5.749 -0.1703 -0.1157  0.8556
 4292TIP3    H134291   6.639   3.170   5.825  2.2173  0.0044  2.3469
 4292TIP3    H234292   6.778   3.157   5.767  0.5645 -1.1270 -1.5360
 4293TIP3   OH234293   5.084   0.296  13.184 -0.2220 -0.3180 -0.2546
 4293TIP3    H134294   5.074   0.387  13.213  0.0243 -0.4652  0.2910
 4293TIP3    H234295   5.140   0.302  13.106  1.8215 -0.2174  1.1754
 4294TIP3   OH234296   0.107   5.942  14.720  0.2603 -0.0132  0.2403
 4294TIP3    H134297   0.087   6.035  14.710 -0.1822 -0.1848 -0.5253
 4294TIP3    H234298   0.199   5.940  14.747  0.0272  0.6773  1.1300
 4295TIP3   OH234299   6.636   1.610   5.603 -0.0382 -0.4808 -0.4628
 4295TIP3    H134300   6.666   1.577   5.688 -1.1027 -1.0614 -0.3035
 4295TIP3    H234301   6.648   1.705   5.609 -0.2567 -0.4985  0.4059
 4296TIP3   OH234302   6.189   4.404  12.669  0.3198  0.5671  0.1356
 4296TIP3    H134303   6.213   4.387  12.760 -1.3369  1.5667  0.7873
 4296TIP3    H234304   6.183   4.499  12.663 -0.1701  0.4775 -0.8599
 4297TIP3   OH234305   1.888   5.015   3.333 -0.0978 -0.8614 -0.0992
 4297TIP3    H134306   1.799   5.018   3.369  0.6086  2.0663  1.6000
 4297TIP3    H234307   1.884   5.069   3.254  0.3608  0.0214  0.4754
 4298TIP3   OH234308   1.320   5.455  11.750  0.3204  0.4831 -0.2901
 4298TIP3    H134309   1.251   5.432  11.812  1.5725  0.4781  1.1310
 4298TIP3    H234310   1.284   5.528  11.700 -1.5615 -0.9575 -1.0844
 4299TIP3   OH234311   1.163   4.147   5.730 -0.2591 -0.0893  0.0191
 4299TIP3    H134312   1.212   4.203   5.670 -1.5519  2.3496  1.1762
 4299TIP3    H234313   1.178   4.186   5.816  0.6998 -2.9187  1.1934
 4300TIP3   OH234314   5.912   3.557   2.117 -0.3270 -0.7982 -0.0352
 4300TIP3    H134315   5.879   3.613   2.047  0.1487 -0.7204 -0.2043
 4300TIP3    H234316   6.007   3.562   2.108 -0.2504 -0.3622  0.9561
 4301TIP3   OH234317   0.859   5.798  14.768  0.2351 -0.0306 -0.0081
 4301TIP3    H134318   0.910   5.735  14.717  0.4693  0.8828 -0.9009
 4301TIP3    H234319   0.921   5.868  14.788 -0.1935  0.2139  0.4601
 4302TIP3   OH234320   0.369   3.448  10.509  0.3823 -1.1912  0.4935
 4302TIP3    H134321   0.378   3.449  10.605 -1.1201  1.7531  0.6523
 4302TIP3    H234322   0.444   3.500  10.478 -0.4813 -0.0724  0.2420
 4303TIP3   OH234323   4.575   1.371   1.814  0.2290 -0.3176  0.1181
 4303TIP3    H134324   4.606   1.325   1.737  0.7591 -0.3892  0.3764
 4303TIP3    H234325   4.566   1.303   1.881 -1.7935 -0.5308 -0.3439
 4304TIP3   OH234326   3.526   4.123   1.215  0.2510 -0.0117  0.2526
 4304TIP3    H134327   3.508   4.204   1.263  1.5059  0.3840  0.0490
 4304TIP3    H234328   3.448   4.069   1.230  0.3943  0.3244  2.2981
 4305TIP3   OH234329   6.262   5.897  13.328  0.3926  0.1640 -0.1848
 4305TIP3    H134330   6.211   5.949  13.390 -1.4806 -1.4400 -0.3324
 4305TIP3    H234331   6.213   5.902  13.246  0.5300 -1.3150 -0.3669
 4306TIP3   OH234332   1.657   4.850   4.140 -0.0827  1.1516 -0.4146
 4306TIP3    H134333   1.606   4.882   4.215  0.4676  1.0935 -0.0076
 4306TIP3    H234334   1.694   4.767   4.171 -1.1391  0.3262 -1.3013
 4307TIP3   OH234335   1.613   6.550  13.888  0.0022  0.3962 -0.1210
 4307TIP3    H134336   1.683   6.582  13.945  0.6755  1.2067 -1.3526
 4307TIP3    H234337   1.647   6.468  13.852  0.0435  0.4470 -0.1976
 4308TIP3   OH234338   4.390   6.554  11.832  0.4356  0.3707  0.4439
 4308TIP3    H134339   4.473   6.601  11.841  0.5607  0.2660 -0.1833
 4308TIP3    H234340   4.411   6.464  11.858  0.9648 -0.0956 -1.5059
 4309TIP3   OH234341   3.389   4.173  14.131 -0.2337 -0.2034 -0.2605
 4309TIP3    H134342   3.424   4.198  14.216 -0.3744 -2.1162  0.3824
 4309TIP3    H234343   3.450   4.210  14.068  0.2685  0.6122  0.6969
 4310TIP3   OH234344   6.745   5.999  11.118  0.5023 -0.3215 -0.1194
 4310TIP3    H134345   6.794   5.917  11.106 -0.7316 -1.1170  0.1817
 4310TIP3    H234346   6.723   6.027  11.029 -0.4419 -1.1800 -0.1761
 4311TIP3   OH234347   2.105   0.139   5.953 -0.0967  0.0250 -0.1529
 4311TIP3    H134348   2.059   0.214   5.989 -2.4387 -1.1466 -0.6314
 4311TIP3    H234349   2.088   0.144   5.858  2.2905  0.5833 -0.5887
 4312TIP3   OH234350   4.565   4.767   2.800  0.0970 -0.5309  0.3568
 4312TIP3    H134351   4.478   4.808   2.795  0.3060 -0.0040  0.9363
 4312TIP3    H234352   4.552   4.679   2.766 -0.8049 -0.6747  1.0525
 4313TIP3   OH234353   4.696   2.439  16.988 -0.2077  0.5021  0.3924
 4313TIP3    H134354   4.640   2.428  17.065  0.5926 -1.6715  0.6939
 4313TIP3    H234355   4.769   2.492  17.018 -0.6966  1.0076  0.7055
 4314TIP3   OH234356   0.490   5.557   4.374  0.2661 -0.6566 -0.0219
 4314TIP3    H134357   0.431   5.518   4.309 -2.3093 -0.2098  1.9718
 4314TIP3    H234358   0.562   5.494   4.382  0.2942 -1.0352 -2.7697
 4315TIP3   OH234359   0.680   5.221   5.309 -0.7661  0.0933 -0.7337
 4315TIP3    H134360   0.735   5.299   5.309 -1.4337  0.5920  1.3974
 4315TIP3    H234361   0.724   5.160   5.250  2.3762  0.2594  1.3816
 4316TIP3   OH234362   1.327   5.407  13.109  0.3609  0.0713  0.3337
 4316TIP3    H134363   1.398   5.367  13.158  0.6214 -0.1000 -0.1719
 4316TIP3    H234364   1.365   5.485  13.068  0.0969  0.3227  0.5663
 4317TIP3   OH234365   1.359   4.445  12.235 -0.6007 -0.1438 -0.0890
 4317TIP3    H134366   1.343   4.539  12.236 -2.5514 -0.4646  0.6761
 4317TIP3    H234367   1.296   4.410  12.173  1.3283 -0.7679 -1.7363
 4318TIP3   OH234368   5.928   3.770  14.525  0.3698  0.4057 -0.0753
 4318TIP3    H134369   5.961   3.859  14.514 -1.6787  0.9017 -2.4059
 4318TIP3    H234370   5.995   3.714  14.485  1.3715  0.9105  0.8669
 4319TIP3   OH234371   4.040   3.918  17.177  0.2038 -0.2535  0.1355
 4319TIP3    H134372   4.102   3.954  17.113 -0.2481 -1.2209 -0.8515
 4319TIP3    H234373   3.973   3.986  17.186  0.8317  0.3451  0.4182
 4320TIP3   OH234374   1.485   3.231  16.631  0.3668  0.5438  0.3607
 4320TIP3    H134375   1.510   3.260  16.544  1.7585  0.2485  0.6488
 4320TIP3    H234376   1.391   3.247  16.636  0.4566  1.4818 -0.8293
 4321TIP3   OH234377   4.120   3.830  15.220 -0.3413 -0.2999 -0.1847
 4321TIP3    H134378   4.133   3.924  15.205 -0.3473 -0.2568  0.0770
 4321TIP3    H234379   4.200   3.802  15.265  0.0460 -0.6021 -1.0430
 4322TIP3   OH234380   3.719   3.675   2.845 -0.5533  0.1782  0.5604
 4322TIP3    H134381   3.698   3.766   2.865  1.0406  1.3179 -2.5603
 4322TIP3    H234382   3.811   3.677   2.817  0.3972 -2.8577  3.0482
 4323TIP3   OH234383   6.493   0.489  13.846 -0.6090 -0.5119  0.0658
 4323TIP3    H134384   6.492   0.461  13.937  0.1729 -0.9718 -0.0578
 4323TIP3    H234385   6.483   0.585  13.850  1.5318 -0.2821  0.7678
 4324TIP3   OH234386   2.437   2.819   1.185 -0.0868  0.0230 -0.2222
 4324TIP3    H134387   2.342   2.803   1.192 -0.2941  1.9999  2.5895
 4324TIP3    H234388   2.445   2.914   1.186  1.9464 -0.1333 -0.4013
 4325TIP3   OH234389   4.210   3.661   0.367 -0.1072  0.2284 -0.0534
 4325TIP3    H134390   4.234   3.652   0.275 -0.7094 -0.8264 -0.1041
 4325TIP3    H234391   4.244   3.582   0.409 -0.4153  0.3915  0.5112
 4326TIP3   OH234392   0.589   2.710  12.672 -0.2658 -0.4154  0.6021
 4326TIP3    H134393   0.667   2.703  12.728  0.7477  1.2416 -0.5399
 4326TIP3    H234394   0.580   2.624  12.632  1.1934 -0.5398  0.5037
 4327TIP3   OH234395   1.553   1.693  13.166 -0.0016  0.3480  0.2524
 4327TIP3    H134396   1.476   1.730  13.123 -0.0038 -0.7227 -0.7022
 4327TIP3    H234397   1.622   1.758  13.154 -0.2128  0.3945 -0.6941
 4328TIP3   OH234398   4.306   0.162   3.571 -0.1870 -0.2718 -0.7222
 4328TIP3    H134399   4.286   0.255   3.559 -2.5441 -0.5218  0.9008
 4328TIP3    H234400   4.295   0.148   3.665 -0.5316 -2.3465 -1.0619
 4329TIP3   OH234401   2.689   4.515  15.127  0.0178  0.2692 -0.7549
 4329TIP3    H134402   2.690   4.431  15.175  0.8848  1.4965  1.4505
 4329TIP3    H234403   2.745   4.499  15.051  2.5333 -0.3301  1.1654
 4330TIP3   OH234404   6.534   0.307   4.245  0.0088 -0.5654 -0.1890
 4330TIP3    H134405   6.562   0.216   4.255 -0.4447 -0.6382  0.4052
 4330TIP3    H234406   6.521   0.339   4.334  1.8848  0.6249 -0.3223
 4331TIP3   OH234407   4.900   2.061   4.517  0.2686  0.0129  0.0633
 4331TIP3    H134408   4.930   2.026   4.601  0.2938 -1.0015 -0.3681
 4331TIP3    H234409   4.866   1.985   4.470 -0.9583  0.7833 -0.3352
 4332TIP3   OH234410   0.445   0.492  13.216  0.0843 -0.5780  0.4235
 4332TIP3    H134411   0.464   0.455  13.129  0.3794  0.9767 -0.1771
 4332TIP3    H234412   0.356   0.464  13.235 -0.7181  0.7793 -1.2733
 4333TIP3   OH234413   6.327   2.264   2.824  0.2887  0.5510 -0.4206
 4333TIP3    H134414   6.317   2.191   2.762 -0.4583  0.5505 -0.3020
 4333TIP3    H234415   6.378   2.329   2.776 -1.5698  1.1838 -1.5810
 4334TIP3   OH234416   6.322   3.106  11.951  0.3251  0.4825 -0.1851
 4334TIP3    H134417   6.267   3.185  11.952  0.7394  0.7602  0.9907
 4334TIP3    H234418   6.265   3.038  11.915 -0.1477  1.2388 -0.8814
 4335TIP3   OH234419   0.589   6.278  15.800  0.1900 -0.5430 -0.6239
 4335TIP3    H134420   0.627   6.340  15.862  0.5903 -0.4073 -0.9995
 4335TIP3    H234421   0.622   6.193  15.829 -0.8831 -0.6585  0.2823
 4336TIP3   OH234422   0.529   3.912   5.784  0.2547 -0.4469  0.6182
 4336TIP3    H134423   0.579   3.987   5.750  0.7045 -2.1240 -2.6279
 4336TIP3    H234424   0.472   3.887   5.711 -1.5554 -1.8510  2.4842
 4337TIP3   OH234425   4.216   5.914   4.677  0.7144  0.1998  0.4719
 4337TIP3    H134426   4.152   5.873   4.735  1.1901  0.3551  1.1036
 4337TIP3    H234427   4.291   5.934   4.733  0.9958  0.7615 -0.0976
 4338TIP3   OH234428   4.917   5.373   6.468 -0.2571  0.2448  0.2172
 4338TIP3    H134429   4.836   5.386   6.420  0.0206 -1.1344 -0.6573
 4338TIP3    H234430   4.892   5.317   6.542 -0.3861  1.0640  0.7952
 4339TIP3   OH234431   6.336   2.052  12.052 -0.3605  0.4322 -0.5436
 4339TIP3    H134432   6.300   1.974  12.010 -1.8416  3.2582 -4.8659
 4339TIP3    H234433   6.272   2.074  12.120 -0.8901 -0.9970 -0.5650
 4340TIP3   OH234434   3.343   6.169  13.563  0.1243 -0.5688  0.1906
 4340TIP3    H134435   3.402   6.230  13.608  2.9409 -2.7549 -0.3342
 4340TIP3    H234436   3.296   6.223  13.500  2.7952  1.0452 -0.5161
 4341TIP3   OH234437   3.639   0.786   2.347  0.0332 -0.6277 -0.3511
 4341TIP3    H134438   3.647   0.711   2.286 -0.0226 -2.2593  1.5959
 4341TIP3    H234439   3.547   0.787   2.371  0.1605 -0.3126  0.1179
 4342TIP3   OH234440   2.560   4.095   3.984 -0.1273 -0.3146  0.3390
 4342TIP3    H134441   2.641   4.061   3.945 -1.0757 -1.9785 -0.1992
 4342TIP3    H234442   2.491   4.041   3.948 -1.6030  1.6124  0.1661
 4343TIP3   OH234443   3.681   3.370  14.595  0.2333  0.1338 -0.7524
 4343TIP3    H134444   3.667   3.464  14.605 -1.3999 -0.2312  0.6820
 4343TIP3    H234445   3.661   3.352  14.504 -0.9820  0.9493 -0.6672
 4344TIP3   OH234446   3.168   6.364   5.641 -0.3245  0.1141  0.1376
 4344TIP3    H134447   3.102   6.319   5.588  0.6301 -1.5509  0.3129
 4344TIP3    H234448   3.124   6.382   5.724 -1.1780  0.8555 -0.4635
 4345TIP3   OH234449   3.170   5.764   6.082  0.1523  0.0813 -0.0909
 4345TIP3    H134450   3.251   5.805   6.113 -0.6064  0.5539  1.3173
 4345TIP3    H234451   3.117   5.838   6.051 -0.4791 -0.0239  0.7275
 4346TIP3   OH234452   2.924   0.027   1.550 -0.1220  0.5422  0.5339
 4346TIP3    H134453   2.903   0.121   1.545  0.6364  0.6390 -1.0959
 4346TIP3    H234454   2.860  -0.015   1.494  1.6316  0.4515 -1.4533
 4347TIP3   OH234455   3.632   6.370  15.262  0.1939  0.8173  0.2378
 4347TIP3    H134456   3.684   6.305  15.309 -1.9450 -0.8766  0.3201
 4347TIP3    H234457   3.697   6.427  15.220  2.2057 -3.5020 -2.8648
 4348TIP3   OH234458   3.400   0.516   3.972 -0.1944  0.3507  0.5845
 4348TIP3    H134459   3.423   0.430   4.007 -1.2333 -0.6628 -1.0852
 4348TIP3    H234460   3.462   0.529   3.900 -0.5288  0.6366  0.3485
 4349TIP3   OH234461   6.619   5.913  14.397  0.3124  0.4084  0.2460
 4349TIP3    H134462   6.670   5.832  14.407  0.0009  0.1670 -0.1005
 4349TIP3    H234463   6.655   5.954  14.319  0.2455  0.4402  0.2318
 4350TIP3   OH234464   4.569   3.086  10.927 -0.2387  0.7573  0.4319
 4350TIP3    H134465   4.616   3.006  10.954 -1.9901  0.1152  1.6802
 4350TIP3    H234466   4.477   3.066  10.945 -0.9018  2.3074 -1.1963
 4351TIP3   OH234467   2.412   6.649  15.241  0.5673 -0.5387  0.7194
 4351TIP3    H134468   2.365   6.568  15.259  0.0428  0.2937  3.3208
 4351TIP3    H234469   2.432   6.645  15.147 -0.1155 -3.2951  0.6527
 4352TIP3   OH234470   6.242   2.667   2.692 -0.1162  0.5289  0.0412
 4352TIP3    H134471   6.173   2.621   2.739  1.0042  0.0532  1.2476
 4352TIP3    H234472   6.204   2.752   2.670 -1.7030 -0.4043 -0.9500
 4353TIP3   OH234473   5.452   4.272  16.222  0.5100 -0.3560  0.7190
 4353TIP3    H134474   5.405   4.259  16.140  1.6942  1.1069 -0.2147
 4353TIP3    H234475   5.397   4.333  16.271 -1.1613 -2.6827  1.8669
 4354TIP3   OH234476   0.892   6.690  13.627  0.6443 -0.1441  0.0609
 4354TIP3    H134477   0.976   6.688  13.582  0.7285 -0.0733  0.2116
 4354TIP3    H234478   0.892   6.774  13.673  0.7032 -0.3557  0.4566
 4355TIP3   OH234479   1.838   5.895   3.261  0.2616 -0.3047  0.4742
 4355TIP3    H134480   1.801   5.856   3.340  1.4574  0.0054  1.1868
 4355TIP3    H234481   1.880   5.821   3.216 -1.2011 -0.6617 -0.3469
 4356TIP3   OH234482   4.064   3.140  12.035 -0.7715  0.1641 -0.1031
 4356TIP3    H134483   4.024   3.053  12.043 -0.6622 -0.0262 -1.4110
 4356TIP3    H234484   3.995   3.195  11.998 -0.5641  0.4096 -0.1267
 4357TIP3   OH234485   3.460   0.892  12.622  0.0604 -0.7220  0.0659
 4357TIP3    H134486   3.497   0.854  12.702 -1.3492  0.8089  1.4760
 4357TIP3    H234487   3.377   0.930  12.650 -1.0266 -1.2235 -2.3966
 4358TIP3   OH234488   4.756   4.476   5.341  0.4757 -0.3033 -0.3879
 4358TIP3    H134489   4.694   4.457   5.412  0.3260  1.9376  0.1281
 4358TIP3    H234490   4.703   4.473   5.262 -0.2567  1.2726  0.0212
 4359TIP3   OH234491   2.168   3.579  15.842 -0.1173 -0.1391  0.4300
 4359TIP3    H134492   2.261   3.586  15.860  0.0937 -1.1198 -0.2258
 4359TIP3    H234493   2.142   3.667  15.814  0.4816  0.2759  1.1571
 4360TIP3   OH234494   2.362   3.656   3.923 -0.1231 -0.0800  0.1130
 4360TIP3    H134495   2.289   3.596   3.907  0.6540 -1.1972  0.7141
 4360TIP3    H234496   2.433   3.623   3.868  0.4634 -0.0116  0.8113
 4361TIP3   OH234497   6.503   5.454   0.259  0.5227 -0.5166 -0.2930
 4361TIP3    H134498   6.491   5.359   0.270 -4.8405 -0.2373 -2.1502
 4361TIP3    H234499   6.517   5.465   0.165  1.1501  0.5683 -0.0771
 4362TIP3   OH234500   6.591   4.722  14.258  0.0003  0.5682 -0.6669
 4362TIP3    H134501   6.609   4.787  14.326 -0.6507  1.1373 -1.0327
 4362TIP3    H234502   6.644   4.749  14.183  2.1265 -1.0759  0.1738
 4363TIP3   OH234503   4.254   0.208   6.652  0.2194 -0.1238 -0.6192
 4363TIP3    H134504   4.317   0.145   6.686 -0.2448  0.4031  1.2837
 4363TIP3    H234505   4.297   0.248   6.576  0.9572 -1.9159 -1.1594
 4364TIP3   OH234506   3.849   2.863  15.445  0.2086  0.1174  0.0153
 4364TIP3    H134507   3.764   2.906  15.457 -0.8346 -1.4922 -1.3905
 4364TIP3    H234508   3.908   2.912  15.501 -1.5711  1.5099  0.7426
 4365TIP3   OH234509   3.228   0.632  12.784  0.0406 -0.0969  0.1789
 4365TIP3    H134510   3.222   0.536  12.785  0.6552 -0.1413 -0.6245
 4365TIP3    H234511   3.139   0.661  12.767 -0.0768 -0.5379  0.0274
 4366TIP3   OH234512   1.205   1.860  13.898  0.0152  0.6255 -0.3613
 4366TIP3    H134513   1.141   1.862  13.827 -0.8307 -0.1982  0.3568
 4366TIP3    H234514   1.266   1.931  13.879 -0.6968  0.9414 -1.4485
 4367TIP3   OH234515   6.598   4.268   4.061  0.6281  0.6077  0.3678
 4367TIP3    H134516   6.614   4.260   3.967  0.7727 -0.8535  0.5046
 4367TIP3    H234517   6.547   4.190   4.083 -0.5965  1.6447  1.2591
 4368TIP3   OH234518   2.832   6.378   3.623 -0.1539 -0.1776 -0.8640
 4368TIP3    H134519   2.902   6.405   3.563 -0.9692 -0.4559 -1.9699
 4368TIP3    H234520   2.814   6.456   3.676  0.7827 -0.0143 -0.7846
 4369TIP3   OH234521   6.070   4.282  12.978 -0.6649  0.7115 -0.0381
 4369TIP3    H134522   6.072   4.378  12.981  0.1121  0.6716  1.4993
 4369TIP3    H234523   5.988   4.261  12.934 -1.0750  2.0809  0.0425
 4370TIP3   OH234524   2.937   3.964   2.234  0.1259  0.5655 -0.2594
 4370TIP3    H134525   2.955   3.948   2.326 -0.6759  3.3498  0.4144
 4370TIP3    H234526   2.893   4.049   2.232 -1.5367 -0.2937 -3.0311
 4371TIP3   OH234527   5.987   4.972  11.205 -0.7243  0.0689  0.2852
 4371TIP3    H134528   5.908   4.968  11.259 -1.0205 -1.7340 -0.2363
 4371TIP3    H234529   5.955   4.969  11.115 -0.1721  1.8807  0.0102
 4372TIP3   OH234530   4.872   3.570   3.833  0.3164  0.2050 -0.5105
 4372TIP3    H134531   4.855   3.660   3.861  1.4191  0.2326  0.0987
 4372TIP3    H234532   4.829   3.516   3.900  1.9671  0.2775  0.6358
 4373TIP3   OH234533   3.839   3.996   5.957  0.3437  0.1926  0.1620
 4373TIP3    H134534   3.804   3.978   6.044  0.6614 -1.6430 -0.0665
 4373TIP3    H234535   3.918   3.942   5.951  0.5028  0.5489 -1.1334
 4374TIP3   OH234536   6.550   0.894   1.379 -0.5012  0.0453 -0.4015
 4374TIP3    H134537   6.562   0.799   1.373 -2.2120 -0.1792 -0.7576
 4374TIP3    H234538   6.634   0.931   1.353  0.4599 -1.3837  0.5827
 4375TIP3   OH234539   5.325   3.143  12.216  0.1825  0.0559 -0.2838
 4375TIP3    H134540   5.307   3.237  12.221  1.3739  0.2707 -0.0774
 4375TIP3    H234541   5.416   3.136  12.188  0.4059 -1.0371  0.6492
 4376TIP3   OH234542   5.068   4.792  11.981  0.2298 -0.1882  0.2820
 4376TIP3    H134543   5.072   4.887  11.969 -1.9202 -0.2099 -0.7599
 4376TIP3    H234544   5.085   4.756  11.894 -0.0377 -0.7328  0.4546
 4377TIP3   OH234545   2.402   1.007   1.646 -0.0879 -0.0670  0.4588
 4377TIP3    H134546   2.311   0.977   1.654 -0.0694 -0.3386 -0.2582
 4377TIP3    H234547   2.397   1.084   1.589  0.2277 -0.6476 -0.3777
 4378TIP3   OH234548   4.015   0.882   0.746 -0.8428 -0.2201  0.2421
 4378TIP3    H134549   4.032   0.847   0.833 -0.5829  0.0244  0.2899
 4378TIP3    H234550   4.054   0.819   0.686  2.1980  1.4051  0.3955
 4379TIP3   OH234551   4.750   3.918   4.615  0.0560 -0.5772 -0.4189
 4379TIP3    H134552   4.828   3.968   4.593 -0.1665  0.1118  0.3361
 4379TIP3    H234553   4.752   3.842   4.557  0.0486  0.6419 -2.0396
 4380TIP3   OH234554   2.365   2.502   2.322 -0.4097 -0.3686 -0.0915
 4380TIP3    H134555   2.392   2.532   2.236 -1.0832 -0.1996 -0.2479
 4380TIP3    H234556   2.425   2.544   2.383 -0.7952  0.5978 -0.3762
 4381TIP3   OH234557   6.586   0.325   1.051  0.1051 -0.6949  0.1085
 4381TIP3    H134558   6.527   0.400   1.051  0.1587 -0.6518 -0.6573
 4381TIP3    H234559   6.638   0.335   0.971  1.3586 -0.5670  0.9324
 4382TIP3   OH234560   4.874   2.701   2.547  0.6725 -0.6905 -0.0137
 4382TIP3    H134561   4.820   2.705   2.468 -1.2386 -0.3168  1.2574
 4382TIP3    H234562   4.926   2.781   2.544  0.6311 -0.6956 -0.9153
 4383TIP3   OH234563   3.326   1.631   2.486  0.2172  0.2175 -0.1057
 4383TIP3    H134564   3.323   1.591   2.572  2.8463 -1.1327 -0.5881
 4383TIP3    H234565   3.258   1.586   2.436  0.0845 -0.4201  0.6470
 4384TIP3   OH234566   1.909   2.730  17.054  0.2991  0.4801 -0.3974
 4384TIP3    H134567   1.996   2.691  17.061 -1.2157 -2.6200  2.2148
 4384TIP3    H234568   1.915   2.809  17.109  2.2377  1.9564 -2.6002
 4385TIP3   OH234569   2.049   6.654  16.075  0.0184 -0.4497 -0.0890
 4385TIP3    H134570   2.032   6.565  16.106 -1.2167  0.0190  0.5949
 4385TIP3    H234571   2.004   6.659  15.990 -0.3842 -0.2985  0.1337
 4386TIP3   OH234572   4.952   1.201  14.478  0.0341  0.7015  0.0798
 4386TIP3    H134573   4.894   1.125  14.482  1.0624 -0.0455  1.0307
 4386TIP3    H234574   4.956   1.233  14.568  2.4652 -0.3148  0.3805
 4387TIP3   OH234575   0.090   1.393  13.779 -0.3873  0.6334  0.1281
 4387TIP3    H134576   0.114   1.353  13.862  0.4882  1.0563  0.0857
 4387TIP3    H234577  -0.005   1.382  13.773 -0.1491 -1.6969 -0.0174
 4388TIP3   OH234578   4.922   5.153   3.374  0.3805  0.1409 -0.0728
 4388TIP3    H134579   4.994   5.092   3.354  0.4499 -0.1386  1.0125
 4388TIP3    H234580   4.856   5.134   3.307  0.9241 -0.2486 -0.5083
 4389TIP3   OH234581   4.540   4.798  14.988 -0.2177  0.2388 -0.7114
 4389TIP3    H134582   4.530   4.704  14.971  2.4175 -0.0145 -1.1426
 4389TIP3    H234583   4.595   4.829  14.917  0.5529  1.7118  0.4919
 4390TIP3   OH234584   4.821   1.178   3.190  0.3754 -0.0142  0.1864
 4390TIP3    H134585   4.887   1.198   3.124  0.8146 -2.6024 -0.2022
 4390TIP3    H234586   4.869   1.133   3.259 -0.8893 -1.4217  0.1539
 4391TIP3   OH234587   0.179   3.900  15.259  0.2416  0.4800 -0.0133
 4391TIP3    H134588   0.167   3.980  15.311 -1.6904  0.1822  0.0448
 4391TIP3    H234589   0.149   3.829  15.317  2.7690 -0.3945  0.2541
 4392TIP3   OH234590   4.277   0.260  14.274  0.2300  0.2886 -0.4273
 4392TIP3    H134591   4.325   0.245  14.356 -0.1505 -0.8573 -0.3982
 4392TIP3    H234592   4.269   0.355  14.268 -0.1528  0.3735  1.1287
 4393TIP3   OH234593   2.665   0.817   2.652 -0.2946  0.0793 -0.0253
 4393TIP3    H134594   2.737   0.755   2.649 -0.0699  0.3098  0.7455
 4393TIP3    H234595   2.667   0.860   2.566  0.9315  0.6070  0.2699
 4394TIP3   OH234596   4.679   6.778  15.400  0.2667 -0.6581  0.3215
 4394TIP3    H134597   4.681   6.820  15.314  1.9872 -1.0824  0.1351
 4394TIP3    H234598   4.681   6.684  15.381  2.4252 -0.7368  0.8317
 4395TIP3   OH234599   4.448   3.217  13.686  0.1117 -0.2762  0.2641
 4395TIP3    H134600   4.524   3.193  13.739  1.5208  3.4719  0.1046
 4395TIP3    H234601   4.387   3.257  13.749 -0.6098 -0.8782 -0.0444
 4396TIP3   OH234602   1.535   1.807  13.602  0.2017  0.4942 -0.5958
 4396TIP3    H134603   1.603   1.871  13.582 -0.6669  2.2382  1.8460
 4396TIP3    H234604   1.453   1.856  13.594 -0.6551 -1.0130 -1.3044
 4397TIP3   OH234605   5.630   5.074   1.560 -0.2231  0.0495 -0.0258
 4397TIP3    H134606   5.685   5.036   1.492 -0.3347 -0.6831  0.2870
 4397TIP3    H234607   5.548   5.095   1.516 -0.3482 -0.5636 -0.0822
 4398TIP3   OH234608   4.661   0.283   4.969 -0.2068 -0.1748  0.4752
 4398TIP3    H134609   4.587   0.332   4.934 -0.0447 -0.3897 -0.1831
 4398TIP3    H234610   4.645   0.279   5.064 -0.3782  0.8665  0.4928
 4399TIP3   OH234611   2.981   6.207  14.973 -0.8098  0.3940 -0.3351
 4399TIP3    H134612   2.956   6.126  14.928  0.3137  0.1063 -0.4683
 4399TIP3    H234613   3.019   6.177  15.056 -3.3630  0.9459  1.0747
 4400TIP3   OH234614   4.677   2.733   4.640  0.1013  0.3678 -0.0605
 4400TIP3    H134615   4.670   2.685   4.557  1.6202  0.0172 -0.0025
 4400TIP3    H234616   4.710   2.668   4.702 -0.8747  0.6749  0.7835
 4401TIP3   OH234617   2.261   5.550   0.073  0.2475  0.2058 -0.5960
 4401TIP3    H134618   2.353   5.539   0.047  0.8652  0.1548  1.4920
 4401TIP3    H234619   2.232   5.461   0.095 -0.1432  0.2991 -0.7326
 4402TIP3   OH234620   1.379   1.774  12.721 -0.5072 -0.5790  0.2818
 4402TIP3    H134621   1.412   1.687  12.741 -1.2098 -0.9607 -0.1731
 4402TIP3    H234622   1.284   1.766  12.728 -0.7403 -0.5214 -2.2829
 4403TIP3   OH234623   5.655   1.409   4.364 -0.5740 -0.3351 -0.0553
 4403TIP3    H134624   5.710   1.406   4.442  0.1074 -0.4125 -0.5270
 4403TIP3    H234625   5.685   1.488   4.318 -0.7819 -0.4378 -0.3662
 4404TIP3   OH234626   5.176   6.155   1.856 -0.2784 -0.0420  0.7753
 4404TIP3    H134627   5.194   6.151   1.762  0.3303 -1.3906  0.9344
 4404TIP3    H234628   5.152   6.246   1.872  0.6978  0.4552 -0.4961
 4405TIP3   OH234629   3.708   4.488  10.243  0.2595  0.1093  0.4149
 4405TIP3    H134630   3.711   4.406  10.291 -0.6422  0.1458  0.5493
 4405TIP3    H234631   3.636   4.476  10.180 -0.5804  1.1728  1.1463
 4406TIP3   OH234632   5.560   6.775   2.655  0.2633 -0.3233 -0.9762
 4406TIP3    H134633   5.611   6.784   2.574  0.0759 -1.3031 -1.2089
 4406TIP3    H234634   5.598   6.699   2.698  0.0542 -0.0804 -0.3679
 4407TIP3   OH234635   1.309   5.293   4.560  0.1189  0.8777 -0.4183
 4407TIP3    H134636   1.247   5.262   4.626  0.7678  0.3297 -0.0450
 4407TIP3    H234637   1.281   5.252   4.479  0.6681 -0.2968 -0.0241
 4408TIP3   OH234638   2.465   6.360  16.766  0.3644  0.0524 -0.3898
 4408TIP3    H134639   2.413   6.411  16.704 -0.0337 -1.9672 -1.7833
 4408TIP3    H234640   2.404   6.333  16.834  0.4415  0.8600  0.0116
 4409TIP3   OH234641   1.486   5.901   1.822  0.5649  0.4324 -0.1873
 4409TIP3    H134642   1.482   5.911   1.917 -1.8979 -2.7307  0.1269
 4409TIP3    H234643   1.566   5.851   1.806  1.1347  1.2226  0.1970
 4410TIP3   OH234644   1.037   2.180  11.551 -0.3826  0.3621 -0.0590
 4410TIP3    H134645   1.113   2.209  11.601 -0.2220 -2.0890  1.1825
 4410TIP3    H234646   1.073   2.127  11.480 -0.9022 -0.2010  0.0981
 4411TIP3   OH234647   3.681   6.427   3.220  0.2309  0.4414 -0.0992
 4411TIP3    H134648   3.631   6.368   3.276  0.9449 -0.8879 -0.8222
 4411TIP3    H234649   3.772   6.397   3.228  0.5775  1.3220 -0.6237
 4412TIP3   OH234650   3.506   0.134   3.026  0.0559 -0.5295 -0.3096
 4412TIP3    H134651   3.586   0.105   3.069  0.7501 -0.4828 -1.5570
 4412TIP3    H234652   3.473   0.055   2.982  0.6126 -0.0368 -1.6357
 4413TIP3   OH234653   2.113   2.685   5.858 -0.1460  0.6724  0.0592
 4413TIP3    H134654   2.086   2.646   5.941 -0.2443 -1.2849 -0.8539
 4413TIP3    H234655   2.201   2.652   5.844 -0.5579  0.0679 -1.1618
 4414TIP3   OH234656   1.638   2.228  12.972 -0.6377 -0.3513  0.2502
 4414TIP3    H134657   1.560   2.269  12.936 -0.3006 -0.5564 -0.7175
 4414TIP3    H234658   1.627   2.135  12.954  0.7697 -0.1560 -1.6936
 4415TIP3   OH234659   6.224   5.771  12.854  0.0193  0.0308  0.2330
 4415TIP3    H134660   6.282   5.830  12.805 -1.1794 -0.6188 -2.0295
 4415TIP3    H234661   6.280   5.699  12.882  0.5957  0.1046 -0.7320
 4416TIP3   OH234662   0.023   4.406  15.847 -0.3795 -0.4825 -0.2911
 4416TIP3    H134663  -0.072   4.398  15.859 -0.6886  0.4270 -1.9706
 4416TIP3    H234664   0.057   4.419  15.935 -1.6469 -2.3510  0.5072
 4417TIP3   OH234665   5.864   5.324  12.747 -0.1789 -0.0297 -0.1265
 4417TIP3    H134666   5.772   5.332  12.769 -0.0981  2.2480 -0.4377
 4417TIP3    H234667   5.908   5.388  12.804  1.2463 -1.2667  0.2137
 4418TIP3   OH234668   4.959   2.442  14.834  0.2203 -0.6186 -0.3462
 4418TIP3    H134669   4.936   2.454  14.742  1.0009  0.4919 -0.4131
 4418TIP3    H234670   4.920   2.358  14.858  0.5963 -1.2398 -1.8701
 4419TIP3   OH234671   3.553   2.543   0.518  0.6699  0.4221 -0.1461
 4419TIP3    H134672   3.604   2.517   0.442  0.7968 -1.1428  0.4448
 4419TIP3    H234673   3.486   2.603   0.484  0.0048 -1.1501 -1.6827
 4420TIP3   OH234674   5.925   4.774   2.525 -0.1910  0.4299  0.2965
 4420TIP3    H134675   5.848   4.790   2.578  1.0346  3.2619  1.3438
 4420TIP3    H234676   5.998   4.779   2.587  0.9116 -1.0600 -0.8544
 4421TIP3   OH234677   4.267   3.173   1.227 -0.0300  0.0380  0.0522
 4421TIP3    H134678   4.350   3.134   1.202  0.2226 -0.4130  1.5540
 4421TIP3    H234679   4.246   3.233   1.155  1.4018 -0.1144 -0.5085
 4422TIP3   OH234680   5.457   0.932  16.672  0.7744 -0.0345  0.0404
 4422TIP3    H134681   5.462   1.004  16.735 -1.0396  1.2344 -1.2120
 4422TIP3    H234682   5.522   0.954  16.606  0.8403 -0.0084  0.1143
 4423TIP3   OH234683   5.262   4.665  11.841 -0.0517 -0.1766  0.0096
 4423TIP3    H134684   5.326   4.691  11.775 -0.2721 -1.6544 -0.8207
 4423TIP3    H234685   5.286   4.714  11.919  2.2214 -0.8369 -0.2346
 4424TIP3   OH234686   5.218   3.515  15.386 -0.0420 -0.5133 -0.6897
 4424TIP3    H134687   5.174   3.595  15.359  0.1699  0.0252  0.5653
 4424TIP3    H234688   5.218   3.461  15.307 -1.5000  0.1228 -1.1511
 4425TIP3   OH234689   4.916   5.483   5.547  0.1624 -0.3208  0.5435
 4425TIP3    H134690   4.935   5.548   5.479  0.5972 -1.0248 -0.0237
 4425TIP3    H234691   4.821   5.476   5.549  0.0730  0.8536  1.1152
 4426TIP3   OH234692   1.818   2.669  10.968 -0.1742 -0.0384 -0.9220
 4426TIP3    H134693   1.850   2.720  11.042  0.2871  0.4735 -1.4727
 4426TIP3    H234694   1.897   2.632  10.928 -0.0885  2.5485 -3.2497
 4427TIP3   OH234695   0.775   6.399   1.931  0.7189  0.1415 -0.4290
 4427TIP3    H134696   0.716   6.400   1.856  1.2095  0.5843 -0.8211
 4427TIP3    H234697   0.859   6.371   1.895  1.2576  1.5077 -0.2887
 4428TIP3   OH234698   3.350   6.014   3.942  0.1482 -0.7430  0.5248
 4428TIP3    H134699   3.426   5.982   3.894 -0.6758 -2.0947  0.0989
 4428TIP3    H234700   3.281   6.021   3.875 -0.1898  0.1791  0.9613
 4429TIP3   OH234701   4.361   6.189  11.391 -0.1415 -0.3386  0.4322
 4429TIP3    H134702   4.366   6.282  11.367 -1.7230 -0.3614  0.0061
 4429TIP3    H234703   4.363   6.143  11.307 -2.2161 -0.5725  0.5076
 4430TIP3   OH234704   1.841   2.858  13.607  0.3878 -0.4342 -0.2443
 4430TIP3    H134705   1.787   2.818  13.539 -1.1091 -0.5863  1.0220
 4430TIP3    H234706   1.838   2.952  13.588 -1.4440 -0.2984  0.5898
 4431TIP3   OH234707   6.656   4.537  16.127 -0.3948 -0.0885 -0.3384
 4431TIP3    H134708   6.685   4.485  16.202 -1.2953 -0.3411 -0.1654
 4431TIP3    H234709   6.710   4.616  16.130  0.0363 -0.4011  0.1809
 4432TIP3   OH234710   2.263   3.506  14.464 -0.4613  0.0190  0.0042
 4432TIP3    H134711   2.219   3.440  14.518  1.5228 -0.0018  1.6498
 4432TIP3    H234712   2.313   3.455  14.400  0.4957 -0.0672  0.8150
 4433TIP3   OH234713   2.088   0.290   4.997  0.2959 -0.0839 -0.2626
 4433TIP3    H134714   2.036   0.289   5.077 -1.5392 -0.2562 -1.4394
 4433TIP3    H234715   2.128   0.203   4.993 -1.0843 -0.7202 -0.4748
 4434TIP3   OH234716   3.541   1.976   3.385  0.9830  0.2327 -0.2369
 4434TIP3    H134717   3.525   1.882   3.395 -1.2031  0.6056 -0.0897
 4434TIP3    H234718   3.616   1.980   3.325  0.2909 -1.5786 -1.2685
 4435TIP3   OH234719   5.299   2.020   3.007  0.1562  0.3220  0.0914
 4435TIP3    H134720   5.232   2.069   3.055  1.2936  1.3608  0.6357
 4435TIP3    H234721   5.305   2.064   2.922  0.2261  0.2867  0.0787
 4436TIP3   OH234722   2.871   1.572   5.847  0.3114 -0.0462 -0.2936
 4436TIP3    H134723   2.954   1.562   5.893  1.5122 -0.9172 -2.5884
 4436TIP3    H234724   2.890   1.545   5.757 -2.1367  0.9674 -1.1525
 4437TIP3   OH234725   2.859   5.714  12.118 -0.5472 -0.7039  0.3042
 4437TIP3    H134726   2.843   5.798  12.162 -0.7266 -0.2964 -0.5454
 4437TIP3    H234727   2.885   5.656  12.189  0.7110  0.3665  0.7511
 4438TIP3   OH234728   1.756   3.788  14.020 -0.2551 -0.3768  0.1788
 4438TIP3    H134729   1.704   3.864  14.048 -0.3495 -0.5979  0.6027
 4438TIP3    H234730   1.796   3.755  14.100  1.1482  0.2393 -0.2482
 4439TIP3   OH234731   0.640   6.404   1.492 -0.4361 -0.1503 -0.1365
 4439TIP3    H134732   0.564   6.459   1.473 -0.8549 -0.7999 -0.3330
 4439TIP3    H234733   0.697   6.415   1.416  0.7071  2.1026  0.9956
 4440TIP3   OH234734   0.817   4.327  16.282  0.5298 -0.3529  0.2972
 4440TIP3    H134735   0.809   4.366  16.369 -1.5070  0.1370 -0.0820
 4440TIP3    H234736   0.902   4.282  16.284 -0.1458 -1.6392  3.0369
 4441TIP3   OH234737   2.482   6.172   0.281  0.1054 -0.3111 -0.0243
 4441TIP3    H134738   2.500   6.094   0.228  0.8295 -0.8028  0.9393
 4441TIP3    H234739   2.486   6.141   0.371  1.9928  1.1739  0.4276
 4442TIP3   OH234740   0.265   4.564  11.393 -0.2038  0.1364  0.0338
 4442TIP3    H134741   0.215   4.640  11.362 -1.7692 -0.9567 -0.2293
 4442TIP3    H234742   0.355   4.583  11.369 -0.5436  1.9943  0.1366
 4443TIP3   OH234743   4.382   5.558  11.600 -0.0637 -0.0774 -0.0257
 4443TIP3    H134744   4.465   5.604  11.586  0.1557 -0.2764  0.6037
 4443TIP3    H234745   4.368   5.563  11.695 -0.6240 -0.2931 -0.0984
 4444TIP3   OH234746   1.785   4.573  12.942  0.1582 -0.9035  0.1902
 4444TIP3    H134747   1.781   4.643  12.876 -1.6777  0.7568  2.0047
 4444TIP3    H234748   1.767   4.617  13.025  0.4398 -3.3108  1.5630
 4445TIP3   OH234749   5.765   4.899  14.298  0.0827 -0.0299  0.0072
 4445TIP3    H134750   5.768   4.989  14.266  0.6463  0.5475  1.6116
 4445TIP3    H234751   5.852   4.864  14.278 -0.4995 -0.5837 -1.6048
 4446TIP3   OH234752   1.092   1.677  16.008 -0.2818  0.3849  0.3579
 4446TIP3    H134753   1.053   1.629  15.934  0.6604 -0.5365  0.4570
 4446TIP3    H234754   1.076   1.769  15.987 -2.9014  0.0336  0.5982
 4447TIP3   OH234755   1.060   5.070  15.895  0.5151  0.2717  0.1708
 4447TIP3    H134756   1.085   5.042  15.983  1.5606  1.3737  0.2378
 4447TIP3    H234757   1.113   5.148  15.878  1.3982 -0.7269 -1.9857
 4448TIP3   OH234758   1.113   5.511  13.961  0.1823  0.4028  0.0311
 4448TIP3    H134759   1.124   5.581  13.896 -1.7510  0.1905 -0.5532
 4448TIP3    H234760   1.136   5.431  13.913 -0.7754  0.3009 -0.2841
 4449TIP3   OH234761   4.019   5.709  14.156 -0.7195  0.8521  0.0028
 4449TIP3    H134762   3.981   5.632  14.114  1.1386  0.5811 -1.2016
 4449TIP3    H234763   4.001   5.781  14.096  0.6855  0.7136 -0.6004
 4450TIP3   OH234764   0.294   0.521  11.325  0.1304 -0.1525  0.4806
 4450TIP3    H134765   0.320   0.613  11.336  0.4210 -0.4862  2.6485
 4450TIP3    H234766   0.202   0.519  11.351  0.6226 -0.8035  2.2571
 4451TIP3   OH234767   3.786   1.080  16.299  1.0282 -0.1528 -0.3594
 4451TIP3    H134768   3.701   1.110  16.329  0.6045  0.0175 -1.6696
 4451TIP3    H234769   3.823   1.032  16.373  0.8380  1.8534  1.0613
 4452TIP3   OH234770   3.424   0.845   4.239  0.5459 -0.2747  0.4681
 4452TIP3    H134771   3.343   0.822   4.194  0.9941  1.9819 -1.6608
 4452TIP3    H234772   3.404   0.839   4.332 -1.2525 -2.3571 -0.0288
 4453TIP3   OH234773   2.254   6.579  16.905  0.0897  0.2581  0.0470
 4453TIP3    H134774   2.206   6.507  16.864  2.2014 -0.6981 -0.8854
 4453TIP3    H234775   2.211   6.593  16.989 -0.8380 -1.5965 -0.0891
 4454TIP3   OH234776   0.713   3.022  15.651  0.4582  0.1013 -0.0015
 4454TIP3    H134777   0.666   2.942  15.673 -1.2671  1.5279  1.6431
 4454TIP3    H234778   0.733   3.013  15.558 -1.9959 -1.1224 -0.4649
 4455TIP3   OH234779   2.550   1.928   4.373  0.3363 -0.3967 -0.4286
 4455TIP3    H134780   2.504   1.847   4.393  0.7092 -0.3877  0.4526
 4455TIP3    H234781   2.643   1.906   4.378  0.4446  0.3093  0.7335
 4456TIP3   OH234782   4.618   2.485   2.193 -1.0104  0.2156  0.4219
 4456TIP3    H134783   4.712   2.480   2.178 -0.7351  0.0053  2.1262
 4456TIP3    H234784   4.584   2.402   2.159 -0.8659  1.1438 -2.0591
 4457TIP3   OH234785   3.238   3.259  13.279  0.0033 -0.5499  0.5460
 4457TIP3    H134786   3.197   3.251  13.193  0.6783  2.6382 -0.1454
 4457TIP3    H234787   3.174   3.222  13.340 -2.6525  1.5668 -0.8462
 4458TIP3   OH234788   1.159   6.690  15.333 -0.0960  0.3500 -0.2816
 4458TIP3    H134789   1.214   6.709  15.408  1.2082  1.7527 -1.5657
 4458TIP3    H234790   1.154   6.772  15.285 -0.3256 -0.7006 -2.1149
 4459TIP3   OH234791   1.599   4.878   5.887  0.9323 -0.1485  0.0922
 4459TIP3    H134792   1.596   4.951   5.824 -0.0101  1.2909  1.7662
 4459TIP3    H234793   1.689   4.880   5.920  0.6530  0.8515  0.8095
 4460TIP3   OH234794   4.780   0.750   3.648 -0.1456 -0.0737  0.3563
 4460TIP3    H134795   4.728   0.707   3.580  0.3899  2.2010 -1.5403
 4460TIP3    H234796   4.731   0.829   3.669  1.2150  0.7548  0.4466
 4461TIP3   OH234797   4.786   0.676  17.096  0.2601 -1.2156 -0.6885
 4461TIP3    H134798   4.845   0.751  17.105 -0.4171 -0.7040 -0.4828
 4461TIP3    H234799   4.792   0.652  17.004  1.5012 -1.7508 -0.4736
 4462TIP3   OH234800   2.141   3.575   0.661 -0.2640 -0.4613 -0.3548
 4462TIP3    H134801   2.183   3.501   0.704 -1.8614 -1.0369  0.2397
 4462TIP3    H234802   2.103   3.626   0.732 -0.7094 -0.0410 -0.8912
 4463TIP3   OH234803   6.273   5.578   0.438 -0.4268  0.3710 -0.1444
 4463TIP3    H134804   6.341   5.518   0.409 -0.2000  0.3015  0.5359
 4463TIP3    H234805   6.288   5.658   0.387 -0.8218 -0.1945 -1.1560
 4464TIP3   OH234806   5.250   3.249   2.622  0.0021 -0.7019 -0.6424
 4464TIP3    H134807   5.334   3.293   2.612 -0.5132  0.2249 -0.9445
 4464TIP3    H234808   5.219   3.275   2.709 -0.4899 -0.1218 -0.9828
 4465TIP3   OH234809   3.560   1.774   5.929 -0.1347 -0.2343 -0.6581
 4465TIP3    H134810   3.617   1.733   5.864  0.8171 -1.1534  0.7380
 4465TIP3    H234811   3.619   1.823   5.986 -1.0859  1.5955 -1.1969
 4466TIP3   OH234812   1.254   3.180   1.739  0.0263  0.0471 -0.2101
 4466TIP3    H134813   1.341   3.212   1.766  0.0093 -0.2237  0.1757
 4466TIP3    H234814   1.272   3.098   1.694  0.0981  0.7482 -1.4872
 4467TIP3   OH234815   2.966   6.642   2.071 -0.4884 -0.0142  0.5228
 4467TIP3    H134816   2.966   6.673   1.980 -1.1600 -0.6996  0.2820
 4467TIP3    H234817   3.008   6.556   2.066  2.3132  1.2511  1.3372
 4468TIP3   OH234818   3.487   1.575  16.792 -0.4745  0.5412  0.3696
 4468TIP3    H134819   3.582   1.567  16.776 -1.0186  1.0721 -3.6432
 4468TIP3    H234820   3.452   1.489  16.772 -0.7509  0.0345  2.9169
 4469TIP3   OH234821   1.457   3.633  16.333 -0.1059 -0.0873  0.4814
 4469TIP3    H134822   1.371   3.599  16.309 -0.3038  0.8170 -0.1257
 4469TIP3    H234823   1.516   3.600  16.265 -0.0794 -0.2287  0.5747
 4470TIP3   OH234824   6.284   5.023   3.939  0.1488  0.3930  0.2943
 4470TIP3    H134825   6.334   5.076   3.877  0.3495 -0.1584 -0.0196
 4470TIP3    H234826   6.350   4.988   3.999  0.2055 -0.7091 -0.3959
 4471TIP3   OH234827   6.046   1.044  11.693 -0.0155  0.2208  0.1606
 4471TIP3    H134828   6.064   1.125  11.740 -1.4803 -0.1969  1.4828
 4471TIP3    H234829   6.085   0.976  11.748 -3.0731 -0.4198  1.5900
 4472TIP3   OH234830   6.143   2.473  16.678  0.1215 -0.7196  0.2294
 4472TIP3    H134831   6.136   2.398  16.737 -2.1244 -1.8615 -1.3825
 4472TIP3    H234832   6.137   2.434  16.590 -0.6719  1.3079 -0.6373
 4473TIP3   OH234833   1.272   4.854  14.514 -0.0095 -0.2901 -0.4093
 4473TIP3    H134834   1.336   4.788  14.487  0.1493 -0.2224 -0.2089
 4473TIP3    H234835   1.198   4.842  14.456  0.1335 -0.4608 -0.5562
 4474TIP3   OH234836   4.516   5.358  11.093 -0.1322 -0.0015  0.0259
 4474TIP3    H134837   4.571   5.376  11.016  0.2355 -0.6180  0.1453
 4474TIP3    H234838   4.577   5.347  11.165 -0.3383 -1.7714 -0.0466
 4475TIP3   OH234839   4.616   1.186  14.014 -0.6922  0.4463 -0.3514
 4475TIP3    H134840   4.656   1.109  14.055 -2.8203  0.3933  1.7820
 4475TIP3    H234841   4.653   1.261  14.060 -2.0393  0.4479  0.7836
 4476TIP3   OH234842   4.989   6.196   3.089  0.2719 -0.2537 -0.1274
 4476TIP3    H134843   4.926   6.262   3.059  0.3057 -0.6932 -1.1881
 4476TIP3    H234844   4.946   6.154   3.163 -0.6026 -0.4075 -0.7154
 4477TIP3   OH234845   0.670   0.175  15.369  0.5862  0.2265  0.4126
 4477TIP3    H134846   0.600   0.195  15.307  1.4578  0.0083 -0.6565
 4477TIP3    H234847   0.751   0.190  15.320  1.2839 -1.0587  1.1370
 4478TIP3   OH234848   2.280   2.829   4.330 -0.3405  0.0272  0.3628
 4478TIP3    H134849   2.310   2.740   4.348  0.7141  0.0006 -1.4119
 4478TIP3    H234850   2.227   2.821   4.251  1.2450  1.2294 -0.8627
 4479TIP3   OH234851   6.135   2.650   6.576 -0.3406  0.1235 -0.1709
 4479TIP3    H134852   6.212   2.620   6.624 -0.5260 -0.2287 -0.0895
 4479TIP3    H234853   6.119   2.582   6.511 -0.1218  0.5776 -0.6991
 4480TIP3   OH234854   4.033   1.255   3.911 -0.2466  0.3017 -0.6606
 4480TIP3    H134855   3.980   1.334   3.916  0.3265  0.6837 -0.5761
 4480TIP3    H234856   4.017   1.209   3.993  0.5853  1.0790 -0.0570
 4481TIP3   OH234857   0.256   3.932   1.054  0.5690 -0.2095 -0.1027
 4481TIP3    H134858   0.200   3.914   1.130 -1.1049 -0.8914 -1.4662
 4481TIP3    H234859   0.295   3.847   1.033 -0.2370 -0.3599 -0.9944
 4482TIP3   OH234860   1.390   2.087  16.680  0.0401  0.2062 -0.1575
 4482TIP3    H134861   1.373   1.993  16.689 -0.2280  0.0193 -2.3176
 4482TIP3    H234862   1.411   2.116  16.769  0.6219 -1.9852  0.4549
 4483TIP3   OH234863   6.097   3.113  15.904  0.3365 -0.2810 -0.2893
 4483TIP3    H134864   6.025   3.118  15.842  0.5355 -0.8912 -0.5756
 4483TIP3    H234865   6.170   3.079  15.853  0.4139 -1.0894  0.3533
 4484TIP3   OH234866   3.109   2.135  13.031 -0.3383  0.5867  0.5582
 4484TIP3    H134867   3.077   2.219  12.999 -0.8429 -0.4135 -1.6188
 4484TIP3    H234868   3.198   2.128  12.996 -1.0277 -0.6891 -0.9832
 4485TIP3   OH234869   1.313   5.781  12.746  0.4822 -0.6811  0.1431
 4485TIP3    H134870   1.306   5.851  12.681  1.7839  0.5635  1.3015
 4485TIP3    H234871   1.279   5.704  12.702 -0.0135  0.4579 -1.5224
 4486TIP3   OH234872   2.676   0.327  10.035 -0.1650 -0.3822 -0.6537
 4486TIP3    H134873   2.623   0.260  10.079  1.6615 -1.1033  0.5589
 4486TIP3    H234874   2.708   0.382  10.107  2.6688 -1.4211 -1.0376
 4487TIP3   OH234875   3.012   0.693   0.144  0.3314  0.1609 -0.6878
 4487TIP3    H134876   3.032   0.603   0.169  0.6265  0.5074  0.3551
 4487TIP3    H234877   3.077   0.746   0.191  0.0551  0.9337 -1.1622
 4488TIP3   OH234878   4.955   2.063  16.635  0.2682  0.3590  0.0969
 4488TIP3    H134879   5.007   2.062  16.715  0.3915  2.0785  0.0562
 4488TIP3    H234880   5.003   2.007  16.574  0.5360 -0.3919  1.0043
 4489TIP3   OH234881   5.527   4.856  10.371 -0.3849  0.0035  0.0973
 4489TIP3    H134882   5.523   4.785  10.435 -1.3726 -0.4010 -0.3924
 4489TIP3    H234883   5.531   4.936  10.424 -0.5617 -0.3578  0.6627
 4490TIP3   OH234884   3.272   0.394  10.880 -0.4509  0.1884  0.0841
 4490TIP3    H134885   3.357   0.351  10.883  0.7134  2.2840 -1.1577
 4490TIP3    H234886   3.290   0.485  10.904 -1.8929  1.2301 -2.5207
 4491TIP3   OH234887   3.481   3.440  12.574  0.1586 -0.3867  0.1995
 4491TIP3    H134888   3.487   3.506  12.643  0.4244 -0.6678  0.4460
 4491TIP3    H234889   3.481   3.490  12.493 -1.8307  0.0425  0.4471
 4492TIP3   OH234890   4.797   1.627  15.450  0.2224  0.4775  0.1270
 4492TIP3    H134891   4.842   1.675  15.520 -0.0541  0.3265  0.4106
 4492TIP3    H234892   4.789   1.537  15.484 -1.9985  0.9362  0.8815
 4493TIP3   OH234893   0.629   2.225  12.836 -0.3518 -0.1919  0.6554
 4493TIP3    H134894   0.570   2.177  12.893  0.3530 -2.6354 -0.6181
 4493TIP3    H234895   0.625   2.178  12.753 -0.5730  2.6807 -1.0339
 4494TIP3   OH234896   2.212   6.542   3.512  0.8851  0.1982  0.5014
 4494TIP3    H134897   2.221   6.456   3.470  0.7118  0.0125  0.8433
 4494TIP3    H234898   2.230   6.526   3.604 -1.7834  0.0112  1.0379
 4495TIP3   OH234899   4.272   2.973   1.979  0.2351  0.5659  0.4575
 4495TIP3    H134900   4.208   2.948   2.046 -1.2421  0.3653 -0.9892
 4495TIP3    H234901   4.321   3.045   2.019 -0.0830 -0.0575  2.0439
 4496TIP3   OH234902   6.418   0.182   5.160  0.7179  0.2577 -0.3109
 4496TIP3    H134903   6.408   0.271   5.194  0.4412  0.2304 -0.3212
 4496TIP3    H234904   6.391   0.126   5.233 -0.7565  0.2138 -0.8735
 4497TIP3   OH234905   4.061   4.651   5.282 -0.6880  0.1181  0.1228
 4497TIP3    H134906   4.070   4.687   5.194  0.4608 -1.6277 -0.4966
 4497TIP3    H234907   3.997   4.708   5.325 -2.0627  0.3589 -2.1783
 4498TIP3   OH234908   2.887   5.259   2.626 -0.0506 -0.4552 -0.3880
 4498TIP3    H134909   2.941   5.296   2.556  0.7125  0.3026  0.5792
 4498TIP3    H234910   2.848   5.180   2.588  0.9950 -0.4905 -1.4055
 4499TIP3   OH234911   4.188   3.401   2.241  0.1576  0.0176 -0.4164
 4499TIP3    H134912   4.281   3.425   2.240  0.2372 -0.3033 -0.6753
 4499TIP3    H234913   4.188   3.306   2.245 -0.1636  0.0344 -0.0138
 4500TIP3   OH234914   0.415   3.306   4.910  0.1382  0.4545 -0.1430
 4500TIP3    H134915   0.471   3.272   4.979 -0.0424  0.2275 -0.1088
 4500TIP3    H234916   0.384   3.229   4.863 -0.7891  0.5179  0.3378
 4501TIP3   OH234917   4.163   5.087   4.398  0.2628 -0.8332 -0.2325
 4501TIP3    H134918   4.092   5.028   4.424 -1.1379  0.1049 -1.8500
 4501TIP3    H234919   4.216   5.034   4.338  0.3405 -1.1911  0.1452
 4502TIP3   OH234920   0.852   6.182   2.125 -0.1456 -0.1058  0.5739
 4502TIP3    H134921   0.820   6.256   2.074  1.1432 -0.2921 -0.5493
 4502TIP3    H234922   0.927   6.218   2.173  0.9437 -0.8386 -0.5445
 4503TIP3   OH234923   2.213   2.557   2.574  0.4349 -0.5390 -0.2841
 4503TIP3    H134924   2.118   2.567   2.568  0.4563 -0.6328 -0.7844
 4503TIP3    H234925   2.239   2.524   2.488  0.9644 -0.1633 -0.2692
 4504TIP3   OH234926   2.523   2.369  11.535 -0.0554  1.1745  0.1351
 4504TIP3    H134927   2.522   2.282  11.576 -1.4944  1.8172  1.5359
 4504TIP3    H234928   2.432   2.384  11.509  0.2397  2.1346 -0.3624
 4505TIP3   OH234929   3.746   4.812   2.742 -0.1590  0.5983 -0.9323
 4505TIP3    H134930   3.772   4.723   2.764 -0.4699  1.2963  2.5189
 4505TIP3    H234931   3.655   4.804   2.712  0.2190 -0.3857 -1.8288
 4506TIP3   OH234932   0.305   0.357   6.674 -0.4185 -0.5951 -0.3200
 4506TIP3    H134933   0.332   0.355   6.582 -2.3865 -0.3053 -0.9185
 4506TIP3    H234934   0.372   0.410   6.717 -0.7601  1.2922 -2.0375
 4507TIP3   OH234935   1.437   4.096  12.345  0.8021 -0.0720 -0.5895
 4507TIP3    H134936   1.357   4.108  12.293  0.8383 -1.1049 -0.9041
 4507TIP3    H234937   1.508   4.116  12.284  0.8478 -1.3722 -0.9873
 4508TIP3   OH234938   0.202   1.726  11.331  0.1017  0.5984 -0.4490
 4508TIP3    H134939   0.168   1.784  11.399  0.1145  1.5970 -1.2820
 4508TIP3    H234940   0.212   1.782  11.254  0.1256 -0.5028 -1.2678
 4509TIP3   OH234941   1.613   5.653  15.189  0.4224  0.4293 -0.2929
 4509TIP3    H134942   1.686   5.692  15.237 -0.3497  1.9579 -0.3170
 4509TIP3    H234943   1.654   5.591  15.129  1.5373 -0.1491  1.0486
 4510TIP3   OH234944   1.658   3.492   3.490  0.0094 -0.3544  0.1291
 4510TIP3    H134945   1.729   3.504   3.554  0.2647  0.5023 -0.3041
 4510TIP3    H234946   1.695   3.433   3.425  0.2313 -0.1083  0.0344
 4511TIP3   OH234947   3.156   5.561   3.140  0.2409 -0.4265  0.3618
 4511TIP3    H134948   3.105   5.544   3.220 -1.0574  1.8407  0.0570
 4511TIP3    H234949   3.239   5.595   3.172 -0.4244  0.8575  0.7768
 4512TIP3   OH234950   3.151   6.063   0.223  0.0060  0.3302  0.7596
 4512TIP3    H134951   3.164   6.054   0.317 -1.8731 -0.5685  0.9543
 4512TIP3    H234952   3.057   6.079   0.213  0.4225  1.9370 -0.8679
 4513TIP3   OH234953   1.132   1.711   0.522  0.1057 -0.1117  0.2234
 4513TIP3    H134954   1.106   1.781   0.583  0.1656 -0.7233  0.9627
 4513TIP3    H234955   1.115   1.630   0.571 -0.0570 -0.6174 -0.6660
 4514TIP3   OH234956   5.665   3.033   3.264 -0.0194 -0.2859  0.0477
 4514TIP3    H134957   5.686   2.951   3.221  0.6827 -1.3335  2.3176
 4514TIP3    H234958   5.575   3.053   3.237  0.4553 -0.8359 -1.9680
 4515TIP3   OH234959   6.586   0.852   0.646 -0.0917  0.6579 -0.0675
 4515TIP3    H134960   6.491   0.835   0.645 -0.0291  0.2969 -1.9128
 4515TIP3    H234961   6.596   0.926   0.705 -1.3608 -0.1898  1.2560
 4516TIP3   OH234962   3.535   1.778   1.487  0.5258  0.0800 -0.3404
 4516TIP3    H134963   3.458   1.833   1.496  1.8564  2.0062 -0.3475
 4516TIP3    H234964   3.578   1.782   1.572  1.4681  0.3907 -0.8109
 4517TIP3   OH234965   1.687   2.152   5.218  0.2115  0.1032 -0.2674
 4517TIP3    H134966   1.606   2.104   5.198 -0.1100  0.0585  1.1184
 4517TIP3    H234967   1.659   2.242   5.234  0.4761  0.1500 -0.0643
 4518TIP3   OH234968   3.978   5.402   5.399  0.1368 -0.1146 -0.8140
 4518TIP3    H134969   3.947   5.321   5.439 -0.2449 -0.0382 -0.9549
 4518TIP3    H234970   4.024   5.374   5.320  0.7547 -0.2543 -0.4114
 4519TIP3   OH234971   4.904   1.888  13.171  0.4284 -0.2206  0.6144
 4519TIP3    H134972   4.813   1.898  13.198  0.2254  1.5512 -0.6551
 4519TIP3    H234973   4.901   1.830  13.096  0.0421  1.7679 -0.9588
 4520TIP3   OH234974   5.450   3.561   1.306 -0.1279 -0.5985  0.7777
 4520TIP3    H134975   5.517   3.567   1.238 -0.8665 -0.0875  0.0882
 4520TIP3    H234976   5.479   3.489   1.362 -0.5653 -2.3664 -1.2311
 4521TIP3   OH234977   4.266   5.474   0.755 -0.0504 -0.0744 -0.3153
 4521TIP3    H134978   4.189   5.531   0.756  0.0387  0.0772 -1.2018
 4521TIP3    H234979   4.340   5.532   0.770 -0.0155 -0.0494 -0.5754
 4522TIP3   OH234980   1.753   3.338  17.227 -0.0596  0.3486  0.0091
 4522TIP3    H134981   1.755   3.248  17.261  1.2304  1.2628  2.4424
 4522TIP3    H234982   1.717   3.390  17.298  1.3741  2.1157 -0.5250
 4523TIP3   OH234983   1.016   5.405   4.195  0.0986  0.2082  0.1632
 4523TIP3    H134984   1.022   5.311   4.178 -0.6895  0.6734 -3.0539
 4523TIP3    H234985   0.924   5.426   4.181  0.0828  1.3279  1.8199
 4524TIP3   OH234986   4.531   2.355  12.346  0.0076 -0.1801  0.0928
 4524TIP3    H134987   4.460   2.409  12.380 -0.1501  0.0144 -0.5365
 4524TIP3    H234988   4.590   2.344  12.421  1.0846  2.5846 -0.2821
 4525TIP3   OH234989   0.876   0.886   3.362 -0.5730  0.4648 -0.5549
 4525TIP3    H134990   0.797   0.920   3.405  0.4795  2.2588  0.0358
 4525TIP3    H234991   0.903   0.812   3.416 -1.9565 -0.2827 -0.8723
 4526TIP3   OH234992   3.394   6.188  11.952  0.0026  0.4332 -0.2487
 4526TIP3    H134993   3.483   6.220  11.937 -0.1971  0.4284 -1.5502
 4526TIP3    H234994   3.397   6.095  11.932  0.1419  0.0268  1.6378
 4527TIP3   OH234995   0.625   2.428   0.795  0.4943 -0.2973  0.0208
 4527TIP3    H134996   0.643   2.425   0.701 -0.5321 -1.2898 -0.1537
 4527TIP3    H234997   0.709   2.408   0.836  0.0315 -4.3538 -0.7712
 4528TIP3   OH234998   4.548   3.184   0.952  0.2545 -0.0447  0.5890
 4528TIP3    H134999   4.596   3.253   0.998  0.3852  0.1769  0.1211
 4528TIP3    H235000   4.539   3.115   1.017  1.9888 -0.4590  0.4307
 4529TIP3   OH235001   1.549   0.452   0.402 -0.5367  0.3262 -0.1289
 4529TIP3    H135002   1.458   0.426   0.414 -0.3785 -0.8490 -1.3713
 4529TIP3    H235003   1.544   0.537   0.358 -1.0219  0.3276 -0.0742
 4530TIP3   OH235004   6.334   2.092  12.650  0.6694 -0.1455  0.2029
 4530TIP3    H135005   6.354   2.062  12.739  0.7888 -1.2813 -0.1925
 4530TIP3    H235006   6.399   2.159  12.631 -0.6372  1.6102  1.7471
 4531TIP3   OH235007   1.513   4.085  14.405  0.2357 -0.0433  0.3530
 4531TIP3    H135008   1.430   4.036  14.403  0.6294 -0.7085  0.3655
 4531TIP3    H235009   1.538   4.093  14.313  0.7264 -0.7981  0.4270
 4532TIP3   OH235010   3.811   6.001   6.321  0.2238 -0.0289  0.6387
 4532TIP3    H135011   3.750   6.033   6.387  0.5685  1.7833  0.1118
 4532TIP3    H235012   3.761   5.934   6.274 -0.6857  0.0347  1.4814
 4533TIP3   OH235013   6.561   2.349  15.357 -0.0218 -0.0152 -0.8819
 4533TIP3    H135014   6.630   2.385  15.301 -1.0301  0.0788 -2.0968
 4533TIP3    H235015   6.484   2.346  15.300 -0.8404 -0.7667  0.2559
 4534TIP3   OH235016   1.024   3.517   0.273  0.1358  0.6857  0.4104
 4534TIP3    H135017   0.971   3.480   0.343  0.5294  0.6465  0.6870
 4534TIP3    H235018   0.962   3.572   0.224  0.1766  1.9002  1.6689
 4535TIP3   OH235019   5.662   1.232  14.948 -0.0727  0.6968  0.0086
 4535TIP3    H135020   5.604   1.243  15.023  1.8293  3.8637  1.1363
 4535TIP3    H235021   5.690   1.141  14.952 -1.6325  0.2806  1.9275
 4536TIP3   OH235022   1.995   2.241  15.473  0.1920  0.2870 -0.0043
 4536TIP3    H135023   1.928   2.307  15.487  0.8645  1.2456 -1.2394
 4536TIP3    H235024   2.076   2.290  15.464  1.1232 -0.8891  1.8157
 4537TIP3   OH235025   6.625   4.050  15.210  0.0992  0.9178  0.4282
 4537TIP3    H135026   6.683   4.126  15.209 -0.4016  1.3014  0.1927
 4537TIP3    H235027   6.661   3.993  15.278  1.5895  0.4908 -0.6776
 4538TIP3   OH235028   5.511   5.896  15.123 -0.0614  0.0379 -0.2367
 4538TIP3    H135029   5.563   5.816  15.127 -0.5198 -0.2611 -0.2665
 4538TIP3    H235030   5.521   5.936  15.209 -0.5999 -0.5354  0.0968
 4539TIP3   OH235031   1.384   3.725   5.986 -0.2569 -0.0621 -0.5306
 4539TIP3    H135032   1.392   3.666   6.060  3.7406  0.5372 -0.3572
 4539TIP3    H235033   1.332   3.799   6.018 -0.7438 -1.0142  0.8699
 4540TIP3   OH235034   5.087   4.406  15.272 -0.4116 -0.1396  0.1008
 4540TIP3    H135035   5.062   4.331  15.326 -1.1264 -1.3833 -1.9156
 4540TIP3    H235036   5.180   4.418  15.288 -0.0760 -2.1073 -0.3470
 4541TIP3   OH235037   5.518   2.633  15.396  0.2723 -0.2924  0.5051
 4541TIP3    H135038   5.470   2.715  15.405 -0.3703 -0.6659  0.5226
 4541TIP3    H235039   5.528   2.622  15.301 -0.7586 -0.8294  0.4514
 4542TIP3   OH235040   5.756   3.499  16.045  0.0426 -0.4398 -0.0003
 4542TIP3    H135041   5.684   3.523  16.104 -0.2169 -0.5585 -0.2667
 4542TIP3    H235042   5.789   3.416  16.081 -0.2207 -0.5952 -0.1133
 4543TIP3   OH235043   2.710   4.567  13.335  0.0426 -0.2459  0.0527
 4543TIP3    H135044   2.783   4.581  13.395  0.7179 -0.2305 -0.7475
 4543TIP3    H235045   2.704   4.649  13.286 -0.1081 -0.4711 -0.3083
 4544TIP3   OH235046   2.678   5.336   6.454  0.3901  0.6166 -0.2511
 4544TIP3    H135047   2.655   5.261   6.508 -0.5476  0.6301 -0.6332
 4544TIP3    H235048   2.730   5.300   6.383  3.1134  0.8057  1.5577
 4545TIP3   OH235049   4.943   0.555   2.198 -0.1034  0.2836 -0.0522
 4545TIP3    H135050   4.961   0.502   2.121 -2.5716 -0.4916 -0.1594
 4545TIP3    H235051   4.960   0.645   2.171 -0.2610 -0.0572 -1.2942
 4546TIP3   OH235052   3.952   1.863   2.335 -0.1088  0.2652 -0.7847
 4546TIP3    H135053   4.022   1.801   2.356 -1.8522 -1.0707  1.2848
 4546TIP3    H235054   3.998   1.945   2.316  2.0235 -0.6456  0.2617
 4547TIP3   OH235055   5.829   4.883  13.273  0.3703  0.3075  0.0267
 4547TIP3    H135056   5.877   4.947  13.221 -2.3781  2.1081 -0.3838
 4547TIP3    H235057   5.743   4.880  13.233 -0.4769 -1.4130  1.9234
 4548TIP3   OH235058   0.745   4.787  16.099  0.6980  0.1386  0.6951
 4548TIP3    H135059   0.792   4.864  16.130  1.4212 -0.4096  0.9711
 4548TIP3    H235060   0.654   4.802  16.126  0.4346  1.8333 -1.0366
 4549TIP3   OH235061   4.042   5.936  13.535  0.3255  0.2628 -1.2016
 4549TIP3    H135062   4.046   6.011  13.475  2.0587 -0.1801 -1.6715
 4549TIP3    H235063   3.969   5.884  13.504 -1.0165  1.8372 -0.7647
 4550TIP3   OH235064   2.793   2.384   4.861 -0.1846  0.4970 -0.3923
 4550TIP3    H135065   2.774   2.390   4.955 -0.8662 -0.0767 -0.4896
 4550TIP3    H235066   2.774   2.471   4.826  0.9189  0.9693  0.1494
 4551TIP3   OH235067   2.951   6.670   4.279  0.3557  0.6818  0.1413
 4551TIP3    H135068   3.023   6.619   4.242  0.0391 -0.3660  0.9408
 4551TIP3    H235069   2.947   6.749   4.225  0.6745 -0.2646 -1.2922
 4552TIP3   OH235070   2.038   3.436  14.251  0.3078  0.3990 -0.2379
 4552TIP3    H135071   2.105   3.487  14.296  0.6341 -0.4401  0.2248
 4552TIP3    H235072   2.003   3.378  14.318 -0.6328  0.5818 -0.5667
 4553TIP3   OH235073   2.266   3.265   3.617  0.2155  0.0232 -0.1389
 4553TIP3    H135074   2.235   3.332   3.678  0.7421  0.8416 -0.7575
 4553TIP3    H235075   2.238   3.182   3.656  2.1066  0.4058  2.1391
 4554TIP3   OH235076   1.634   2.967  12.004 -0.3379 -0.3235 -0.1313
 4554TIP3    H135077   1.548   2.943  11.970 -0.1063 -2.0911  0.4676
 4554TIP3    H235078   1.694   2.906  11.961  0.5906  0.6566 -0.2619
 4555TIP3   OH235079   3.796   6.580   5.548  0.3291  0.0534 -0.0821
 4555TIP3    H135080   3.709   6.613   5.569  0.4834 -0.1190  0.8731
 4555TIP3    H235081   3.785   6.485   5.543  0.7351 -0.0905  1.4703
 4556TIP3   OH235082   2.717   4.726  13.707  0.9428 -0.5615  0.4638
 4556TIP3    H135083   2.737   4.693  13.795  3.4021  1.3484  0.6618
 4556TIP3    H235084   2.705   4.820  13.718 -1.2954 -0.6366 -0.8721
 4557TIP3   OH235085   5.673   5.517   5.652  0.2789 -0.0437 -0.1936
 4557TIP3    H135086   5.723   5.490   5.729 -1.0274 -0.3283  0.5538
 4557TIP3    H235087   5.718   5.596   5.621  0.4693  0.3891  1.1742
 4558TIP3   OH235088   5.744   1.733   2.325 -0.7987  0.6067 -0.2121
 4558TIP3    H135089   5.742   1.775   2.238 -0.1460  0.6361 -0.2161
 4558TIP3    H235090   5.828   1.759   2.362 -0.0261 -1.3831 -0.5512
 4559TIP3   OH235091   0.445   3.003  11.609 -0.4226  0.4807 -0.0641
 4559TIP3    H135092   0.381   3.055  11.658 -0.5134  0.8246 -0.5518
 4559TIP3    H235093   0.420   3.013  11.517 -1.7800 -2.1609 -0.0449
 4560TIP3   OH235094   4.916   4.296   2.200 -0.3745  0.2012 -0.3618
 4560TIP3    H135095   4.988   4.357   2.185 -1.2493  1.4360  0.3714
 4560TIP3    H235096   4.875   4.286   2.114 -0.2228  0.6440 -0.4862
 4561TIP3   OH235097   0.645   4.837  17.014  0.9731  0.0909  0.7745
 4561TIP3    H135098   0.688   4.882  17.086  0.1449  2.7574 -0.3247
 4561TIP3    H235099   0.561   4.809  17.050  0.8547  0.7916  1.0527
 4562TIP3   OH235100   3.270   0.041  17.173  0.2545 -0.7740  0.3003
 4562TIP3    H135101   3.269   0.095  17.094  2.8620  2.4679  2.3762
 4562TIP3    H235102   3.338  -0.024  17.156 -1.5514 -2.2880 -1.4264
 4563TIP3   OH235103   4.431   0.308   1.089  0.5562 -0.2584 -0.5634
 4563TIP3    H135104   4.446   0.343   1.177  1.0975 -1.9395  0.0337
 4563TIP3    H235105   4.351   0.351   1.059  0.1513  0.0418  0.9102
 4564TIP3   OH235106   4.869   2.456  14.583  0.1812 -0.3411 -0.0887
 4564TIP3    H135107   4.932   2.504  14.530  0.7143 -0.2036  0.6614
 4564TIP3    H235108   4.820   2.403  14.520  2.2198 -1.8041 -0.4930
 4565TIP3   OH235109   0.465   3.153  12.464 -0.3571 -0.2785  0.5635
 4565TIP3    H135110   0.548   3.155  12.510 -1.0477 -1.6145  1.9293
 4565TIP3    H235111   0.450   3.060  12.445 -3.0063 -0.4998  3.2093
 4566TIP3   OH235112   1.328   0.036   4.915  0.3061 -0.0238 -0.3245
 4566TIP3    H135113   1.343   0.024   5.009  0.6594  0.2453 -0.3416
 4566TIP3    H235114   1.360   0.125   4.898  0.5879 -0.2119 -0.7713
 4567TIP3   OH235115   4.387   6.660   3.514 -0.7934  0.1216 -0.6351
 4567TIP3    H135116   4.328   6.711   3.569 -1.4665 -2.3500  1.0045
 4567TIP3    H235117   4.332   6.626   3.444 -0.8440 -0.2755 -0.4052
 4568TIP3   OH235118   5.374   2.807   1.444 -0.0486  0.0673  0.2662
 4568TIP3    H135119   5.290   2.813   1.397  0.6132  3.7807 -0.5948
 4568TIP3    H235120   5.350   2.819   1.536 -0.6214 -0.3412  0.1764
 4569TIP3   OH235121   1.070   0.010  10.803 -0.9087 -0.0567  0.5193
 4569TIP3    H135122   1.043  -0.077  10.776  0.0978 -0.1273 -0.2868
 4569TIP3    H235123   1.146   0.030  10.748 -0.7002  1.0360  1.1839
 4570TIP3   OH235124   1.398   6.303   1.614 -0.3288 -0.3801 -0.0664
 4570TIP3    H135125   1.387   6.397   1.629  0.2780  0.0634 -2.1301
 4570TIP3    H235126   1.320   6.278   1.565  0.6010 -0.4171 -1.5824
 4571TIP3   OH235127   1.773   0.532  14.364 -0.1277  0.0773  0.4700
 4571TIP3    H135128   1.766   0.451  14.313 -0.0426 -1.0348  2.2045
 4571TIP3    H235129   1.863   0.532  14.397  0.0835  1.2267 -0.0646
 4572TIP3   OH235130   6.120   2.156  16.496  0.2055 -0.5308  0.4363
 4572TIP3    H135131   6.086   2.117  16.415 -0.5278  0.3474  0.3101
 4572TIP3    H235132   6.097   2.094  16.564  0.2913 -0.9902  0.0519
 4573TIP3   OH235133   4.148   2.076   5.315  0.3964 -0.4609 -0.5954
 4573TIP3    H135134   4.155   2.042   5.404  2.3922 -1.4652 -1.1203
 4573TIP3    H235135   4.056   2.061   5.291 -0.2100  0.0386  1.3607
 4574TIP3   OH235136   6.274   6.218   2.723  0.2363  0.8120  0.3603
 4574TIP3    H135137   6.195   6.166   2.737 -0.6147  2.0658  0.3190
 4574TIP3    H235138   6.275   6.237   2.629  1.0413  0.1021  0.2153
 4575TIP3   OH235139   1.418   2.249  13.588 -0.3347 -0.1580  0.0490
 4575TIP3    H135140   1.433   2.291  13.504  2.0466 -0.0752  0.4710
 4575TIP3    H235141   1.360   2.309  13.635  2.1817  2.2042  0.2597
 4576TIP3   OH235142   3.175   3.370   0.229  0.1908 -0.4984  0.0035
 4576TIP3    H135143   3.213   3.314   0.297  1.1205 -1.0355 -0.9299
 4576TIP3    H235144   3.082   3.350   0.232  0.2308 -0.5724  1.0668
 4577TIP3   OH235145   3.730   4.692   4.390 -0.3987  0.2019 -0.0181
 4577TIP3    H135146   3.736   4.770   4.444 -0.9800 -1.0427  1.8985
 4577TIP3    H235147   3.813   4.689   4.342  1.0173  0.2447  2.3605
 4578TIP3   OH235148   3.583   1.071   2.379  0.1448  0.7996 -0.4349
 4578TIP3    H135149   3.525   1.067   2.455 -0.2358 -0.1553 -0.7688
 4578TIP3    H235150   3.634   0.991   2.383  0.7520  1.1718 -0.6954
 4579TIP3   OH235151   0.204   6.185  13.582  0.0850  0.3618  0.0417
 4579TIP3    H135152   0.281   6.171  13.527 -0.5266 -0.3484 -0.6465
 4579TIP3    H235153   0.227   6.144  13.665  1.6028  2.7541  0.8541
 4580TIP3   OH235154   3.560   6.468   0.057 -0.3804 -0.4804  0.6474
 4580TIP3    H135155   3.526   6.506  -0.024 -1.8620 -1.5658  0.7509
 4580TIP3    H235156   3.600   6.542   0.103  0.8114  0.0773 -1.2307
 4581TIP3   OH235157   5.443   4.606  13.832  0.1468  0.0210  0.7261
 4581TIP3    H135158   5.492   4.544  13.779 -1.1464 -0.4092 -0.0013
 4581TIP3    H235159   5.384   4.649  13.770  1.6747  2.6781  1.0613
 4582TIP3   OH235160   6.532   3.862   3.805 -0.3888 -0.2119 -0.8855
 4582TIP3    H135161   6.592   3.814   3.862 -0.6435  0.4997 -0.0152
 4582TIP3    H235162   6.506   3.798   3.738 -1.4519 -1.5657  0.7860
 4583TIP3   OH235163   6.612   6.471  14.034 -0.2253 -0.5894  0.1434
 4583TIP3    H135164   6.654   6.463  13.948 -0.2903  0.1924  0.0364
 4583TIP3    H235165   6.684   6.472  14.096 -0.2536 -3.6124  0.3112
 4584TIP3   OH235166   0.178   1.776   5.805  0.1319 -0.7962  0.6206
 4584TIP3    H135167   0.188   1.760   5.711  2.4283  1.1266  0.5108
 4584TIP3    H235168   0.083   1.787   5.817 -0.0117  1.0304 -1.8358
 4585TIP3   OH235169   4.113   3.429   5.841 -0.2018 -0.2043  0.4890
 4585TIP3    H135170   4.056   3.362   5.877  0.9613 -1.5284 -0.0973
 4585TIP3    H235171   4.151   3.472   5.917 -0.7821 -0.3551  0.8655
 4586TIP3   OH235172   1.877   1.720  14.886  0.7119 -0.2365 -0.5818
 4586TIP3    H135173   1.803   1.667  14.916  0.4364  0.1324 -0.6049
 4586TIP3    H235174   1.935   1.725  14.962  0.2468  0.2863 -0.2487
 4587TIP3   OH235175   6.522   3.065   4.208  0.7614 -0.1019  0.1540
 4587TIP3    H135176   6.612   3.047   4.182  1.3458 -1.3859  2.9233
 4587TIP3    H235177   6.472   2.990   4.177  0.6797  0.4410 -1.0636
 4588TIP3   OH235178   0.772   4.835  15.215  0.4171 -0.2307 -0.3674
 4588TIP3    H135179   0.829   4.870  15.284  1.0300 -0.1353 -0.9121
 4588TIP3    H235180   0.816   4.860  15.133 -0.1227 -0.6401 -0.7859
 4589TIP3   OH235181   3.445   5.174  14.932  0.4759 -0.3631 -0.2305
 4589TIP3    H135182   3.373   5.202  14.875  0.4017 -0.1083 -0.0152
 4589TIP3    H235183   3.409   5.179  15.021  1.2704  1.4166  0.0207
 4590TIP3   OH235184   4.319   6.608  12.774 -0.0687  0.2686  0.2644
 4590TIP3    H135185   4.411   6.582  12.770  0.0682  0.6404  0.9109
 4590TIP3    H235186   4.295   6.595  12.866 -0.8922 -0.6153 -0.0567
 4591TIP3   OH235187   6.371   6.294  13.267  0.3313  0.4718 -0.5764
 4591TIP3    H135188   6.432   6.307  13.339 -0.9781 -2.8241  1.2227
 4591TIP3    H235189   6.304   6.361  13.279  0.2168  0.0551  1.1981
 4592TIP3   OH235190   1.143   3.530   1.938  0.2903  0.0220 -0.1935
 4592TIP3    H135191   1.093   3.567   2.011 -1.8932  0.5488 -1.8898
 4592TIP3    H235192   1.088   3.459   1.905  0.8577  0.3147 -1.8120
 4593TIP3   OH235193   1.859   1.797   1.877  0.2497  0.1284  0.1011
 4593TIP3    H135194   1.884   1.835   1.793  2.0659 -1.4164 -0.1115
 4593TIP3    H235195   1.819   1.713   1.855  0.9434 -0.3918  0.7551
 4594TIP3   OH235196   3.980   3.953   4.648  0.3185  0.1117 -0.4717
 4594TIP3    H135197   3.906   3.903   4.615  0.6761 -0.2835 -0.6755
 4594TIP3    H235198   3.958   4.044   4.627  0.7142 -0.1658 -2.1475
 4595TIP3   OH235199   2.057   4.591  12.550  0.1991  0.0389 -0.3473
 4595TIP3    H135200   1.985   4.542  12.590  0.2087  0.0858 -0.2707
 4595TIP3    H235201   2.027   4.681  12.547  0.5962  0.2043  0.4891
 4596TIP3   OH235202   2.847   3.134  13.914 -0.0877 -0.0227 -0.2735
 4596TIP3    H135203   2.760   3.138  13.874  1.2915  1.8531 -3.2361
 4596TIP3    H235204   2.859   3.221  13.953 -0.1735 -0.8225  1.5825
 4597TIP3   OH235205   2.338   6.267   3.109  0.9765 -0.3941 -0.4326
 4597TIP3    H135206   2.376   6.352   3.087 -0.1518  0.6352  1.4712
 4597TIP3    H235207   2.396   6.203   3.067  3.3731  1.2035  0.3561
 4598TIP3   OH235208   5.155   3.857  13.101  0.7592  0.1752 -0.5772
 4598TIP3    H135209   5.217   3.906  13.155  0.6516  0.1518 -0.4318
 4598TIP3    H235210   5.158   3.901  13.016 -0.6784  1.6012  0.0612
 4599TIP3   OH235211   2.229   5.025  12.445 -0.1005  0.2215  0.1030
 4599TIP3    H135212   2.297   5.052  12.384 -0.2202  1.4178  0.4732
 4599TIP3    H235213   2.273   5.025  12.531  0.4229 -2.7583 -0.1244
 4600TIP3   OH235214   4.445   4.980  11.062  0.2995 -0.1058 -0.0059
 4600TIP3    H135215   4.418   4.997  11.152  1.6977  1.6217  0.1219
 4600TIP3    H235216   4.365   4.987  11.010 -0.6610 -1.9522  1.1855
 4601TIP3   OH235217   3.084   2.644   0.010  0.2327 -0.1207 -0.1036
 4601TIP3    H135218   3.040   2.728   0.019  0.0359 -0.0827 -1.3314
 4601TIP3    H235219   3.019   2.580   0.040  0.0899  0.1073  0.0717
 4602TIP3   OH235220   6.388   5.797   1.022  0.6047  0.8106 -0.8638
 4602TIP3    H135221   6.373   5.876   0.970  0.7895  1.4689  0.0729
 4602TIP3    H235222   6.464   5.818   1.076  0.8445 -0.1238 -0.8336
 4603TIP3   OH235223   0.644   1.851  15.894  0.3811 -0.1160  0.6457
 4603TIP3    H135224   0.607   1.765  15.879  0.9206 -0.7292  2.5955
 4603TIP3    H235225   0.679   1.878  15.809 -1.6424 -0.8928 -0.4582
 4604TIP3   OH235226   0.755   4.999   0.863 -0.0824  0.7634 -0.2244
 4604TIP3    H135227   0.787   5.059   0.930  0.5430  0.2376 -0.0460
 4604TIP3    H235228   0.792   5.032   0.781  0.2332  0.6442 -0.1305
 4605TIP3   OH235229   3.156   4.296  13.233 -0.1468  0.4672  0.1461
 4605TIP3    H135230   3.230   4.334  13.281 -0.1973  0.6244  0.0984
 4605TIP3    H235231   3.091   4.279  13.301  0.3887 -0.7736  0.3629
 4606TIP3   OH235232   0.916   3.022   1.678 -0.1740 -0.2590 -0.2832
 4606TIP3    H135233   0.859   2.997   1.752 -0.1785  2.3186  0.6262
 4606TIP3    H235234   1.005   3.005   1.710 -0.2257 -0.0855 -0.0419
 4607TIP3   OH235235   6.097   2.933  11.826 -0.3807  0.3965  0.1264
 4607TIP3    H135236   6.037   2.860  11.812 -1.4094  1.1556  0.5588
 4607TIP3    H235237   6.074   2.967  11.913  0.1985  1.1344 -0.0030
 4608TIP3   OH235238   5.631   4.562  17.199  0.5304  1.1427  0.0350
 4608TIP3    H135239   5.716   4.543  17.240  0.4423 -1.1173 -0.7928
 4608TIP3    H235240   5.582   4.480  17.205 -1.0366  1.9821 -0.8798
 4609TIP3   OH235241   6.246   2.687  13.429  0.3719  0.3131 -0.0634
 4609TIP3    H135242   6.172   2.726  13.382  1.0839 -0.0801 -1.5652
 4609TIP3    H235243   6.321   2.699  13.370  0.9413 -1.7819  0.1829
 4610TIP3   OH235244   4.823   3.302  13.751  0.4235 -0.0737  0.2315
 4610TIP3    H135245   4.902   3.351  13.727 -0.4328  1.0295 -0.4209
 4610TIP3    H235246   4.846   3.210  13.740  1.3691  0.2753 -0.7046
 4611TIP3   OH235247   6.054   3.158   2.136  0.3179  0.1649 -0.4919
 4611TIP3    H135248   6.114   3.099   2.182  0.4740  0.2036 -0.6479
 4611TIP3    H235249   6.051   3.237   2.190 -1.3195 -0.6770  0.7136
 4612TIP3   OH235250   3.903   4.675  12.318  0.3712 -0.6395  0.4300
 4612TIP3    H135251   3.954   4.664  12.238 -1.8547 -0.6905 -1.0348
 4612TIP3    H235252   3.891   4.769  12.327 -0.3458 -0.6866  0.0441
 4613TIP3   OH235253   3.024   4.256  15.405  0.3574  0.0822  0.0071
 4613TIP3    H135254   3.071   4.223  15.481  0.4376 -1.0963 -0.5374
 4613TIP3    H235255   2.952   4.308  15.441  0.9012  0.2508  0.8639
 4614TIP3   OH235256   4.745   5.955   1.054  0.1459  0.1262 -0.8475
 4614TIP3    H135257   4.723   6.039   1.014  0.6455  1.3303  1.3168
 4614TIP3    H235258   4.840   5.947   1.042  0.2222  0.2603 -0.3337
 4615TIP3   OH235259   0.950   5.236   4.611  0.6762 -0.1385 -0.3681
 4615TIP3    H135260   1.002   5.317   4.610  2.1683 -1.0715  0.2921
 4615TIP3    H235261   1.008   5.171   4.650 -0.6465 -1.4525 -0.5664
 4616TIP3   OH235262   2.980   5.009   2.795  0.4738  0.1868 -0.2623
 4616TIP3    H135263   2.911   5.035   2.733 -1.8370 -0.2165  2.0468
 4616TIP3    H235264   2.982   4.913   2.789 -1.9491 -0.1106  2.4213
 4617TIP3   OH235265   2.600   1.070  13.179 -0.6086 -0.2415 -0.2182
 4617TIP3    H135266   2.533   1.136  13.195  0.2163  0.4590  0.4434
 4617TIP3    H235267   2.615   1.030  13.264  2.0945  1.8395  0.3435
 4618TIP3   OH235268   6.626   4.789  10.499  0.1441  0.1491 -0.0847
 4618TIP3    H135269   6.698   4.758  10.445  0.1565 -0.1451  0.0964
 4618TIP3    H235270   6.590   4.864  10.452  0.5645  0.2913 -0.1768
 4619TIP3   OH235271   3.673   3.250  12.573 -0.3272 -0.2549 -0.3952
 4619TIP3    H135272   3.622   3.329  12.588  1.2495  0.6483  0.3447
 4619TIP3    H235273   3.677   3.241  12.478 -1.0018  0.2124 -0.4716
 4620TIP3   OH235274   4.875   0.544  11.943  0.0569  0.0167  0.4684
 4620TIP3    H135275   4.886   0.639  11.954 -1.3506  0.4583 -1.4768
 4620TIP3    H235276   4.786   0.526  11.974  0.0401 -0.5111  0.1322
 4621TIP3   OH235277   1.484   1.557  11.947  0.1157 -0.3980 -0.4539
 4621TIP3    H135278   1.414   1.503  11.986 -0.6149  0.7704 -0.1271
 4621TIP3    H235279   1.465   1.557  11.853 -1.1543  1.0684 -0.2135
 4622TIP3   OH235280   6.463   0.451  15.439  0.2196 -0.0523  0.0231
 4622TIP3    H135281   6.484   0.361  15.464 -2.2739 -0.2776  1.4720
 4622TIP3    H235282   6.513   0.505  15.500 -0.4875 -0.5088  1.0175
 4623TIP3   OH235283   4.007   3.265  14.500  0.0353 -0.2211 -0.3796
 4623TIP3    H135284   3.943   3.297  14.436  0.0565  0.4956 -0.0428
 4623TIP3    H235285   4.060   3.342  14.522  0.3286 -0.5696  0.1439
 4624TIP3   OH235286   3.768   3.018   3.290  0.3240 -0.2387 -0.0219
 4624TIP3    H135287   3.829   2.946   3.303 -0.7410 -1.0759  0.4200
 4624TIP3    H235288   3.732   3.004   3.202  0.6628  0.1794 -0.2304
 4625TIP3   OH235289   0.522   4.910   6.579 -0.0700 -0.1019  0.1866
 4625TIP3    H135290   0.522   4.910   6.674  0.9098 -0.0485  0.1895
 4625TIP3    H235291   0.474   4.831   6.554 -1.5447  0.6034  0.7112
 4626TIP3   OH235292   4.484   6.583   3.228 -0.0806  0.9342  0.1739
 4626TIP3    H135293   4.430   6.655   3.195 -0.1009  0.1939 -1.4455
 4626TIP3    H235294   4.573   6.617   3.224 -0.2869  1.6772  1.5817
 4627TIP3   OH235295   4.907   5.660   0.058  0.2142  0.0708  0.3347
 4627TIP3    H135296   4.939   5.750   0.066  0.6325 -0.1298  0.8753
 4627TIP3    H235297   4.831   5.656   0.117 -0.6938  0.4825 -0.7813
 4628TIP3   OH235298   3.240   3.908   0.234 -0.5120 -0.1141  0.5952
 4628TIP3    H135299   3.235   3.814   0.249  0.1406 -0.2090  0.2275
 4628TIP3    H235300   3.150   3.933   0.209 -0.2128 -1.0198 -1.4687
 4629TIP3   OH235301   5.576   3.697   0.085  0.3685  0.2341 -0.1113
 4629TIP3    H135302   5.613   3.722   0.000  0.7392 -2.1384 -0.6779
 4629TIP3    H235303   5.595   3.604   0.093 -1.6082 -0.0580  1.5985
 4630TIP3   OH235304   4.685   5.166   2.551  0.5434 -0.7375  0.2917
 4630TIP3    H135305   4.750   5.116   2.600 -0.8850 -2.5035  0.4507
 4630TIP3    H235306   4.671   5.116   2.471  2.0705  1.5736 -1.4690
 4631TIP3   OH235307   0.642   0.705  11.870 -0.4960  0.2085 -0.7409
 4631TIP3    H135308   0.631   0.760  11.793 -0.5070 -0.6406 -1.3478
 4631TIP3    H235309   0.651   0.616  11.836  2.4193  0.1536  0.0317
 4632TIP3   OH235310   3.267   1.207   2.287  0.3922 -0.4778  0.6919
 4632TIP3    H135311   3.229   1.130   2.329 -1.7396 -0.0863 -0.4327
 4632TIP3    H235312   3.346   1.175   2.244 -0.2362 -1.9510  0.6061
 4633TIP3   OH235313   4.468   1.101  12.865 -0.1184  0.3690  0.2777
 4633TIP3    H135314   4.481   1.027  12.925 -0.6420  0.7552  0.8771
 4633TIP3    H235315   4.431   1.170  12.921 -1.1257  0.5482 -0.6028
 4634TIP3   OH235316   5.385   2.890  12.330  0.5070 -0.3501 -0.0345
 4634TIP3    H135317   5.366   2.982  12.309 -0.2476 -1.0066 -2.4661
 4634TIP3    H235318   5.465   2.870  12.281 -1.0048 -1.8012 -1.9904
 4635TIP3   OH235319   3.830   6.199  15.382 -0.0005 -0.4786 -0.8031
 4635TIP3    H135320   3.835   6.109  15.415  1.0035 -0.6456 -1.3853
 4635TIP3    H235321   3.855   6.254  15.457  2.1672 -0.8517 -1.2037
 4636TIP3   OH235322   3.007   4.480   1.300  0.0151 -0.3895  0.0863
 4636TIP3    H135323   2.920   4.452   1.328 -0.1511  0.2504  0.2283
 4636TIP3    H235324   3.013   4.571   1.330 -0.6280  0.7301 -2.9224
 4637TIP3   OH235325   0.830   2.794   2.514 -0.4540  0.0197 -0.0117
 4637TIP3    H135326   0.832   2.823   2.423 -2.7055 -0.5105 -0.2582
 4637TIP3    H235327   0.762   2.847   2.554  0.4646  0.1816  1.3661
 4638TIP3   OH235328   4.370   3.186  13.301 -0.0267 -0.6266  0.3284
 4638TIP3    H135329   4.325   3.264  13.268  0.1755 -0.0338  1.4037
 4638TIP3    H235330   4.458   3.191  13.263  0.8510  1.1112  2.4550
 4639TIP3   OH235331   0.461   3.428   5.337  0.1023  0.1680  0.1024
 4639TIP3    H135332   0.368   3.407   5.326 -0.0061  0.7528 -0.1249
 4639TIP3    H235333   0.492   3.367   5.404 -0.3530 -0.2860 -0.0992
 4640TIP3   OH235334   4.542   1.907   4.531  0.2797 -0.5102  0.4221
 4640TIP3    H135335   4.575   1.996   4.545  1.0331 -0.6945 -0.1690
 4640TIP3    H235336   4.597   1.871   4.462  1.2837 -2.1224  1.9881
 4641TIP3   OH235337   3.445   0.569  16.022 -0.3706  0.1720 -0.6890
 4641TIP3    H135338   3.507   0.624  15.974  0.5191  0.2422  0.5076
 4641TIP3    H235339   3.383   0.539  15.956  1.1663 -0.2152 -1.9822
 4642TIP3   OH235340   2.891   5.325  11.922 -0.1749  0.0660  0.3370
 4642TIP3    H135341   2.900   5.236  11.889  0.2479  0.1082  0.3344
 4642TIP3    H235342   2.815   5.322  11.981  0.0427 -0.3694  0.5928
 4643TIP3   OH235343   6.100   0.307  13.260 -0.6789 -0.0658  0.0068
 4643TIP3    H135344   6.062   0.265  13.183 -1.0135 -0.6871  0.5141
 4643TIP3    H235345   6.110   0.237  13.324 -0.6333  0.4976  0.6266
 4644TIP3   OH235346   3.241   6.135  11.298 -0.4992 -0.7142  0.2839
 4644TIP3    H135347   3.265   6.154  11.207 -1.7018 -2.2372 -0.3845
 4644TIP3    H235348   3.168   6.194  11.316  1.7436  1.8474  1.3559
 4645TIP3   OH235349   5.883   0.970  13.834 -0.5153 -0.3402  0.4869
 4645TIP3    H135350   5.910   0.923  13.913 -0.9500 -0.0237  0.8284
 4645TIP3    H235351   5.862   1.058  13.865 -0.9327 -0.2869  0.0600
 4646TIP3   OH235352   5.619   2.795   1.611  0.0301  0.4034  0.5651
 4646TIP3    H135353   5.537   2.808   1.563 -0.5971  0.2337  1.5565
 4646TIP3    H235354   5.641   2.882   1.644 -0.3392  0.2622  1.2024
 4647TIP3   OH235355   0.953   3.122   4.937 -0.2226 -0.4111 -1.0058
 4647TIP3    H135356   1.006   3.136   4.859  0.1022  0.7425 -0.5975
 4647TIP3    H235357   0.866   3.155   4.913  0.4415  2.0929 -0.1767
 4648TIP3   OH235358   1.991   1.239   2.638 -0.1674 -0.9997 -0.4660
 4648TIP3    H135359   1.904   1.202   2.657 -0.3600 -0.7921 -0.9426
 4648TIP3    H235360   1.990   1.324   2.681  0.2979 -1.5625  0.6846
 4649TIP3   OH235361   5.536   6.122   2.501 -0.3613  0.1235 -0.4063
 4649TIP3    H135362   5.605   6.188   2.494  0.1696 -0.5767 -2.2597
 4649TIP3    H235363   5.516   6.099   2.410 -1.4026 -1.3688  0.1816
 4650TIP3   OH235364   4.489   5.700   4.273  0.8660  0.1828 -0.2271
 4650TIP3    H135365   4.427   5.692   4.346  0.8746 -1.0382 -0.3309
 4650TIP3    H235366   4.450   5.647   4.204  0.3868  2.1059 -1.4475
 4651TIP3   OH235367   0.478   6.504   0.375 -0.0776  0.1882  0.0729
 4651TIP3    H135368   0.471   6.454   0.294  1.7045 -1.9574  1.2066
 4651TIP3    H235369   0.556   6.559   0.362  0.4647 -0.4716  0.4594
 4652TIP3   OH235370   1.601   0.187  15.036 -0.1212  0.0640  0.0092
 4652TIP3    H135371   1.681   0.238  15.018  0.8243 -1.7989 -1.2164
 4652TIP3    H235372   1.633   0.106  15.075 -1.5168 -0.2410  0.5445
 4653TIP3   OH235373   2.611   5.191  16.653 -0.4110 -0.2718  0.0317
 4653TIP3    H135374   2.605   5.179  16.747  0.0784  0.9704  0.2317
 4653TIP3    H235375   2.523   5.171  16.620 -0.3912 -1.4296  0.6519
 4654TIP3   OH235376   0.419   6.350   5.448  0.2258 -0.2236 -0.1998
 4654TIP3    H135377   0.405   6.274   5.505  0.3780 -1.3895 -1.6798
 4654TIP3    H235378   0.445   6.312   5.364  0.3971  1.4816 -0.9314
 4655TIP3   OH235379   1.239   0.503  11.800 -0.2643 -0.0156  0.0058
 4655TIP3    H135380   1.262   0.593  11.823 -1.5515  0.5405 -0.8581
 4655TIP3    H235381   1.244   0.500  11.705  1.3156 -1.2920  0.1007
 4656TIP3   OH235382   2.378   4.784  13.361 -0.7666 -0.3345 -0.0320
 4656TIP3    H135383   2.316   4.856  13.368  1.4722  1.7198 -0.6224
 4656TIP3    H235384   2.377   4.760  13.268 -0.7713 -0.4062 -0.0147
 4657TIP3   OH235385   5.918   3.500   0.853 -0.0471  0.1278  0.1453
 4657TIP3    H135386   5.991   3.446   0.885 -1.8713 -1.9117  0.9734
 4657TIP3    H235387   5.902   3.563   0.923  1.5209  1.2224 -0.4503
 4658TIP3   OH235388   6.212   0.340  11.551  0.4856 -0.2908  0.4684
 4658TIP3    H135389   6.276   0.405  11.579  1.8105 -1.0780 -0.6291
 4658TIP3    H235390   6.180   0.373  11.467 -1.1509  0.4956  1.3861
 4659TIP3   OH235391   1.006   4.654   4.301 -0.0429 -0.3053  0.2959
 4659TIP3    H135392   1.072   4.644   4.370 -0.1019  1.7466  0.6628
 4659TIP3    H235393   0.925   4.621   4.342  0.3552 -1.1092  0.4563
 4660TIP3   OH235394   0.210   4.689   5.548  0.1022 -0.4134 -0.0698
 4660TIP3    H135395   0.178   4.607   5.585 -1.5360  0.9698  1.6537
 4660TIP3    H235396   0.209   4.674   5.453 -1.9040 -1.7530  0.1463
 4661TIP3   OH235397   1.475   1.287   3.968  0.0077  0.0257  0.3264
 4661TIP3    H135398   1.483   1.192   3.968 -1.8398 -0.1669  1.6459
 4661TIP3    H235399   1.432   1.307   4.051 -0.0220  1.9797 -0.1328
 4662TIP3   OH235400   3.362   3.198   4.289  0.0008 -0.6804 -0.1957
 4662TIP3    H135401   3.270   3.174   4.296 -0.0100 -0.8328 -0.8051
 4662TIP3    H235402   3.367   3.248   4.207 -0.0365  1.6139  1.1577
 4663TIP3   OH235403   4.553   2.448  12.064 -0.1800  0.3589 -0.0656
 4663TIP3    H135404   4.557   2.394  12.143  0.8893  0.7194  0.1274
 4663TIP3    H235405   4.617   2.517  12.079  0.2264  0.2659 -1.3729
 4664TIP3   OH235406   0.889   4.937  11.335 -0.2733  0.4211  0.3166
 4664TIP3    H135407   0.819   4.920  11.398  1.2476 -0.7170  1.7591
 4664TIP3    H235408   0.863   5.017  11.290 -2.1791  0.3558  1.2728
 4665TIP3   OH235409   4.369   2.780  12.574  0.2741 -0.4022 -0.3374
 4665TIP3    H135410   4.454   2.822  12.586 -0.1951  0.4534  0.0352
 4665TIP3    H235411   4.308   2.852  12.557 -0.6572 -0.8618  0.9688
 4666TIP3   OH235412   2.009   2.866   2.733 -0.2526  0.3822 -0.0522
 4666TIP3    H135413   2.031   2.903   2.819  0.8137  1.8424 -0.9304
 4666TIP3    H235414   1.922   2.901   2.713 -0.1674  0.6743  0.0895
 4667TIP3   OH235415   3.578   3.213  15.197 -0.4987  0.5339  0.5268
 4667TIP3    H135416   3.571   3.117  15.199  0.4955  0.4546  0.7408
 4667TIP3    H235417   3.584   3.239  15.288 -0.7297  0.8017  0.4658
 4668TIP3   OH235418   4.966   1.629   6.248  0.0813  0.6492  0.3453
 4668TIP3    H135419   4.932   1.559   6.303  1.4908 -1.2344 -1.1230
 4668TIP3    H235420   4.921   1.708   6.279  1.4352 -0.2051  4.6811
 4669TIP3   OH235421   4.299   5.999   3.440  0.3421 -0.2892  0.2959
 4669TIP3    H135422   4.277   6.090   3.421 -0.5539  0.0194  2.5959
 4669TIP3    H235423   4.339   5.966   3.359 -2.6048  1.0865 -1.8518
 4670TIP3   OH235424   3.498   2.806   1.150 -0.1768  0.4902 -0.2361
 4670TIP3    H135425   3.520   2.727   1.199  0.2751 -0.0319 -1.2570
 4670TIP3    H235426   3.474   2.774   1.063 -2.0408  1.2955 -0.0531
 4671TIP3   OH235427   2.828   0.516  11.156  1.0269  0.1683 -0.0206
 4671TIP3    H135428   2.906   0.460  11.152 -0.0990 -1.4975  1.3115
 4671TIP3    H235429   2.828   0.552  11.244 -1.3814 -2.3019  1.0532
 4672TIP3   OH235430   1.817   6.380   4.980 -0.0210 -0.2308 -0.5639
 4672TIP3    H135431   1.867   6.305   5.013 -0.4787 -0.3899 -0.2267
 4672TIP3    H235432   1.759   6.342   4.914  0.5585  0.0107 -1.2046
 4673TIP3   OH235433   2.779   5.411   1.237  0.4209  0.4162 -1.1751
 4673TIP3    H135434   2.867   5.380   1.256  0.3013  0.3760 -0.6769
 4673TIP3    H235435   2.740   5.426   1.323  0.2952  1.4317 -1.4069
 4674TIP3   OH235436   3.369   2.246   1.021  0.1048  0.2383  0.0733
 4674TIP3    H135437   3.399   2.278   0.936 -0.8840 -2.1182 -1.2009
 4674TIP3    H235438   3.434   2.180   1.045 -0.0838  0.3044  0.7645
 4675TIP3   OH235439   4.995   1.534  13.672  0.2544 -0.1955 -0.1739
 4675TIP3    H135440   4.928   1.483  13.626 -0.0845  0.5772 -0.5376
 4675TIP3    H235441   4.980   1.624  13.645 -0.3301  0.3604  1.8893
 4676TIP3   OH235442   1.557   4.251  14.900  0.0281 -0.1802 -0.1026
 4676TIP3    H135443   1.496   4.213  14.963 -0.0473  0.9654  0.5242
 4676TIP3    H235444   1.525   4.220  14.815 -0.5728 -0.7541  0.3230
 4677TIP3   OH235445   1.362   0.472   0.997  0.6229 -0.0231 -0.0666
 4677TIP3    H135446   1.350   0.424   0.915  2.7321  0.0857 -0.4703
 4677TIP3    H235447   1.310   0.552   0.986 -1.1197 -1.1603 -0.2744
 4678TIP3   OH235448   5.773   2.673  15.165  0.7020 -0.5400 -0.4150
 4678TIP3    H135449   5.678   2.669  15.158  0.7825 -2.6885 -0.5973
 4678TIP3    H235450   5.795   2.762  15.137 -1.2827  0.1921  0.2585
 4679TIP3   OH235451   2.159   3.891   4.085 -0.3169 -0.1762 -0.1554
 4679TIP3    H135452   2.221   3.839   4.136 -1.3339 -1.2993 -0.0559
 4679TIP3    H235453   2.166   3.979   4.123  2.3220  0.0996 -1.1474
 4680TIP3   OH235454   2.819   5.343   3.976 -0.4591 -0.2341 -0.6552
 4680TIP3    H135455   2.767   5.371   4.052  0.2221 -0.0874 -0.2384
 4680TIP3    H235456   2.761   5.283   3.929 -1.7294  1.3781 -1.2282
 4681TIP3   OH235457   0.753   3.685   1.645  0.3142  0.1367 -0.0646
 4681TIP3    H135458   0.845   3.667   1.667  0.1073 -0.7207  0.1261
 4681TIP3    H235459   0.742   3.778   1.663  1.3938  0.4481 -0.9502
 4682TIP3   OH235460   5.357   5.320   4.960 -0.2751  0.2597  0.5440
 4682TIP3    H135461   5.330   5.231   4.940  0.4257  0.1468  0.0637
 4682TIP3    H235462   5.419   5.310   5.032 -1.8269  0.5525  1.9273
 4683TIP3   OH235463   6.643   2.349  10.560 -0.1238 -0.4771  0.5488
 4683TIP3    H135464   6.687   2.318  10.639  0.2968 -0.7777  0.2033
 4683TIP3    H235465   6.711   2.398  10.513 -1.2514  2.4561  1.9037
 4684TIP3   OH235466   1.942   4.542   2.734 -0.2318 -0.0103 -0.0536
 4684TIP3    H135467   1.874   4.558   2.670 -1.9344  1.2284  1.9987
 4684TIP3    H235468   1.934   4.449   2.755 -0.0430 -0.2887 -1.1754
 4685TIP3   OH235469   2.268   5.272   0.170 -0.4053  0.8188  0.2771
 4685TIP3    H135470   2.316   5.237   0.095  0.7938 -0.0718  1.4347
 4685TIP3    H235471   2.215   5.198   0.200  1.8744  0.0732  2.5283
 4686TIP3   OH235472   0.042   5.091  16.343  0.3406 -0.0219 -0.3515
 4686TIP3    H135473  -0.050   5.117  16.343  0.3590  0.0440 -0.5281
 4686TIP3    H235474   0.085   5.153  16.401  0.1791 -0.3937  0.1742
 4687TIP3   OH235475   3.189   4.847  13.776 -0.2885  0.1358 -0.2894
 4687TIP3    H135476   3.241   4.863  13.697  0.0194  0.8790  0.0575
 4687TIP3    H235477   3.251   4.859  13.848 -1.0018  1.3823  0.1491
 4688TIP3   OH235478   0.193   6.473   5.624  0.4040  0.1518 -0.0136
 4688TIP3    H135479   0.101   6.452   5.640  0.2223  1.1190  0.2206
 4688TIP3    H235480   0.202   6.564   5.651  0.9392  0.7122 -1.9965
 4689TIP3   OH235481   4.240   2.909  11.735 -0.3211  0.0549  0.3643
 4689TIP3    H135482   4.159   2.876  11.697  0.1378  0.0330 -0.6035
 4689TIP3    H235483   4.278   2.834  11.780  0.5222 -0.6833 -1.4997
 4690TIP3   OH235484   3.016   2.029  14.276 -0.5331 -0.0130 -0.0277
 4690TIP3    H135485   3.011   2.012  14.182 -1.9052  0.1670 -0.0001
 4690TIP3    H235486   2.932   2.069  14.297 -0.8997 -1.6295  1.6035
 4691TIP3   OH235487   3.902   1.636   0.165  0.0689 -0.6653 -0.0011
 4691TIP3    H135488   3.854   1.573   0.219  1.1125 -1.3540  0.1267
 4691TIP3    H235489   3.992   1.606   0.167  0.3005 -0.1067 -1.2859
 4692TIP3   OH235490   3.297   2.440   2.399 -0.4393 -0.0394  0.4671
 4692TIP3    H135491   3.361   2.467   2.333 -0.1743 -0.6508  0.4703
 4692TIP3    H235492   3.236   2.514   2.405  0.7056  0.8736  1.0348
 4693TIP3   OH235493   3.504   4.117  13.626  0.1040 -0.7162  0.7418
 4693TIP3    H135494   3.576   4.167  13.588 -0.3930 -1.3832 -1.1581
 4693TIP3    H235495   3.508   4.136  13.720  2.1853 -0.0455  0.5449
 4694TIP3   OH235496   3.687   0.447  10.778 -0.6019 -0.0626 -0.1226
 4694TIP3    H135497   3.688   0.352  10.783  3.1022 -0.1530 -1.3675
 4694TIP3    H235498   3.662   0.466  10.688 -0.2886  0.1366 -0.1676
 4695TIP3   OH235499   4.332   4.447  14.313  0.0420  0.3921 -0.3770
 4695TIP3    H135500   4.346   4.362  14.353  0.5049 -0.0297 -1.3948
 4695TIP3    H235501   4.299   4.503  14.383  0.8326 -0.3228  0.5683
 4696TIP3   OH235502   4.666   6.775   3.503 -0.5153  0.2410 -0.3328
 4696TIP3    H135503   4.686   6.711   3.435 -1.2436 -1.5077  1.0713
 4696TIP3    H235504   4.571   6.769   3.515 -0.3983  0.5861  0.7993
 4697TIP3   OH235505   0.595   6.658   2.826 -0.0869  0.1258 -0.5595
 4697TIP3    H135506   0.538   6.582   2.816  0.9070 -0.8138  0.6987
 4697TIP3    H235507   0.651   6.656   2.749  1.6791 -1.9656  0.7062
 4698TIP3   OH235508   2.057   4.010  16.371 -0.3282 -0.8057 -0.4444
 4698TIP3    H135509   2.029   3.918  16.370  0.5288 -1.0658 -0.5621
 4698TIP3    H235510   2.133   4.011  16.429 -1.0171  0.0328  0.4732
 4699TIP3   OH235511   3.613   0.807  16.835 -0.1998 -0.9097 -0.6540
 4699TIP3    H135512   3.626   0.758  16.755 -1.7036 -0.5918 -1.1237
 4699TIP3    H235513   3.591   0.741  16.901  1.5637 -1.2218 -0.3657
 4700TIP3   OH235514   6.544   2.018   4.621 -0.0651  0.0205  0.2891
 4700TIP3    H135515   6.570   1.976   4.539  0.1005 -1.1806  0.9423
 4700TIP3    H235516   6.608   2.087   4.634 -0.0801  0.2129 -0.5864
 4701TIP3   OH235517   1.491   1.219   1.440  0.4448  0.5097 -0.1776
 4701TIP3    H135518   1.491   1.131   1.401  0.8335 -0.2406  1.4442
 4701TIP3    H235519   1.571   1.260   1.406  2.1207 -1.0524  1.7706
 4702TIP3   OH235520   1.692   6.479   3.801  0.1671  0.2916  0.2493
 4702TIP3    H135521   1.703   6.536   3.725  1.2210  0.4361  0.5021
 4702TIP3    H235522   1.755   6.408   3.788 -0.3309 -0.2140  0.5108
 4703TIP3   OH235523   2.953   4.154   5.649  0.0908  0.2886 -0.6331
 4703TIP3    H135524   2.868   4.190   5.622 -0.0784  1.0855  0.8854
 4703TIP3    H235525   2.930   4.081   5.708  0.4500 -1.2236 -2.3353
 4704TIP3   OH235526   6.464   0.292  17.071  0.1927  0.4174  0.2367
 4704TIP3    H135527   6.537   0.351  17.092  1.3823 -0.6430 -0.8621
 4704TIP3    H235528   6.462   0.229  17.144  0.9183 -0.0622 -0.1558
 4705TIP3   OH235529   5.896   2.632  11.464  1.4024  0.1032 -0.3152
 4705TIP3    H135530   5.837   2.626  11.540  0.2837  1.2403 -1.0788
 4705TIP3    H235531   5.979   2.597  11.496  1.1901  1.3588  1.6971
 4706TIP3   OH235532   3.650   1.360   0.640  0.2325 -0.5763 -0.2278
 4706TIP3    H135533   3.617   1.448   0.655 -0.2266 -0.6414 -0.8314
 4706TIP3    H235534   3.743   1.365   0.661 -0.1787 -0.4201  1.6147
 4707TIP3   OH235535   0.985   3.110   2.395  0.2006  0.0689  0.9061
 4707TIP3    H135536   0.987   3.030   2.447 -0.2798  0.1823  1.1035
 4707TIP3    H235537   0.912   3.098   2.335  0.4920  0.1157  0.5408
 4708TIP3   OH235538   3.780   0.401   4.309 -0.0741  0.3327  0.2877
 4708TIP3    H135539   3.869   0.419   4.277  0.6292 -0.9052  1.5179
 4708TIP3    H235540   3.739   0.353   4.238  0.3497  0.6020 -0.1466
 4709TIP3   OH235541   5.307   6.548   3.340  0.1605  0.4657 -0.0018
 4709TIP3    H135542   5.354   6.532   3.259  0.2954 -0.9160  0.3439
 4709TIP3    H235543   5.374   6.544   3.408 -0.5822 -2.6454  0.6152
 4710TIP3   OH235544   6.374   1.778   4.198  0.6614 -0.9001  0.5688
 4710TIP3    H135545   6.322   1.708   4.238  0.7197 -1.5581 -0.5029
 4710TIP3    H235546   6.310   1.836   4.158  0.5114  0.4776  2.6948
 4711TIP3   OH235547   4.777   2.781   3.656 -0.1950 -0.1702  0.2323
 4711TIP3    H135548   4.808   2.871   3.670 -0.2100 -0.2355  0.6675
 4711TIP3    H235549   4.682   2.787   3.663 -0.0466 -0.7249  3.0827
 4712TIP3   OH235550   3.070   1.786   0.923  0.0096  0.3840  0.7937
 4712TIP3    H135551   3.045   1.795   0.831  3.3343  1.0676 -0.0869
 4712TIP3    H235552   3.080   1.876   0.954  2.5440  0.1233  0.7697
 4713TIP3   OH235553   5.823   3.204  13.946  0.0185 -0.0242 -0.1552
 4713TIP3    H135554   5.898   3.263  13.934 -0.5534  0.6917 -0.2202
 4713TIP3    H235555   5.843   3.158  14.028 -0.1638  1.2327  0.6198
 4714TIP3   OH235556   0.428   2.908   2.870 -0.3510  0.2352 -0.0474
 4714TIP3    H135557   0.407   2.987   2.920  0.4540  0.7380 -0.4932
 4714TIP3    H235558   0.344   2.864   2.858 -0.9997  1.6312 -0.8082
 4715TIP3   OH235559   3.667   1.411  16.314 -0.1258  0.6472 -0.2791
 4715TIP3    H135560   3.576   1.423  16.288 -0.5511 -1.7647 -0.0671
 4715TIP3    H235561   3.662   1.371  16.401  1.0607 -1.3744 -1.1024
 4716TIP3   OH235562   2.644   1.249  17.151 -0.0463  0.0192  0.0648
 4716TIP3    H135563   2.681   1.196  17.221  1.4299 -0.1163 -0.7948
 4716TIP3    H235564   2.700   1.231  17.075 -0.2491  1.8980 -0.5571
 4717TIP3   OH235565   4.470   1.457  15.966  0.3265  0.2487 -0.2271
 4717TIP3    H135566   4.388   1.408  15.963  0.1979  0.4208  0.3619
 4717TIP3    H235567   4.537   1.393  15.942 -0.0657  0.3230 -1.5911
 4718TIP3   OH235568   2.413   5.055   4.578  0.4189  0.2287  0.0674
 4718TIP3    H135569   2.492   5.037   4.527 -0.2736 -2.8781 -0.0124
 4718TIP3    H235570   2.445   5.070   4.667  1.1445 -0.3339 -0.0978
 4719TIP3   OH235571   6.652   3.548  15.886  0.5754  0.2874  0.2964
 4719TIP3    H135572   6.594   3.473  15.902 -0.4224  0.9908  0.0220
 4719TIP3    H235573   6.721   3.539  15.951  0.4861 -0.9045  0.2382
 4720TIP3   OH235574   0.831   2.237  17.143  0.1016 -0.1873  0.2398
 4720TIP3    H135575   0.802   2.295  17.073 -0.2126  0.6865  1.0718
 4720TIP3    H235576   0.758   2.175  17.155  0.4825 -0.8258 -0.7231
 4721TIP3   OH235577   0.502   1.041   6.019  0.1505 -0.3004 -0.3944
 4721TIP3    H135578   0.443   0.967   6.007 -0.6946  0.1778  0.6811
 4721TIP3    H235579   0.560   1.016   6.091 -0.2741  0.1595  0.1134
 4722TIP3   OH235580   0.079   4.333   2.632  0.1851  0.0723  0.2701
 4722TIP3    H135581   0.159   4.379   2.608  0.9308 -1.5266 -0.4408
 4722TIP3    H235582   0.040   4.308   2.548 -0.6457  0.1560  0.6269
 4723TIP3   OH235583   6.668   3.095  14.634 -0.0685  0.6587  0.4838
 4723TIP3    H135584   6.709   3.056  14.558  0.7426  2.2023  0.1154
 4723TIP3    H235585   6.730   3.163  14.664 -0.9218  0.9079  1.7654
 4724TIP3   OH235586   3.510   2.882   0.697 -0.1952 -0.0612  0.4129
 4724TIP3    H135587   3.548   2.910   0.613  2.2071 -1.1118  1.1000
 4724TIP3    H235588   3.569   2.919   0.763 -0.9518 -0.9151  1.5769
 4725TIP3   OH235589   5.119   6.298  14.867  0.1886  0.2278 -0.2397
 4725TIP3    H135590   5.131   6.387  14.834  1.7070 -0.3467 -1.3126
 4725TIP3    H235591   5.144   6.302  14.959  0.4602  0.8575 -0.3380
 4726TIP3   OH235592   4.435   6.092   0.980  0.3889  0.0958 -0.0480
 4726TIP3    H135593   4.473   6.010   1.012  0.2938 -0.1229 -0.5012
 4726TIP3    H235594   4.485   6.114   0.902  1.1309  1.0443  0.6833
 4727TIP3   OH235595   5.470   6.185  16.165  0.1142 -0.0095 -0.9873
 4727TIP3    H135596   5.485   6.167  16.258 -1.0067 -0.2277 -0.8415
 4727TIP3    H235597   5.467   6.098  16.125  1.0709  0.1043 -1.2987
 4728TIP3   OH235598   0.466   6.467  14.035 -0.5591 -0.3656 -0.5308
 4728TIP3    H135599   0.467   6.394  13.973 -0.6963  0.0268 -0.9970
 4728TIP3    H235600   0.384   6.456  14.083 -1.1208  0.1137 -1.3625
 4729TIP3   OH235601   0.131   5.314  14.532 -1.0016  0.0171  0.5569
 4729TIP3    H135602   0.146   5.408  14.539  1.2312 -0.1102 -1.5593
 4729TIP3    H235603   0.052   5.298  14.584 -0.4378  2.7620  2.3980
 4730TIP3   OH235604   3.794   5.557   4.800 -0.0590 -0.1212 -0.8954
 4730TIP3    H135605   3.889   5.544   4.798 -0.2147 -1.4485 -0.1213
 4730TIP3    H235606   3.758   5.469   4.804 -1.2345  0.4264  1.8131
 4731TIP3   OH235607   5.950   4.113   2.846 -0.0550  0.4704  0.4842
 4731TIP3    H135608   5.962   4.094   2.939  0.9225 -1.6537 -0.0431
 4731TIP3    H235609   6.029   4.162   2.821 -0.4929  1.3711  0.8437
 4732TIP3   OH235610   0.443   5.246   2.837 -0.1434  0.2584  0.4728
 4732TIP3    H135611   0.351   5.268   2.819 -0.2943  0.8182  1.9053
 4732TIP3    H235612   0.440   5.158   2.874 -0.0599  0.1241  0.1651
 4733TIP3   OH235613   6.141   0.917  12.730 -0.1301 -0.1311  0.4009
 4733TIP3    H135614   6.168   1.004  12.703  1.6323 -0.9075 -0.3853
 4733TIP3    H235615   6.108   0.929  12.819  0.8854  1.1953  0.6164
 4734TIP3   OH235616   3.587   6.070  16.335  0.2237 -0.2917 -0.1595
 4734TIP3    H135617   3.581   5.991  16.388 -0.9360 -0.9860 -1.3052
 4734TIP3    H235618   3.677   6.071  16.303  0.9889  0.2175  1.9207
 4735TIP3   OH235619   3.234   1.989   5.030 -0.2726 -0.1995  0.7923
 4735TIP3    H135620   3.278   2.069   5.003 -0.4186 -0.8450 -1.4680
 4735TIP3    H235621   3.280   1.962   5.109  1.0205  1.0932  0.5008
 4736TIP3   OH235622   3.035   4.041  11.722 -0.1843 -1.1329 -0.4694
 4736TIP3    H135623   2.977   3.965  11.727 -0.1410 -1.0880  0.9731
 4736TIP3    H235624   2.977   4.114  11.698 -0.7102 -1.1097  0.8425
 4737TIP3   OH235625   4.844   2.099   1.683  0.2475 -0.2831 -0.1999
 4737TIP3    H135626   4.902   2.030   1.716  0.4953 -0.0439 -0.1304
 4737TIP3    H235627   4.760   2.056   1.670  0.1028 -0.3266  0.9189
 4738TIP3   OH235628   3.093   2.467   4.207 -0.0666  0.2428  0.4184
 4738TIP3    H135629   3.186   2.445   4.204  0.3946  2.2352 -0.3323
 4738TIP3    H235630   3.050   2.398   4.156  1.0149 -0.5504  0.5714
 4739TIP3   OH235631   4.774   6.015  12.110 -0.1745  0.0336 -0.0702
 4739TIP3    H135632   4.690   6.010  12.155 -0.8464 -0.4606 -1.3570
 4739TIP3    H235633   4.764   6.087  12.048 -0.5206 -1.5906 -1.9514
 4740TIP3   OH235634   6.288   0.854   5.538  0.6836  0.7475  0.1142
 4740TIP3    H135635   6.193   0.861   5.528  0.6974  2.9344  1.2938
 4740TIP3    H235636   6.324   0.884   5.454  0.3628  0.6661 -0.0530
 4741TIP3   OH235637   3.705   6.483   4.749 -0.5220 -0.2672  0.1119
 4741TIP3    H135638   3.628   6.461   4.800  0.0619  1.1288  1.6363
 4741TIP3    H235639   3.671   6.504   4.662 -1.7715 -0.3607  0.5704
 4742TIP3   OH235640   4.258   4.386  16.541 -0.1057 -0.1006  0.4930
 4742TIP3    H135641   4.321   4.316  16.523  0.2808 -0.1630  2.0175
 4742TIP3    H235642   4.179   4.360  16.493  1.0323  0.0186 -1.5008
 4743TIP3   OH235643   3.488   5.073   2.750  0.3452  0.3080  0.6420
 4743TIP3    H135644   3.557   5.109   2.694 -1.3495  0.2513 -1.5382
 4743TIP3    H235645   3.407   5.095   2.705 -0.9012 -3.3463  0.9349
 4744TIP3   OH235646   0.161   3.534  13.349 -0.1598  0.1697 -0.1549
 4744TIP3    H135647   0.075   3.492  13.346 -0.3715  0.5922 -0.1207
 4744TIP3    H235648   0.219   3.469  13.388 -0.7421  0.3438  1.0178
 4745TIP3   OH235649   3.726   0.105   0.045  0.9182  0.0789  0.3339
 4745TIP3    H135650   3.709   0.116   0.138  0.3748  1.4701  0.0843
 4745TIP3    H235651   3.739   0.011   0.033 -1.4740 -0.4045  1.4020
 4746TIP3   OH235652   3.110   1.030  11.602  0.5468  0.6850 -0.9862
 4746TIP3    H135653   3.032   1.070  11.563 -2.0896 -2.4200  0.8711
 4746TIP3    H235654   3.116   1.068  11.689  1.9125  1.8779 -1.5826
 4747TIP3   OH235655   3.430   5.191   4.924 -0.6799 -0.1870  0.4039
 4747TIP3    H135656   3.369   5.248   4.970 -0.3398  1.1500 -0.7659
 4747TIP3    H235657   3.480   5.148   4.994 -0.3303  1.6297  1.3075
 4748TIP3   OH235658   5.808   0.540  14.049 -0.4448  0.2092  0.1198
 4748TIP3    H135659   5.860   0.619  14.066 -0.8358  0.5180 -0.1097
 4748TIP3    H235660   5.828   0.517  13.959  1.5796 -1.3933  0.9232
 4749TIP3   OH235661   3.031   0.399   1.666 -0.2451 -0.1660 -0.7815
 4749TIP3    H135662   2.940   0.410   1.639 -0.0912  4.0455  0.0316
 4749TIP3    H235663   3.081   0.426   1.589  0.3089 -0.3343 -0.4806
 4750TIP3   OH235664   6.065   0.185  17.056 -0.5486 -0.1126 -0.3530
 4750TIP3    H135665   6.075   0.213  17.147  2.6898  0.5527 -0.8563
 4750TIP3    H235666   6.148   0.142  17.035 -1.1776 -0.0805 -3.0559
 4751TIP3   OH235667   5.578   6.602  14.231  0.4340 -0.4813 -0.2415
 4751TIP3    H135668   5.583   6.644  14.145  0.9896  0.4751  0.2550
 4751TIP3    H235669   5.588   6.508  14.212  2.1974 -0.1501 -1.0753
 4752TIP3   OH235670   5.242   5.297  14.586  0.2232 -0.1640 -0.3655
 4752TIP3    H135671   5.230   5.227  14.522 -0.7450  0.0784 -0.4502
 4752TIP3    H235672   5.272   5.252  14.665  2.9630 -0.3185 -1.4091
 4753TIP3   OH235673   3.081   0.315  12.153  0.2619 -0.4675  0.1029
 4753TIP3    H135674   3.100   0.222  12.138  2.8373 -0.1280  0.9162
 4753TIP3    H235675   3.167   0.353  12.174 -1.0558  1.7123  1.6949
 4754TIP3   OH235676   0.937   0.140  13.034 -0.1281 -0.1628 -0.5731
 4754TIP3    H135677   0.881   0.217  13.032  0.2262  0.1861  1.4750
 4754TIP3    H235678   0.923   0.102  13.121 -0.2657 -2.3878 -1.5381
 4755TIP3   OH235679   3.201   5.353   2.973  0.0061  0.5653  0.2092
 4755TIP3    H135680   3.119   5.312   2.946  0.9415 -0.7711 -0.6850
 4755TIP3    H235681   3.175   5.419   3.038 -1.5928 -1.1484  1.3843
 4756TIP3   OH235682   4.994   2.881  15.300 -0.4832 -0.0849  0.2834
 4756TIP3    H135683   4.902   2.887  15.273 -0.7361  0.9973  1.3474
 4756TIP3    H235684   4.995   2.812  15.366 -0.1732 -1.5027 -1.1916
 4757TIP3   OH235685   2.147   3.026   3.762  1.0062 -0.6782  0.0273
 4757TIP3    H135686   2.120   2.952   3.817 -0.7312 -1.4503 -1.8112
 4757TIP3    H235687   2.073   3.088   3.767  2.0409  0.5212  0.7902
 4758TIP3   OH235688   5.982   3.819  11.744 -0.0588  0.3472  0.0450
 4758TIP3    H135689   5.915   3.825  11.812 -0.2694 -0.0750 -0.1234
 4758TIP3    H235690   6.050   3.763  11.782 -0.3171 -0.1438 -0.2010
 4759TIP3   OH235691   3.264   5.359   0.476 -0.0479 -0.1249 -0.0735
 4759TIP3    H135692   3.219   5.426   0.526 -0.4215 -0.1717 -0.3453
 4759TIP3    H235693   3.234   5.276   0.513  0.1665 -0.1480  0.0493
 4760TIP3   OH235694   6.140   2.074   0.986  0.5679  0.2788 -0.1577
 4760TIP3    H135695   6.081   2.071   1.062 -0.4536 -1.7913 -0.9879
 4760TIP3    H235696   6.085   2.102   0.913  0.9764 -0.0792 -0.6109
 4761TIP3   OH235697   2.074   4.761   0.240  0.2254  0.0339  0.1464
 4761TIP3    H135698   2.157   4.739   0.198 -0.0993  0.0827 -0.5325
 4761TIP3    H235699   2.047   4.843   0.198 -1.0495 -0.9214 -0.9462
 4762TIP3   OH235700   2.234   6.274  13.750  0.8538 -0.1209 -0.1070
 4762TIP3    H135701   2.264   6.347  13.806  0.2577  0.4745 -0.5573
 4762TIP3    H235702   2.140   6.269  13.765  1.1591 -2.0365  1.3531
 4763TIP3   OH235703   4.506   3.292   2.414 -0.6765  0.1221  0.9796
 4763TIP3    H135704   4.584   3.309   2.467  0.2335  0.8993 -0.5822
 4763TIP3    H235705   4.527   3.211   2.366 -0.0965  1.3118 -0.7970
 4764TIP3   OH235706   0.320   5.804   5.358 -0.0820  0.4461 -0.8357
 4764TIP3    H135707   0.407   5.843   5.344  0.2160  0.5389  1.1034
 4764TIP3    H235708   0.329   5.714   5.327  1.1052  0.0755  0.4898
 4765TIP3   OH235709   6.457   4.457   3.006  0.0117  0.5577 -0.2295
 4765TIP3    H135710   6.395   4.386   3.021 -0.4589  0.9599 -0.2458
 4765TIP3    H235711   6.402   4.534   2.990  0.5142  0.8594 -0.5342
 4766TIP3   OH235712   1.742   4.113   3.058  0.4761  0.3594 -0.0018
 4766TIP3    H135713   1.668   4.052   3.061 -1.2074  2.2759 -1.4605
 4766TIP3    H235714   1.799   4.083   3.129 -0.6489 -2.4353 -0.1750
 4767TIP3   OH235715   6.111   2.240  12.844  0.2968  0.3470  0.5167
 4767TIP3    H135716   6.028   2.287  12.853 -1.6247 -2.9787  0.9420
 4767TIP3    H235717   6.138   2.222  12.933  0.4434 -0.3189  0.3369
 4768TIP3   OH235718   4.976   3.422   3.306  0.2190 -0.4552 -0.5789
 4768TIP3    H135719   4.900   3.425   3.249 -0.4822 -0.0835  0.3585
 4768TIP3    H235720   4.978   3.508   3.348  2.4166  0.3188 -2.2146
 4769TIP3   OH235721   0.682   1.147  16.008 -0.0830 -0.2938 -0.4692
 4769TIP3    H135722   0.603   1.108  15.972 -0.2265 -0.4611  0.0235
 4769TIP3    H235723   0.656   1.235  16.034 -0.5951 -0.9837  1.4228
 4770TIP3   OH235724   1.384   3.724  17.068 -0.4130 -0.0322  0.2839
 4770TIP3    H135725   1.434   3.664  17.013  0.3854  1.3443 -0.5067
 4770TIP3    H235726   1.300   3.733  17.024 -0.4814 -0.4633  0.3272
 4771TIP3   OH235727   5.373   5.278  16.587 -0.5667 -0.0666 -0.0854
 4771TIP3    H135728   5.354   5.321  16.504 -0.5277  0.3428  0.1212
 4771TIP3    H235729   5.417   5.196  16.562  1.7309  1.2263 -0.3706
 4772TIP3   OH235730   5.708   6.009   5.646  0.5821  0.9136 -0.4936
 4772TIP3    H135731   5.721   6.049   5.560 -1.1195 -0.9756 -1.6590
 4772TIP3    H235732   5.613   6.006   5.657  0.7426 -0.7870  0.5379
 4773TIP3   OH235733   2.918   0.442  12.363 -0.1160  0.1268 -0.1191
 4773TIP3    H135734   2.931   0.370  12.301 -1.8743 -0.9741  0.7509
 4773TIP3    H235735   2.985   0.507  12.338 -0.0485 -0.7587 -2.4344
 4774TIP3   OH235736   0.895   1.620   1.459 -0.0240 -0.0479  0.6792
 4774TIP3    H135737   0.936   1.536   1.439  0.2910  0.2998 -0.1932
 4774TIP3    H235738   0.821   1.625   1.399  2.8441  2.4714 -2.8990
 4775TIP3   OH235739   6.360   1.606   5.478  0.3653  0.0288 -0.4053
 4775TIP3    H135740   6.331   1.680   5.532  1.2485  0.3935 -0.4271
 4775TIP3    H235741   6.453   1.596   5.500 -0.3519 -2.7953  1.6395
 4776TIP3   OH235742   2.542   6.270  12.047 -0.0854 -0.3188  0.3162
 4776TIP3    H135743   2.536   6.206  11.976  1.4399 -0.9919  0.7843
 4776TIP3    H235744   2.573   6.220  12.122  0.5695  0.8656  0.8439
 4777TIP3   OH235745   0.813   4.149  15.734  0.2375 -0.3585 -0.3482
 4777TIP3    H135746   0.739   4.209  15.732  0.6255  0.1629  0.6015
 4777TIP3    H235747   0.858   4.169  15.817  1.8680 -0.1173 -1.2622
 4778TIP3   OH235748   0.186   5.182  14.050 -0.4806 -0.1797  0.1852
 4778TIP3    H135749   0.187   5.228  13.966  2.7597  1.4146  0.9749
 4778TIP3    H235750   0.195   5.252  14.115 -1.2434 -1.5203  1.7543
 4779TIP3   OH235751   1.561   0.054  16.285 -0.1199  0.4558  0.4121
 4779TIP3    H135752   1.488   0.002  16.250 -0.3628  0.1771  1.3198
 4779TIP3    H235753   1.585   0.010  16.366  0.1908  1.3179  0.7920
 4780TIP3   OH235754   2.873   2.196  17.048 -0.0149  0.0414  0.0141
 4780TIP3    H135755   2.818   2.123  17.019  0.1457  0.0498 -0.3155
 4780TIP3    H235756   2.836   2.222  17.132  0.1716 -0.6742  0.3171
 4781TIP3   OH235757   0.935   6.535   4.577 -0.4584 -0.0935  0.4139
 4781TIP3    H135758   0.997   6.547   4.505 -1.1193  0.6514 -0.0352
 4781TIP3    H235759   0.849   6.530   4.535 -0.7898 -0.3080  1.0958
 4782TIP3   OH235760   4.437   5.481  15.973 -0.4468  0.1549 -0.5761
 4782TIP3    H135761   4.467   5.526  16.052 -1.5316 -1.1085  0.5770
 4782TIP3    H235762   4.350   5.518  15.956 -0.5940 -0.2334 -0.6658
 4783TIP3   OH235763   6.354   2.890   0.338  0.2037  0.7163  0.3052
 4783TIP3    H135764   6.346   2.798   0.311  1.5151  0.6395  0.1442
 4783TIP3    H235765   6.367   2.885   0.433 -0.9737  0.8089  0.4791
 4784TIP3   OH235766   2.731   4.729  16.847 -0.2056 -0.1361 -0.0356
 4784TIP3    H135767   2.781   4.688  16.777  0.1987  1.1408 -0.5151
 4784TIP3    H235768   2.696   4.656  16.898  2.8689 -1.0676  0.8449
 4785TIP3   OH235769   1.277   2.326   0.014 -0.4303 -0.2044  0.4385
 4785TIP3    H135770   1.209   2.264   0.041 -0.4641 -0.1409  0.5026
 4785TIP3    H235771   1.227   2.405  -0.011 -0.3802 -0.1613  0.4756
 4786TIP3   OH235772   3.601   6.411   4.508  0.1662  0.1367  0.5220
 4786TIP3    H135773   3.549   6.335   4.483 -0.3001  1.0433 -1.4013
 4786TIP3    H235774   3.685   6.398   4.464 -0.6242  1.6907 -1.5921
 4787TIP3   OH235775   5.116   0.488   4.641 -0.3010  0.0748 -0.1760
 4787TIP3    H135776   5.182   0.437   4.593  0.2233  1.0831 -0.5411
 4787TIP3    H235777   5.077   0.544   4.575 -3.0940 -2.0644 -0.4101
 4788TIP3   OH235778   5.926   0.570   3.153  0.5301  0.1081 -0.3085
 4788TIP3    H135779   5.995   0.558   3.219  1.3626  1.3103 -0.9601
 4788TIP3    H235780   5.855   0.511   3.182  1.9061 -1.3155  0.2327
 4789TIP3   OH235781   0.231   1.436   1.527 -0.4127  0.2206  0.2292
 4789TIP3    H135782   0.196   1.477   1.448  1.3591  1.1443 -0.0942
 4789TIP3    H235783   0.171   1.364   1.545 -2.5308  1.7887 -0.2725
 4790TIP3   OH235784   3.099   3.246  16.516  0.1971 -0.0352 -0.4624
 4790TIP3    H135785   3.114   3.210  16.604 -0.4380  0.9906  0.0781
 4790TIP3    H235786   3.180   3.293  16.496  1.2570 -2.2200 -1.4198
 4791TIP3   OH235787   6.190   0.628   4.712 -0.1805 -0.4844  0.0628
 4791TIP3    H135788   6.127   0.668   4.652 -0.1845  1.6263  1.4472
 4791TIP3    H235789   6.155   0.540   4.728 -1.1302 -0.4125 -1.5992
 4792TIP3   OH235790   1.362   6.112  14.393 -0.3402 -1.0220  0.3674
 4792TIP3    H135791   1.283   6.090  14.442  0.2064 -1.8666  0.8587
 4792TIP3    H235792   1.340   6.091  14.302 -1.2786  0.3528  0.2559
 4793TIP3   OH235793   6.728   5.609  13.856 -0.2867  0.7916  0.6848
 4793TIP3    H135794   6.808   5.655  13.877 -0.6829  1.3877  0.8916
 4793TIP3    H235795   6.755   5.518  13.845  0.5514  1.1246 -0.0722
 4794TIP3   OH235796   2.508   5.015  15.995 -0.1292 -0.3396  0.6887
 4794TIP3    H135797   2.434   4.957  15.984  0.3673 -1.0544  1.0480
 4794TIP3    H235798   2.470   5.099  16.020 -0.9437 -0.0352 -1.4896
 4795TIP3   OH235799   1.956   1.145   2.123 -0.9626 -0.2005  0.1313
 4795TIP3    H135800   1.995   1.233   2.116 -1.8053  0.1369 -0.4004
 4795TIP3    H235801   1.936   1.136   2.216 -0.3021 -0.0793  0.2906
 4796TIP3   OH235802   3.241   1.677  16.868  0.1104 -0.0635 -0.3840
 4796TIP3    H135803   3.331   1.645  16.880  0.0611  0.6105  2.1621
 4796TIP3    H235804   3.195   1.647  16.947 -0.0285  5.8862  2.0899
 4797TIP3   OH235805   4.033   1.308   1.691 -0.5282 -0.3577  0.4768
 4797TIP3    H135806   4.048   1.372   1.622  0.5773 -0.4696  0.6142
 4797TIP3    H235807   4.055   1.224   1.651 -1.0163 -0.5475  0.6047
 4798TIP3   OH235808   2.239   4.648  14.677  0.1247 -0.9837  0.2475
 4798TIP3    H135809   2.153   4.614  14.698 -0.9778  0.8978 -1.0603
 4798TIP3    H235810   2.226   4.701  14.598  2.7235 -1.7458 -0.7392
 4799TIP3   OH235811   5.505   1.674  16.621 -0.5270 -0.0169 -0.3370
 4799TIP3    H135812   5.449   1.653  16.696  0.2224 -0.0789  0.2161
 4799TIP3    H235813   5.451   1.657  16.545 -1.8287  1.5481  0.2236
 4800TIP3   OH235814   4.567   5.478  14.002  0.0333  0.0250 -0.6103
 4800TIP3    H135815   4.551   5.432  13.920 -0.1337 -1.2712  0.1310
 4800TIP3    H235816   4.650   5.442  14.033  0.7054  1.3847 -0.8059
 4801TIP3   OH235817   0.224   3.663  14.613  0.3232 -0.2241  0.0382
 4801TIP3    H135818   0.318   3.681  14.616  0.2097  0.3561  0.1853
 4801TIP3    H235819   0.189   3.698  14.695 -0.1142  0.1299 -0.2940
 4802TIP3   OH235820   5.204   2.350  14.416 -0.5531  0.2257  0.5486
 4802TIP3    H135821   5.121   2.394  14.401  0.3813  2.4878  1.8120
 4802TIP3    H235822   5.190   2.300  14.497 -0.3681  1.4672  1.3596
 4803TIP3   OH235823   4.650   4.728  14.041  0.6486 -0.1424  0.0623
 4803TIP3    H135824   4.568   4.778  14.046  0.5333 -0.1031 -1.7382
 4803TIP3    H235825   4.711   4.777  14.095 -0.0313  0.8261 -0.0255
 4804TIP3   OH235826   0.868   4.195  14.069 -0.4864 -0.5167  0.1042
 4804TIP3    H135827   0.920   4.147  14.004 -1.8881 -0.1900 -1.2760
 4804TIP3    H235828   0.842   4.276  14.024 -0.4393  0.2787  1.4887
 4805TIP3   OH235829   1.826   0.396   2.989 -0.2326 -0.1607 -0.1484
 4805TIP3    H135830   1.801   0.304   2.977  2.0282 -0.6455 -1.5330
 4805TIP3    H235831   1.796   0.439   2.909  0.2766 -0.0395 -0.2720
 4806TIP3   OH235832   1.995   5.647  15.093  0.6586 -0.1570  0.2328
 4806TIP3    H135833   2.078   5.600  15.091  0.4477 -0.4873 -0.9837
 4806TIP3    H235834   1.958   5.636  15.005 -0.3397  0.5828  0.5431
 4807TIP3   OH235835   6.774   6.647  12.896  0.6987 -0.2689  0.0169
 4807TIP3    H135836   6.713   6.700  12.947 -0.9239 -1.5261 -0.5734
 4807TIP3    H235837   6.761   6.558  12.927  2.0197 -0.6038 -0.3456
 4808TIP3   OH235838   0.829   1.964   4.297  0.4859 -0.1023  0.7655
 4808TIP3    H135839   0.816   2.058   4.290 -0.7786 -0.2644  0.8640
 4808TIP3    H235840   0.762   1.926   4.240  0.6823 -0.9528  1.0927
 4809TIP3   OH235841   3.762   1.983  16.219 -0.3698 -0.2273 -0.1135
 4809TIP3    H135842   3.706   2.058  16.197  0.6876  0.3013 -1.1086
 4809TIP3    H235843   3.822   1.976  16.145  1.0808 -0.5843  1.0691
 4810TIP3   OH235844   4.073   6.364  12.342  0.1023  0.7766 -0.0373
 4810TIP3    H135845   4.147   6.308  12.319  0.4582  0.4997  1.7479
 4810TIP3    H235846   4.111   6.435  12.393 -0.9244  0.3604  1.3270
 4811TIP3   OH235847   3.327   3.297   3.478  0.7148 -0.3516  0.2479
 4811TIP3    H135848   3.408   3.258   3.446 -0.1750 -1.8761 -0.2231
 4811TIP3    H235849   3.284   3.331   3.400  0.4317 -0.4423  0.3627
 4812TIP3   OH235850   3.782   0.716  12.899 -0.0047  0.1891 -0.0155
 4812TIP3    H135851   3.740   0.802  12.896 -0.8471 -0.2210 -0.0017
 4812TIP3    H235852   3.868   0.730  12.858  0.8952  1.6202  2.2680
 4813TIP3   OH235853   3.078   3.800   3.188 -0.5747  0.0943  0.3031
 4813TIP3    H135854   2.993   3.773   3.220 -1.3438  0.7434 -1.1581
 4813TIP3    H235855   3.075   3.896   3.190  0.2128  0.1242  0.4631
 4814TIP3   OH235856   5.441   2.004  11.421 -0.0736  0.4482  0.4742
 4814TIP3    H135857   5.455   1.979  11.330  1.3113 -0.1282  0.8298
 4814TIP3    H235858   5.529   2.013  11.457 -0.5958  1.6080  1.5090
 4815TIP3   OH235859   2.236   2.485  11.673  0.1039  0.0268 -0.0458
 4815TIP3    H135860   2.299   2.423  11.708  0.7078  1.2915  1.1833
 4815TIP3    H235861   2.239   2.473  11.578  1.4356 -0.6289  0.0790
 4816TIP3   OH235862   5.910   5.143   2.374 -0.4273  0.1777 -0.0110
 4816TIP3    H135863   5.956   5.063   2.349 -0.2299 -0.6887  2.9426
 4816TIP3    H235864   5.976   5.212   2.368  0.1665 -0.3690  0.2076
 4817TIP3   OH235865   5.149   1.333  12.782 -0.2193 -0.3739 -0.0459
 4817TIP3    H135866   5.059   1.359  12.801 -0.5379  2.6656 -4.7385
 4817TIP3    H235867   5.203   1.385  12.841 -1.4164  1.7372 -0.7616
 4818TIP3   OH235868   2.517   4.443   3.282  1.4024 -0.2523 -0.3217
 4818TIP3    H135869   2.515   4.491   3.199  0.5875  2.1600  1.0559
 4818TIP3    H235870   2.427   4.413   3.295  1.9166 -2.2700 -1.2027
 4819TIP3   OH235871   2.720   0.421   3.487  0.7625 -0.3776 -0.1689
 4819TIP3    H135872   2.662   0.491   3.519  0.0034 -1.4236  0.7737
 4819TIP3    H235873   2.667   0.376   3.420  0.5869 -1.1540  0.4888
 4820TIP3   OH235874   0.672   0.603   4.574  0.1672  0.1866 -0.2413
 4820TIP3    H135875   0.697   0.634   4.486 -0.3685  1.6270  0.0930
 4820TIP3    H235876   0.705   0.671   4.633 -0.7422 -0.0664  0.5593
 4821TIP3   OH235877   4.301   1.741  16.780 -1.0730  0.2909  0.2021
 4821TIP3    H135878   4.330   1.826  16.813 -0.3663 -0.1536  0.7274
 4821TIP3    H235879   4.256   1.701  16.855  0.6444 -0.7757  0.6863
 4822TIP3   OH235880   5.461   1.185  11.086 -0.0017  0.3974 -0.1023
 4822TIP3    H135881   5.515   1.191  11.165  0.9582  4.3308 -0.9742
 4822TIP3    H235882   5.372   1.203  11.117  0.0223 -0.3336  0.4105
 4823TIP3   OH235883   0.860   0.773  10.715  0.3245 -0.8682 -0.0467
 4823TIP3    H135884   0.881   0.693  10.763 -0.2598 -1.8509 -1.4077
 4823TIP3    H235885   0.924   0.837  10.747  0.9329 -1.9312  0.9054
 4824TIP3   OH235886   0.762   2.361  13.576 -0.5870  0.5305 -0.3684
 4824TIP3    H135887   0.826   2.347  13.645 -1.2664  0.6301  0.2847
 4824TIP3    H235888   0.813   2.400  13.504  0.1274  0.3776  0.0518
 4825TIP3   OH235889   0.947   6.565   0.889 -0.6408  0.0204 -0.2070
 4825TIP3    H135890   0.914   6.653   0.905  0.6229  1.0980 -3.1942
 4825TIP3    H235891   1.042   6.576   0.884 -0.5376 -1.3405 -1.4628
 4826TIP3   OH235892   6.427   3.449  16.783  0.0388  0.3796  0.2142
 4826TIP3    H135893   6.338   3.441  16.819  0.8253 -0.0815  2.1473
 4826TIP3    H235894   6.435   3.376  16.722 -1.2861  1.0831 -0.8435
 4827TIP3   OH235895   4.662   0.566   4.457 -0.1437  0.0529 -0.2023
 4827TIP3    H135896   4.591   0.514   4.496  0.0820 -1.7031 -2.0277
 4827TIP3    H235897   4.715   0.594   4.531 -0.7257 -1.6690  0.9029
 4828TIP3   OH235898   0.939   0.146   4.963  0.8257 -0.1044 -0.2234
 4828TIP3    H135899   1.018   0.192   4.990 -1.6061  2.7202  2.5853
 4828TIP3    H235900   0.887   0.212   4.917 -1.0617 -1.0650  0.4459
 4829TIP3   OH235901   6.247   4.199   3.974 -0.1643 -0.1911  0.1273
 4829TIP3    H135902   6.254   4.216   4.068 -2.4879 -1.9071  0.6635
 4829TIP3    H235903   6.327   4.150   3.953 -0.5137 -1.4827  1.6444
 4830TIP3   OH235904   3.251   3.256  11.086 -0.5191 -0.3177 -0.6578
 4830TIP3    H135905   3.277   3.319  11.019 -1.8186 -2.8785 -3.7718
 4830TIP3    H235906   3.299   3.176  11.063 -1.7322 -1.5187  0.8888
 4831TIP3   OH235907   3.027   1.187  15.353 -0.2095  0.2797  0.8717
 4831TIP3    H135908   3.014   1.099  15.389  0.4782  0.0370  0.5279
 4831TIP3    H235909   2.946   1.206  15.306 -0.5134 -0.0111  1.2767
 4832TIP3   OH235910   0.613   3.192   4.175 -0.4902  0.3351 -1.0214
 4832TIP3    H135911   0.621   3.105   4.213  0.6970  0.6325 -0.5885
 4832TIP3    H235912   0.519   3.201   4.155 -0.8122 -0.5493  0.0778
 4833TIP3   OH235913   5.531   6.375   5.364  0.5101 -0.1765  0.3845
 4833TIP3    H135914   5.480   6.374   5.445 -1.5334 -0.6681 -0.8789
 4833TIP3    H235915   5.555   6.466   5.352 -1.2630  0.3014  0.2983
 4834TIP3   OH235916   4.291   4.408   2.092 -0.2885 -0.8811 -0.4404
 4834TIP3    H135917   4.329   4.474   2.150 -1.1128 -0.1788 -0.6883
 4834TIP3    H235918   4.299   4.326   2.141 -0.0508 -0.4625  0.2357
 4835TIP3   OH235919   0.050   6.039  16.216 -0.3713 -0.1883 -0.1359
 4835TIP3    H135920  -0.016   5.984  16.258 -1.0633  0.8340  0.1335
 4835TIP3    H235921   0.058   6.115  16.274  0.8483 -0.1748 -0.2995
 4836TIP3   OH235922   0.722   0.332  11.467 -0.5530  0.2896  0.4067
 4836TIP3    H135923   0.810   0.354  11.436 -0.8311  0.1340 -0.4815
 4836TIP3    H235924   0.735   0.255  11.523 -0.2578 -0.3657 -0.5541
 4837TIP3   OH235925   0.907   5.335  16.507  0.3518 -0.3052 -0.3168
 4837TIP3    H135926   0.980   5.343  16.568  2.1430 -0.2800 -2.4022
 4837TIP3    H235927   0.892   5.424  16.476  1.8421 -0.8066 -2.5869
 4838TIP3   OH235928   5.827   1.402   1.756  0.2738 -0.0714 -0.1783
 4838TIP3    H135929   5.739   1.390   1.721 -0.3547  0.9513  0.9949
 4838TIP3    H235930   5.831   1.345   1.832  0.0190  1.1427  0.7662
 4839TIP3   OH235931   5.971   1.725   2.510 -0.3686  0.1232  0.2523
 4839TIP3    H135932   6.047   1.721   2.568 -0.7544  0.4252  0.7884
 4839TIP3    H235933   5.896   1.724   2.570 -0.7694  0.3614 -0.2499
 4840TIP3   OH235934   2.900   5.843  11.858  0.0743 -0.3954 -0.6012
 4840TIP3    H135935   2.933   5.815  11.773  1.5082 -0.2347 -0.1070
 4840TIP3    H235936   2.897   5.763  11.911  2.3398  0.0176  0.2106
 4841TIP3   OH235937   1.437   6.440   0.147 -0.1340 -0.2522 -0.3330
 4841TIP3    H135938   1.480   6.523   0.164 -0.1849 -0.5450  1.3308
 4841TIP3    H235939   1.362   6.439   0.207  0.0370 -1.6218 -0.1300
 4842TIP3   OH235940   2.934   2.660   0.807  0.0488  0.0932 -0.3295
 4842TIP3    H135941   2.902   2.571   0.790 -3.2694  1.2584 -0.5059
 4842TIP3    H235942   3.030   2.651   0.807 -0.1835 -3.2551 -1.4454
 4843TIP3   OH235943   3.478   0.339  16.216 -0.0177 -0.2145  0.2869
 4843TIP3    H135944   3.472   0.408  16.150  0.1520 -0.1041  0.3886
 4843TIP3    H235945   3.483   0.258  16.165 -1.9209 -0.2761  0.1970
 4844TIP3   OH235946   3.576   4.706  11.107 -0.5836  0.1358 -0.4480
 4844TIP3    H135947   3.546   4.615  11.099  0.3977 -0.0964 -1.5439
 4844TIP3    H235948   3.498   4.754  11.136 -0.3935 -1.5125  3.0498
 4845TIP3   OH235949   6.625   6.685  17.093 -0.4584  0.1690  0.3489
 4845TIP3    H135950   6.714   6.655  17.072 -0.3059  0.5407  0.4469
 4845TIP3    H235951   6.578   6.681  17.010 -0.6448 -1.0407  0.5129
 4846TIP3   OH235952   0.739   5.623  14.533  0.0277 -0.1633 -0.7131
 4846TIP3    H135953   0.675   5.675  14.484  0.5052 -0.4598 -1.6530
 4846TIP3    H235954   0.711   5.532  14.521  1.0141 -0.3503 -1.7177
 4847TIP3   OH235955   4.306   2.111  12.953 -0.0198 -0.5707 -0.0968
 4847TIP3    H135956   4.293   2.031  12.902  1.6725 -1.5045  0.9134
 4847TIP3    H235957   4.217   2.143  12.970 -0.7197 -2.2637 -0.4404
 4848TIP3   OH235958   3.611   4.092  15.335 -0.5874  0.3841 -0.0437
 4848TIP3    H135959   3.687   4.043  15.303 -0.9250  0.0211 -0.2909
 4848TIP3    H235960   3.604   4.068  15.427 -1.6833 -1.2560 -0.5357
 4849TIP3   OH235961   6.496   3.285  12.813 -0.3448 -0.1183  0.1563
 4849TIP3    H135962   6.459   3.296  12.901  1.8890  1.1109  0.9796
 4849TIP3    H235963   6.506   3.190  12.804  1.3629 -0.1690  2.1178
 4850TIP3   OH235964   1.412   6.701  12.816  0.2783 -0.0891 -0.0907
 4850TIP3    H135965   1.399   6.749  12.898 -2.6410 -0.6728 -0.1564
 4850TIP3    H235966   1.427   6.611  12.843 -1.5605 -0.4464 -0.1842
 4851TIP3   OH235967   6.229   5.384  12.170 -0.1223  0.0055 -0.0441
 4851TIP3    H135968   6.183   5.375  12.254  2.7452  1.4741  1.7485
 4851TIP3    H235969   6.261   5.296  12.151 -1.3584 -0.4762  0.0256
 4852TIP3   OH235970   4.192   1.811  13.653 -0.0630  0.0736 -0.1602
 4852TIP3    H135971   4.229   1.897  13.673  0.4242 -0.5398  1.6955
 4852TIP3    H235972   4.098   1.820  13.669 -0.3446  0.8293 -2.0644
 4853TIP3   OH235973   6.710   3.711   4.678  0.2675 -0.5810 -0.0660
 4853TIP3    H135974   6.665   3.780   4.629 -0.6204 -1.1063 -0.0041
 4853TIP3    H235975   6.779   3.682   4.619  1.0173  0.7540  0.1330
 4854TIP3   OH235976   0.067   0.336   4.628  0.1904  0.5608 -0.8589
 4854TIP3    H135977   0.083   0.420   4.586  1.6976  0.3320 -0.7886
 4854TIP3    H235978   0.061   0.357   4.721 -0.5194  0.7241 -0.9383
 4855TIP3   OH235979   2.416   1.392  17.167  0.4901  0.3308  0.0847
 4855TIP3    H135980   2.508   1.365  17.165  0.8667  1.6362 -0.7340
 4855TIP3    H235981   2.395   1.399  17.260  0.6795 -1.6925  0.3153
 4856TIP3   OH235982   2.884   1.400   6.404 -0.5309 -0.4837 -0.2447
 4856TIP3    H135983   2.865   1.430   6.315 -0.7036 -2.1162 -0.7651
 4856TIP3    H235984   2.798   1.388   6.444 -0.4896 -1.6067 -0.4871
 4857TIP3   OH235985   3.962   5.325   0.240  0.3863 -0.2045 -0.6259
 4857TIP3    H135986   3.881   5.352   0.283  2.0321  0.4706  2.1416
 4857TIP3    H235987   3.954   5.358   0.151 -2.0522  0.5234 -0.1650
 4858TIP3   OH235988   1.845   4.483  11.576  0.3506 -0.5582 -0.5534
 4858TIP3    H135989   1.937   4.507  11.560 -0.5428  1.5634 -2.7592
 4858TIP3    H235990   1.801   4.501  11.493 -2.3510 -0.1493  0.9220
 4859TIP3   OH235991   5.673   0.501   6.572 -0.2968 -0.1827  0.6906
 4859TIP3    H135992   5.733   0.569   6.604  0.5302 -0.7329  0.3494
 4859TIP3    H235993   5.665   0.520   6.478  1.9854 -2.0508  0.0724
 4860TIP3   OH235994   3.153   5.111   0.482  0.1782 -0.4170  0.1563
 4860TIP3    H135995   3.059   5.129   0.487  0.1402 -0.8067  0.9805
 4860TIP3    H235996   3.163   5.055   0.405 -0.0992  0.6407 -0.6455
 4861TIP3   OH235997   3.492   6.344  14.721  0.8521 -0.0396  0.1155
 4861TIP3    H135998   3.576   6.344  14.766  0.8958  1.4445  0.0343
 4861TIP3    H235999   3.436   6.401  14.774 -0.2289 -1.3151  0.3897
 4862TIP3   OH236000   2.484   4.972   0.057 -0.3272  0.1250  0.1660
 4862TIP3    H136001   2.448   4.886   0.037 -1.2769  0.6841 -0.5951
 4862TIP3    H236002   2.499   4.971   0.151  2.7420 -2.0244 -0.2832
 4863TIP3   OH236003   5.319   3.092   5.526  0.6254  0.1799 -0.4302
 4863TIP3    H136004   5.233   3.136   5.529  0.5338 -0.0689  2.6476
 4863TIP3    H236005   5.382   3.164   5.519  0.2424  0.5080 -0.5485
 4864TIP3   OH236006   4.564   5.827  12.283  0.9776  0.0096 -0.4180
 4864TIP3    H136007   4.639   5.840  12.340  0.9397 -0.8602 -0.1677
 4864TIP3    H236008   4.488   5.851  12.336  0.8043 -2.4557  0.4650
 4865TIP3   OH236009   4.756   6.027   5.209 -0.1048  0.7021 -0.0004
 4865TIP3    H136010   4.749   6.064   5.121  0.1183 -1.3320 -0.9147
 4865TIP3    H236011   4.791   5.939   5.195  1.0370  0.7554  2.2234
 4866TIP3   OH236012   3.664   1.338   2.836 -0.1193  0.7002 -0.0159
 4866TIP3    H136013   3.639   1.281   2.909  1.2005 -0.1913 -0.2383
 4866TIP3    H236014   3.625   1.423   2.857 -2.3878 -0.3400  0.1833
 4867TIP3   OH236015   6.735   1.284  16.142  0.1821  0.1597  0.2407
 4867TIP3    H136016   6.805   1.322  16.195  0.1428  1.1468 -0.4173
 4867TIP3    H236017   6.680   1.358  16.117  0.5245 -0.2142 -1.6952
 4868TIP3   OH236018   2.332   1.360  12.811 -0.3734  0.0900  0.4216
 4868TIP3    H136019   2.290   1.446  12.824 -1.5586 -0.2442 -0.9740
 4868TIP3    H236020   2.399   1.355  12.879 -0.5229  1.9838  0.7427
 4869TIP3   OH236021   0.016   2.452   2.917  0.1004 -0.3239  0.7178
 4869TIP3    H136022  -0.013   2.515   2.851  2.1826  0.6329  0.6757
 4869TIP3    H236023  -0.064   2.424   2.960 -1.0668  0.7544 -0.7029
 4870TIP3   OH236024   1.736   4.560  14.223 -0.2187 -0.7936 -0.0948
 4870TIP3    H136025   1.741   4.478  14.271  0.9880  0.2590  1.6441
 4870TIP3    H236026   1.695   4.537  14.139  0.5422 -3.2286  0.1766
 4871TIP3   OH236027   2.400   6.313  14.509 -0.3202  0.4069 -0.1171
 4871TIP3    H136028   2.435   6.383  14.455 -0.9694  1.7763  1.2078
 4871TIP3    H236029   2.312   6.341  14.533  0.0131 -0.0615  1.8007
 4872TIP3   OH236030   3.198   4.128   6.575 -0.0068  0.4272  0.8071
 4872TIP3    H136031   3.114   4.118   6.619 -0.2441  0.0793  0.2847
 4872TIP3    H236032   3.193   4.213   6.531 -0.0867  0.4020  0.7682
 4873TIP3   OH236033   2.202   0.604   3.348 -0.5035 -0.4890  0.5913
 4873TIP3    H136034   2.224   0.653   3.428 -2.6706  0.6561  0.5285
 4873TIP3    H236035   2.113   0.571   3.364 -0.8618 -0.4621 -1.2478
 4874TIP3   OH236036   2.229   5.668   2.412  0.3144  0.3567  0.0730
 4874TIP3    H136037   2.310   5.620   2.428 -0.9135 -1.5588  0.7671
 4874TIP3    H236038   2.177   5.656   2.492 -1.0277  0.7359 -0.7138
 4875TIP3   OH236039   1.086   1.887  15.062  0.1472 -0.1353  0.5089
 4875TIP3    H136040   1.034   1.917  14.986  1.1734 -0.7057 -0.4265
 4875TIP3    H236041   1.132   1.810  15.030  4.0464  2.1596  0.3453
 4876TIP3   OH236042   6.052   6.325  13.116 -0.0814 -0.1387 -0.0690
 4876TIP3    H136043   6.093   6.384  13.054 -0.9610  3.1751  2.3758
 4876TIP3    H236044   5.965   6.309  13.079  0.8328 -1.5100 -1.6976
 4877TIP3   OH236045   6.680   0.761   3.760  0.3697  0.0856  0.2087
 4877TIP3    H136046   6.675   0.665   3.758  0.6411  0.0528  1.0781
 4877TIP3    H236047   6.762   0.781   3.715 -0.5993  0.0093 -1.6659
 4878TIP3   OH236048   5.277   6.677   3.894 -0.4770  0.0219  0.3526
 4878TIP3    H136049   5.359   6.638   3.863 -0.4851 -0.3874  0.8302
 4878TIP3    H236050   5.280   6.768   3.863  0.1599  0.0101  0.3727
 4879TIP3   OH236051   1.173   1.791   4.475 -0.1252  0.4368  0.2421
 4879TIP3    H136052   1.116   1.867   4.463  0.0792  0.3283 -1.4165
 4879TIP3    H236053   1.160   1.767   4.567  0.1243  2.7171  0.9041
 4880TIP3   OH236054   2.612   5.789   6.895 -0.0371 -0.3460 -0.3109
 4880TIP3    H136055   2.598   5.804   6.802  1.7346 -1.5525 -0.7968
 4880TIP3    H236056   2.665   5.709   6.899 -2.1047 -1.6707  1.8327
 4881TIP3   OH236057   4.621   2.378  12.607  0.8607  0.6058  0.1574
 4881TIP3    H136058   4.549   2.424  12.649  0.9524  1.3745 -0.5311
 4881TIP3    H236059   4.635   2.301  12.662 -1.7945 -0.6227 -0.8240
 4882TIP3   OH236060   5.814   0.848  13.598  0.7930 -0.1647 -0.0408
 4882TIP3    H136061   5.837   0.899  13.675 -0.4111 -1.6964  1.3804
 4882TIP3    H236062   5.759   0.907  13.546  0.5107  0.4387  0.9238
 4883TIP3   OH236063   5.347   0.080  12.087  0.3374 -0.1925 -0.4706
 4883TIP3    H136064   5.380   0.053  12.001  1.9123 -0.4473  0.1863
 4883TIP3    H236065   5.335   0.175  12.079 -0.4648 -0.3565 -1.2703
 4884TIP3   OH236066   5.481   4.904  11.404 -0.5764 -0.3005  0.2822
 4884TIP3    H136067   5.453   4.813  11.395 -2.0234  0.3435 -2.1989
 4884TIP3    H236068   5.404   4.950  11.437  0.1659  0.0348  1.5731
 4885TIP3   OH236069   1.672   0.250   5.093  0.0413  0.0643  0.4049
 4885TIP3    H136070   1.728   0.204   5.032  3.0738 -0.7521  3.6313
 4885TIP3    H236071   1.692   0.342   5.081  0.1774 -0.0526 -0.2347
 4886TIP3   OH236072   1.090   0.417  13.046 -0.5463 -0.1035  0.1144
 4886TIP3    H136073   1.140   0.342  13.079 -0.5381 -0.7493 -1.3156
 4886TIP3    H236074   1.046   0.452  13.123  1.4754 -0.0185  1.2546
 4887TIP3   OH236075   6.332   3.170  10.297 -0.3283  0.0416  0.1399
 4887TIP3    H136076   6.284   3.178  10.380 -0.2500  1.6337  0.0508
 4887TIP3    H236077   6.318   3.254  10.253 -0.7564 -0.9596 -1.6829
 4888TIP3   OH236078   4.343   1.249   1.598 -0.1059 -0.1033  0.1870
 4888TIP3    H136079   4.278   1.205   1.544  1.9829  0.4493 -2.9282
 4888TIP3    H236080   4.351   1.336   1.560  2.9747 -0.4155  0.0207
 4889TIP3   OH236081   1.904   2.322   3.771  0.1405 -0.1726  0.3683
 4889TIP3    H136082   1.932   2.299   3.860  0.8902  0.6993  0.3577
 4889TIP3    H236083   1.961   2.270   3.714  0.1422 -0.1872  0.3834
 4890TIP3   OH236084   0.390   4.020   0.248 -0.7671 -0.1180  0.3536
 4890TIP3    H136085   0.467   3.963   0.256 -0.1898  0.4126 -1.2397
 4890TIP3    H236086   0.347   3.991   0.168 -2.0726 -0.2191  1.0924
 4891TIP3   OH236087   3.251   5.426  16.142  0.7437  0.2345  0.2375
 4891TIP3    H136088   3.190   5.496  16.165  0.0178 -0.3902  0.2203
 4891TIP3    H236089   3.289   5.399  16.226 -0.3987 -0.6567  0.4779
 4892TIP3   OH236090   3.080   1.245  11.803  0.1171 -0.1698 -0.3721
 4892TIP3    H136091   3.121   1.283  11.725 -0.1607  0.6249 -0.1382
 4892TIP3    H236092   3.031   1.318  11.842 -0.4684 -0.7853  0.0553
 4893TIP3   OH236093   1.010   1.906   6.164 -0.7992  0.6383  0.7566
 4893TIP3    H136094   0.979   1.834   6.110  0.8741  1.4918 -1.4303
 4893TIP3    H236095   0.967   1.984   6.128 -0.3049  1.1174  1.1844
 4894TIP3   OH236096   5.285   4.460  14.457 -0.3841  0.7987  0.0416
 4894TIP3    H136097   5.273   4.550  14.486  3.0434  1.6654 -0.9508
 4894TIP3    H236098   5.321   4.468  14.369  0.2360 -1.5164  0.0436
 4895TIP3   OH236099   5.332   6.330  12.928  0.2522  0.3897  0.1114
 4895TIP3    H136100   5.256   6.383  12.907  0.7577  0.6905 -1.0541
 4895TIP3    H236101   5.386   6.385  12.985 -0.4249  0.1622  0.9605
 4896TIP3   OH236102   3.971   5.764  15.255 -0.1498 -0.2958 -0.5046
 4896TIP3    H136103   4.054   5.755  15.208 -0.6445 -0.3503 -1.3855
 4896TIP3    H236104   3.976   5.849  15.298  0.6133 -0.5673 -0.0499
 4897TIP3   OH236105   4.981   5.229   3.899 -0.2040  0.4863 -0.3349
 4897TIP3    H136106   4.979   5.158   3.835  0.2777 -1.9415  2.2659
 4897TIP3    H236107   5.069   5.267   3.892  0.1823 -0.4282 -0.4229
 4898TIP3   OH236108   2.924   4.049   1.248 -0.4200 -0.1840 -0.3710
 4898TIP3    H136109   2.923   4.140   1.217  1.1190 -0.8447 -2.4703
 4898TIP3    H236110   2.861   4.004   1.191  0.9463 -0.9895 -1.2910
 4899TIP3   OH236111   1.421   0.152  12.694  0.2462 -0.0378  0.0873
 4899TIP3    H136112   1.450   0.066  12.725 -0.8759 -0.7695 -0.8664
 4899TIP3    H236113   1.426   0.208  12.772  0.5002 -1.0824  0.8349
 4900TIP3   OH236114   2.264   4.880  14.832 -0.1339 -0.4001 -0.3417
 4900TIP3    H136115   2.180   4.866  14.876  0.8437 -0.8118  1.4651
 4900TIP3    H236116   2.289   4.794  14.799 -0.6476 -0.1808 -1.3197
 4901TIP3   OH236117   6.776   6.436  12.277  0.1323  0.2429  0.1479
 4901TIP3    H136118   6.730   6.359  12.311  0.8069  0.2275  1.0202
 4901TIP3    H236119   6.845   6.453  12.340 -0.8469  2.3846  0.6801
 4902TIP3   OH236120   5.135   3.162   4.119 -0.5376 -0.3068 -0.3431
 4902TIP3    H136121   5.228   3.151   4.096 -0.2876  0.6484  0.1939
 4902TIP3    H236122   5.117   3.255   4.105 -1.2456 -0.3592  0.1706
 4903TIP3   OH236123   0.473   2.090  11.947 -0.7195 -0.7860 -0.2028
 4903TIP3    H136124   0.530   2.014  11.932 -0.5251 -1.1856  2.2387
 4903TIP3    H236125   0.424   2.101  11.866  1.2205 -1.8436 -1.5353
 4904TIP3   OH236126   6.131   0.913  14.504  0.3684 -0.4113  0.1183
 4904TIP3    H136127   6.097   0.999  14.482 -1.8401 -1.4664 -0.7096
 4904TIP3    H236128   6.185   0.889  14.429  1.8136  0.6409  0.7885
 4905TIP3   OH236129   5.658   0.242  11.435 -0.1190 -0.5448  0.6890
 4905TIP3    H136130   5.736   0.215  11.387 -1.1550 -1.5767 -0.4368
 4905TIP3    H236131   5.683   0.325  11.476  1.7768 -1.1999  0.8995
 4906TIP3   OH236132   5.672   1.783   2.047 -0.0314 -0.4381 -0.2219
 4906TIP3    H136133   5.739   1.780   1.979 -0.1977 -2.3759 -0.3230
 4906TIP3    H236134   5.593   1.750   2.004 -0.5886  0.0619  0.4130
 4907TIP3   OH236135   2.070   5.843   2.231 -0.2893 -1.6383  0.2252
 4907TIP3    H136136   1.980   5.811   2.226 -0.7017 -0.6165  0.7587
 4907TIP3    H236137   2.108   5.795   2.305 -1.1306 -0.3829  1.4989
 4908TIP3   OH236138   3.525   5.968   3.493 -0.1539 -0.0172 -0.2530
 4908TIP3    H136139   3.490   5.883   3.516 -1.9281  0.8669  0.3891
 4908TIP3    H236140   3.619   5.953   3.481 -0.4473 -2.0328 -0.1214
 4909TIP3   OH236141   2.667   1.533  15.540 -0.0693  0.1081  0.2519
 4909TIP3    H136142   2.724   1.561  15.611 -0.6311  0.9567  0.3643
 4909TIP3    H236143   2.676   1.437  15.539  0.1683  0.1128  1.2689
 4910TIP3   OH236144   0.617   4.988  11.227 -0.0875  0.1704  0.3476
 4910TIP3    H136145   0.607   4.944  11.143 -0.4217  0.5313  0.1961
 4910TIP3    H236146   0.627   4.916  11.290  0.7976 -0.0840 -0.0746
 4911TIP3   OH236147   6.165   0.926  13.912 -0.1547 -0.1115  0.4651
 4911TIP3    H136148   6.236   0.988  13.933  0.3638  0.0440 -1.6473
 4911TIP3    H236149   6.106   0.932  13.987  1.0162  1.2988  1.3156
 4912TIP3   OH236150   1.963   2.409  11.839 -0.0392 -0.0595 -0.6626
 4912TIP3    H136151   1.979   2.478  11.903 -0.5141  0.1168 -0.7355
 4912TIP3    H236152   2.050   2.376  11.818  0.1142 -0.1528  0.1118
 4913TIP3   OH236153   0.461   3.649  15.773  0.3054 -0.2058 -0.5371
 4913TIP3    H136154   0.536   3.697  15.737 -0.7755  1.1677 -0.9742
 4913TIP3    H236155   0.479   3.646  15.867  1.3285 -0.6199 -0.7373
 4914TIP3   OH236156   0.442   1.881  16.974 -0.0187 -0.0376 -0.4422
 4914TIP3    H136157   0.501   1.955  16.984  2.4676 -1.7091 -2.0319
 4914TIP3    H236158   0.476   1.815  17.035 -0.9567 -0.6067 -0.5272
 4915TIP3   OH236159   4.282   2.443  17.219  0.0921 -0.0913 -0.0770
 4915TIP3    H136160   4.279   2.364  17.272 -0.3968 -1.0758 -1.5412
 4915TIP3    H236161   4.196   2.484  17.233  1.1195  1.3336  2.3570
 4916TIP3   OH236162   5.062   1.710   4.261  0.5037  0.3303  0.2302
 4916TIP3    H136163   4.995   1.751   4.315 -0.1978 -2.2674  1.4427
 4916TIP3    H236164   5.140   1.763   4.273  0.7463 -0.8776  4.9248
 4917TIP3   OH236165   2.557   1.055  13.813  0.5611 -0.1546  0.0123
 4917TIP3    H136166   2.635   1.000  13.798  0.7056 -0.1737  0.8397
 4917TIP3    H236167   2.487   1.007  13.769  1.2848  0.6486 -2.1222
 4918TIP3   OH236168   2.210   5.648  16.091 -0.4454  0.1639  0.2008
 4918TIP3    H136169   2.289   5.694  16.063 -0.3041 -0.2352 -0.0609
 4918TIP3    H236170   2.162   5.632  16.009  0.4059 -1.8345  0.0809
 4919TIP3   OH236171   3.032   1.404   3.256 -0.4921 -0.8025 -0.3055
 4919TIP3    H136172   3.003   1.318   3.228 -1.5419  0.0556 -1.9527
 4919TIP3    H236173   3.026   1.458   3.177 -0.9150  1.0457  0.9652
 4920TIP3   OH236174   0.490   1.325   3.489  0.3396 -0.0514 -0.0201
 4920TIP3    H136175   0.583   1.343   3.486  0.3901 -0.4285 -1.1744
 4920TIP3    H236176   0.451   1.385   3.425 -0.2234  0.1962  0.5449
 4921TIP3   OH236177   2.177   1.347   4.536 -1.0262 -0.7009 -0.7356
 4921TIP3    H136178   2.218   1.300   4.463 -2.1555  0.0751 -1.8958
 4921TIP3    H236179   2.092   1.375   4.501 -2.3788 -1.9549  1.4975
 4922TIP3   OH236180   0.250   2.785  11.344 -0.6083 -0.1794 -1.1822
 4922TIP3    H136181   0.343   2.771  11.328  0.0048 -0.5195  2.3883
 4922TIP3    H236182   0.242   2.880  11.358 -0.8205 -0.1566 -1.4418
 4923TIP3   OH236183   5.288   5.120  14.394 -0.0344  0.4951 -0.4251
 4923TIP3    H136184   5.367   5.139  14.342  0.6066 -0.4257  0.2003
 4923TIP3    H236185   5.236   5.062  14.339 -0.0083  0.6465 -0.6083
 4924TIP3   OH236186   4.177   5.695   0.453 -0.0105 -0.2572  0.6380
 4924TIP3    H136187   4.242   5.656   0.396  2.4426  0.3552  2.9176
 4924TIP3    H236188   4.098   5.643   0.440  1.7110 -2.7032 -0.1999
 4925TIP3   OH236189   4.172   0.385   0.886  0.4735 -0.4230 -0.4243
 4925TIP3    H136190   4.179   0.471   0.845  2.3750 -0.3373  0.0266
 4925TIP3    H236191   4.143   0.402   0.975 -0.9097 -0.3949 -0.8741
 4926TIP3   OH236192   3.527   5.420   3.013  0.3003  0.0621  0.3839
 4926TIP3    H136193   3.574   5.370   2.947 -0.7811  0.2407 -0.5440
 4926TIP3    H236194   3.471   5.356   3.057 -0.4346  0.2925 -0.2086
 4927TIP3   OH236195   1.098   0.069  11.782  0.3448  0.1980  0.1207
 4927TIP3    H136196   1.023   0.027  11.825 -0.9153 -0.3637 -2.5024
 4927TIP3    H236197   1.123   0.140  11.841 -2.9674  1.0868  0.5438
 4928TIP3   OH236198   1.609   2.462  15.724  0.1590  0.1870 -1.0275
 4928TIP3    H136199   1.609   2.534  15.787 -0.8227  0.4274 -1.2947
 4928TIP3    H236200   1.681   2.482  15.665  0.8182  0.1804 -0.2365
 4929TIP3   OH236201   1.265   2.818   4.363 -0.1088  0.2540  0.0280
 4929TIP3    H136202   1.189   2.869   4.336  0.4119  0.7163 -0.5957
 4929TIP3    H236203   1.306   2.791   4.281  0.4097  0.0354  0.3548
 4930TIP3   OH236204   5.643   4.724  16.735  0.9345 -0.2863 -0.5073
 4930TIP3    H136205   5.633   4.649  16.793  0.2112  1.7385  2.0627
 4930TIP3    H236206   5.609   4.694  16.650  1.1832 -2.9993  0.3307
 4931TIP3   OH236207   2.467   5.015  13.711 -0.1477  0.3681  0.3442
 4931TIP3    H136208   2.538   5.035  13.772 -1.0420  1.0450  1.1766
 4931TIP3    H236209   2.389   5.007  13.766 -1.0156  1.2306 -0.7224
 4932TIP3   OH236210   0.148   5.897   5.172 -0.4301  0.2161 -0.4311
 4932TIP3    H136211   0.192   5.886   5.256 -0.8693 -0.8306 -0.3370
 4932TIP3    H236212   0.153   5.991   5.155 -1.5085  0.6477  1.4163
 4933TIP3   OH236213   1.293   6.693  11.695  0.1335  0.1630 -0.0485
 4933TIP3    H136214   1.239   6.761  11.735 -0.7755 -1.4789  1.6024
 4933TIP3    H236215   1.332   6.646  11.769  0.9473 -0.9509 -1.1525
 4934TIP3   OH236216   5.806   1.544  14.574  0.6898 -0.3117 -0.3248
 4934TIP3    H136217   5.799   1.467  14.518 -0.0014 -1.6052  1.4947
 4934TIP3    H236218   5.744   1.528  14.645  0.9346  1.6712  0.3650
 4935TIP3   OH236219   6.300   3.679   5.479  0.0696  0.2420 -0.4177
 4935TIP3    H136220   6.246   3.664   5.402  1.0736  0.0309 -1.0887
 4935TIP3    H236221   6.350   3.599   5.490  1.5395  1.0788 -0.8519
 4936TIP3   OH236222   1.817   3.031   0.998  0.1628  0.8026 -0.1935
 4936TIP3    H136223   1.736   2.993   0.964  1.1652 -2.5472  0.9457
 4936TIP3    H236224   1.876   3.032   0.922 -0.2513  1.2666 -0.5167
 4937TIP3   OH236225   1.899   3.436  13.360 -0.0016 -0.2167 -0.4489
 4937TIP3    H136226   1.815   3.392  13.347 -0.1752 -0.3449  1.0404
 4937TIP3    H236227   1.877   3.515  13.409  0.5275  0.6824 -1.6235
 4938TIP3   OH236228   3.463   5.864   5.400 -0.4109 -0.2621 -0.0876
 4938TIP3    H136229   3.541   5.909   5.431 -1.4532  2.0424 -0.7340
 4938TIP3    H236230   3.497   5.788   5.352  1.5007  1.6250 -1.8063
 4939TIP3   OH236231   1.686   3.764  13.548  0.7075 -0.7201  0.2257
 4939TIP3    H136232   1.638   3.685  13.572  2.1147 -1.3396  1.0309
 4939TIP3    H236233   1.660   3.829  13.614 -0.9521 -0.2892 -0.8148
 4940TIP3   OH236234   6.419   0.442   5.720  0.1682  0.2606 -0.0429
 4940TIP3    H136235   6.383   0.361   5.685  0.8452 -0.4648  0.9167
 4940TIP3    H236236   6.354   0.471   5.785  0.9167 -0.6319  1.1215
 4941TIP3   OH236237   3.189   0.941   1.884  0.0912 -0.2308  0.4113
 4941TIP3    H136238   3.155   0.861   1.923  0.2377 -0.6456 -0.3181
 4941TIP3    H236239   3.150   0.944   1.797  1.5089 -0.4341 -0.2417
 4942TIP3   OH236240   0.154   3.395  16.306  0.4535  0.1056 -0.1040
 4942TIP3    H136241   0.114   3.317  16.346  1.6925  0.0849  1.1086
 4942TIP3    H236242   0.243   3.367  16.284  0.7330  1.0395 -0.1530
 4943TIP3   OH236243   6.495   6.043   0.438 -0.6085  0.4140  0.3348
 4943TIP3    H136244   6.500   6.016   0.347  1.5279 -1.9425  1.0969
 4943TIP3    H236245   6.497   6.138   0.435 -0.8253  0.3678 -2.0779
 4944TIP3   OH236246   2.855   1.512   3.057 -0.5661 -0.0122 -0.5191
 4944TIP3    H136247   2.793   1.583   3.076 -1.9633 -1.0554 -1.0837
 4944TIP3    H236248   2.858   1.508   2.962  1.4432  0.9214 -0.5170
 4945TIP3   OH236249   4.401   3.752  10.444 -0.4573 -0.6501  0.5165
 4945TIP3    H136250   4.382   3.806  10.367 -0.1968 -2.1396 -0.6111
 4945TIP3    H236251   4.359   3.799  10.517  0.6843  1.6275 -0.2440
 4946TIP3   OH236252   2.389   3.594   2.815 -0.4474 -0.4137  0.2096
 4946TIP3    H136253   2.373   3.536   2.889  0.4200  0.7181  1.2980
 4946TIP3    H236254   2.401   3.680   2.854  1.5552 -0.0528 -1.1192
 4947TIP3   OH236255   2.937   2.154   5.196  0.1429  0.3998 -0.6385
 4947TIP3    H136256   2.917   2.155   5.290  1.4216  0.1626 -0.3651
 4947TIP3    H236257   2.998   2.227   5.184  2.6572 -1.6815 -0.6987
 4948TIP3   OH236258   5.823   2.134  13.103  0.4706 -0.3395  0.7414
 4948TIP3    H136259   5.806   2.123  13.196  1.1452 -2.2751  0.6595
 4948TIP3    H236260   5.812   2.228  13.087 -4.3895 -0.6403  1.7864
 4949TIP3   OH236261   0.334   3.466  12.993  0.2690 -0.4068  0.3665
 4949TIP3    H136262   0.351   3.372  12.995 -1.2388 -0.6973  0.4224
 4949TIP3    H236263   0.379   3.497  12.915  2.0682 -0.8885  1.1729
 4950TIP3   OH236264   0.307   2.423   6.509 -0.2704  0.5335  0.3070
 4950TIP3    H136265   0.368   2.350   6.497 -0.0702  0.9270 -1.2245
 4950TIP3    H236266   0.338   2.490   6.448 -0.7918  1.6876  1.2843
 4951TIP3   OH236267   5.192   6.211   4.683 -0.1829 -0.6595 -0.1020
 4951TIP3    H136268   5.192   6.152   4.607 -0.2210 -0.8411  0.0370
 4951TIP3    H236269   5.257   6.173   4.742 -0.7433 -0.9906  0.3142
 4952TIP3   OH236270   6.719   3.738   4.045 -0.0558  0.0804  0.3938
 4952TIP3    H136271   6.814   3.739   4.054 -0.0131  1.7784 -0.1238
 4952TIP3    H236272   6.687   3.706   4.130  1.0105 -1.9864  0.0368
 4953TIP3   OH236273   6.696   0.209   5.234  0.1102  0.1621  0.0385
 4953TIP3    H136274   6.720   0.301   5.244  0.7695 -0.0632  0.5618
 4953TIP3    H236275   6.637   0.208   5.158 -0.1250  1.0506  0.2006
 4954TIP3   OH236276   0.519   4.173   2.726  0.1127  0.0226  0.0508
 4954TIP3    H136277   0.427   4.192   2.741  0.9598  4.1261  0.7591
 4954TIP3    H236278   0.556   4.162   2.813  0.5024 -0.5929 -0.1857
 4955TIP3   OH236279   1.887   1.232   3.675 -0.0851  0.0440 -0.0081
 4955TIP3    H136280   1.895   1.271   3.588  1.6587  0.8210  0.4839
 4955TIP3    H236281   1.888   1.307   3.734  1.5895 -0.6296  0.8473
 4956TIP3   OH236282   2.461   3.823   5.144 -0.5476 -0.3703 -0.2551
 4956TIP3    H136283   2.389   3.801   5.085 -0.1913 -0.9093 -0.4929
 4956TIP3    H236284   2.454   3.760   5.216 -0.4184 -0.3088 -0.1874
 4957TIP3   OH236285   4.358   0.934   0.058  0.1361 -0.4712  0.3832
 4957TIP3    H136286   4.369   0.883   0.139  1.1312  1.4314  1.4907
 4957TIP3    H236287   4.446   0.936   0.019 -0.1855 -0.7613 -0.3660
 4958TIP3   OH236288   1.000   0.493  14.684  0.1860  0.2102 -0.4174
 4958TIP3    H136289   1.071   0.430  14.671  0.0300  0.1272 -0.8463
 4958TIP3    H236290   1.010   0.520  14.775  0.7120  0.1247 -0.4452
 4959TIP3   OH236291   2.152   1.464  12.078  0.2055 -0.2145 -0.0484
 4959TIP3    H136292   2.113   1.444  11.992 -0.3224 -0.3320  0.2163
 4959TIP3    H236293   2.077   1.475  12.136  0.4767  2.6969 -0.1883
 4960TIP3   OH236294   2.353   2.490  16.927  0.2064 -0.4509 -0.4227
 4960TIP3    H136295   2.299   2.566  16.905 -0.9248 -1.6036 -1.6678
 4960TIP3    H236296   2.351   2.487  17.023  0.4875  1.2396 -0.3428
 4961TIP3   OH236297   5.692   3.421   1.649 -0.0024  0.0183  0.0433
 4961TIP3    H136298   5.705   3.363   1.724 -0.8944  0.2471  0.3859
 4961TIP3    H236299   5.615   3.385   1.604 -0.5723  0.9383  0.2738
 4962TIP3   OH236300   3.964   2.645   2.357  0.1866 -0.1216 -0.0403
 4962TIP3    H136301   4.058   2.630   2.356  0.2768  0.4375  0.1252
 4962TIP3    H236302   3.954   2.737   2.380 -0.4221 -0.3691  0.7289
 4963TIP3   OH236303   0.960   2.831   0.561 -0.3786 -0.0224  0.3229
 4963TIP3    H136304   0.976   2.842   0.655 -0.9429 -1.4710  0.5888
 4963TIP3    H236305   1.037   2.783   0.529  1.3125  3.0793 -0.5568
 4964TIP3   OH236306   0.562   4.974  16.314 -0.6210  0.0041  0.2100
 4964TIP3    H136307   0.516   4.952  16.396  0.6312 -1.3177  0.5834
 4964TIP3    H236308   0.633   5.031  16.341 -1.6906  1.6105 -0.3005
 4965TIP3   OH236309   5.253   4.399  12.609  0.1482 -0.2028 -0.3428
 4965TIP3    H136310   5.229   4.413  12.701 -0.7798  0.0715 -0.6212
 4965TIP3    H236311   5.307   4.475  12.587  1.2309 -0.7807  0.2652
 4966TIP3   OH236312   3.771   5.055   0.092 -0.2951  0.4994  0.5559
 4966TIP3    H136313   3.706   4.995   0.128 -0.0365  0.8361  1.6033
 4966TIP3    H236314   3.723   5.137   0.077 -0.6288  0.0602 -0.7951
 4967TIP3   OH236315   4.871   2.124   3.950 -0.3128  0.0017  0.1065
 4967TIP3    H136316   4.814   2.116   3.873  0.6561 -1.7110 -0.4630
 4967TIP3    H236317   4.895   2.034   3.971  1.1364  0.6205  1.1509
 4968TIP3   OH236318   2.268   2.157  12.299 -0.2775  0.8289  0.8344
 4968TIP3    H136319   2.196   2.117  12.249  2.3002 -0.8541 -1.6771
 4968TIP3    H236320   2.286   2.094  12.369 -0.3973  0.6411  0.6992
 4969TIP3   OH236321   4.604   4.870  12.237  0.2080 -0.5330  0.4894
 4969TIP3    H136322   4.510   4.866  12.256  0.1396  1.4429  0.6759
 4969TIP3    H236323   4.645   4.819  12.307 -0.8449 -3.3654 -0.8605
 4970TIP3   OH236324   3.525   1.214   0.995  0.2001 -0.6005  0.1722
 4970TIP3    H136325   3.537   1.135   0.942 -1.3259 -0.9907  0.3799
 4970TIP3    H236326   3.486   1.277   0.935  2.3077  0.3268 -0.2475
 4971TIP3   OH236327   5.032   4.085  16.238 -0.4689  0.2296 -0.2739
 4971TIP3    H136328   4.992   4.009  16.196  1.8776 -1.1615 -0.1042
 4971TIP3    H236329   5.104   4.109  16.180 -0.4865  1.6189  0.2669
 4972TIP3   OH236330   6.391   1.040  14.048 -0.0439 -0.3469 -0.5442
 4972TIP3    H136331   6.477   0.999  14.041 -0.6044 -1.6356  0.0545
 4972TIP3    H236332   6.410   1.134  14.050  1.4131 -0.6468  0.4965
 4973TIP3   OH236333   4.838   4.031   0.871  0.3804  0.4594  0.3662
 4973TIP3    H136334   4.835   4.127   0.872 -3.0596  0.4363  1.8817
 4973TIP3    H236335   4.782   4.006   0.798  0.6891 -0.3782  0.4135
 4974TIP3   OH236336   1.281   6.041  14.096 -0.5816  0.5495 -0.1574
 4974TIP3    H136337   1.303   6.011  14.008 -1.4237  0.7242 -0.4317
 4974TIP3    H236338   1.233   5.967  14.135  2.0580 -0.5592  1.0968
 4975TIP3   OH236339   5.095   1.799   3.116  0.1527  0.4348 -0.2391
 4975TIP3    H136340   5.045   1.852   3.179  1.4989  1.9719 -0.4455
 4975TIP3    H236341   5.184   1.799   3.150  0.4280 -0.6349 -0.9400
 4976TIP3   OH236342   0.423   5.706   5.735 -0.7129 -0.1010 -0.2922
 4976TIP3    H136343   0.492   5.646   5.708  1.1329  2.0077 -0.3543
 4976TIP3    H236344   0.374   5.657   5.801  0.5602 -1.7958 -0.5733
 4977TIP3   OH236345   6.548   3.716  12.332 -0.3757 -0.1855  0.0259
 4977TIP3    H136346   6.593   3.785  12.381  1.7053 -1.2362 -0.3362
 4977TIP3    H236347   6.471   3.695  12.384 -2.8243  4.5873 -1.3881
 4978TIP3   OH236348   0.337   1.980   1.597  0.1622 -0.1583  0.1138
 4978TIP3    H136349   0.365   2.042   1.665 -0.3475  0.6769 -0.4370
 4978TIP3    H236350   0.298   2.034   1.529 -2.8728 -1.2733  0.8567
 4979TIP3   OH236351   6.588   0.478  16.680 -0.1193  0.4218  0.1601
 4979TIP3    H136352   6.575   0.534  16.603  1.2195  1.2248  0.5098
 4979TIP3    H236353   6.654   0.415  16.654  1.1795  1.4042  0.9904
 4980TIP3   OH236354   4.447   5.386  15.669 -0.2473  0.3803 -0.4540
 4980TIP3    H136355   4.422   5.410  15.759 -1.3862 -0.0375 -0.6496
 4980TIP3    H236356   4.366   5.396  15.619  0.9971  3.3622 -2.0041
 4981TIP3   OH236357   2.958   3.938   5.155 -0.1961 -0.1242  0.5186
 4981TIP3    H136358   2.960   3.934   5.250  0.1323  1.8232  0.6053
 4981TIP3    H236359   2.930   3.850   5.128  0.2775 -0.8577  2.3721
 4982TIP3   OH236360   3.753   1.308   5.896 -0.7598  0.6839 -0.5298
 4982TIP3    H136361   3.788   1.261   5.821  0.9257 -0.1073  0.7100
 4982TIP3    H236362   3.658   1.297   5.890 -0.4234 -2.5116 -0.5194
 4983TIP3   OH236363   2.945   3.933   2.520 -0.8106 -0.0128 -0.8944
 4983TIP3    H136364   3.016   3.870   2.527 -0.3337  0.4727 -1.2729
 4983TIP3    H236365   2.882   3.907   2.587 -0.0795 -0.1986 -0.2784
 4984TIP3   OH236366   0.930   1.666  11.232 -0.0348 -0.2579 -0.5799
 4984TIP3    H136367   0.838   1.645  11.239 -0.4559  1.5102 -0.4002
 4984TIP3    H236368   0.932   1.762  11.221  1.7992 -0.1749  0.2537
 4985TIP3   OH236369   1.792   5.346  14.606  0.1501 -0.3458 -0.2921
 4985TIP3    H136370   1.877   5.349  14.562  1.2842  1.6660  1.9141
 4985TIP3    H236371   1.731   5.382  14.542  1.5401  1.2897 -0.7476
 4986TIP3   OH236372   2.525   6.555   2.640  0.0062 -0.0898 -0.3174
 4986TIP3    H136373   2.565   6.520   2.561  0.0030  0.2834 -0.4821
 4986TIP3    H236374   2.597   6.600   2.685  0.0711 -0.5292  0.0243
 4987TIP3   OH236375   5.061   2.759  17.239 -0.1430 -0.3111  0.8574
 4987TIP3    H136376   5.001   2.827  17.270  0.5178  1.7411 -2.1104
 4987TIP3    H236377   5.147   2.787  17.271  0.6358  2.1377 -3.0134
 4988TIP3   OH236378   0.374   6.713  14.150  0.2383  0.4318  0.0284
 4988TIP3    H136379   0.435   6.645  14.121 -0.1224  0.4115 -0.7040
 4988TIP3    H236380   0.371   6.775  14.077  1.4513  1.8495  1.1525
 4989TIP3   OH236381   6.222   1.604   4.334  0.2344 -0.4843  0.3194
 4989TIP3    H136382   6.204   1.544   4.261  0.8463  2.1417 -2.0788
 4989TIP3    H236383   6.136   1.618   4.375 -0.4022 -0.7599 -0.8891
 4990TIP3   OH236384   1.018   2.853  14.820 -0.0966 -0.1363 -0.6297
 4990TIP3    H136385   1.017   2.943  14.853 -2.1657  0.0991 -1.2131
 4990TIP3    H236386   0.953   2.807  14.873  0.4819 -1.1316 -0.7638
 4991TIP3   OH236387   6.105   5.637  13.809  0.5856 -0.1086 -0.6153
 4991TIP3    H136388   6.083   5.568  13.871  3.2019  1.6485  2.4445
 4991TIP3    H236389   6.038   5.704  13.822 -0.4615 -0.9091 -1.7431
 4992TIP3   OH236390   3.278   1.749   1.811 -0.1255 -0.1652  0.4424
 4992TIP3    H136391   3.354   1.692   1.822  0.7689  0.8971 -0.1161
 4992TIP3    H236392   3.215   1.718   1.876  0.6382 -1.2978  0.6575
 4993TIP3   OH236393   1.570   3.650   3.276 -0.3736  0.1427 -0.2645
 4993TIP3    H136394   1.605   3.595   3.345 -0.7208 -0.7056 -0.7643
 4993TIP3    H236395   1.502   3.702   3.318  1.9746  2.4005  0.9182
 4994TIP3   OH236396   6.324   0.288  14.219  0.2990  0.3045 -0.2485
 4994TIP3    H136397   6.260   0.321  14.157  0.6860 -0.1709 -0.9175
 4994TIP3    H236398   6.278   0.220  14.268  0.3042 -0.0639 -0.7556
 4995TIP3   OH236399   2.701   4.535  12.850 -0.5081  0.2217 -0.4013
 4995TIP3    H136400   2.651   4.481  12.789  0.6266 -0.9827 -0.2808
 4995TIP3    H236401   2.729   4.474  12.919 -1.8445  1.5676  1.3901
 4996TIP3   OH236402   0.610   3.283   1.460  0.4321  0.1150 -0.4225
 4996TIP3    H136403   0.588   3.290   1.553 -0.0316  1.3966 -0.6116
 4996TIP3    H236404   0.562   3.355   1.419  0.3881 -0.6308 -1.7027
 4997TIP3   OH236405   6.556   2.639   0.843  0.1110  0.1503 -0.4953
 4997TIP3    H136406   6.540   2.608   0.754 -2.7442 -0.0600  0.0545
 4997TIP3    H236407   6.471   2.636   0.885  1.3409  0.6936  2.1287
 4998TIP3   OH236408   0.546   0.162   0.463 -0.0044 -0.2151  0.1070
 4998TIP3    H136409   0.559   0.257   0.461  0.3484 -0.2507  0.5897
 4998TIP3    H236410   0.474   0.149   0.524 -0.8277 -0.1831 -0.8361
 4999TIP3   OH236411   1.090   2.290   3.991 -0.3415  0.9752  0.1366
 4999TIP3    H136412   1.139   2.293   4.073  1.4681  2.0002 -0.9556
 4999TIP3    H236413   1.074   2.381   3.968  0.5924  0.7564 -1.4705
 5000TIP3   OH236414   0.372   5.992  12.463 -0.0226  0.2123  0.0215
 5000TIP3    H136415   0.335   5.904  12.460 -0.5708  0.3857  1.3510
 5000TIP3    H236416   0.355   6.022  12.552 -0.3194  1.8624 -0.5684
 5001TIP3   OH236417   3.323   5.040  11.870  0.0926  1.0792 -0.4441
 5001TIP3    H136418   3.237   5.006  11.895  0.3461  0.1423 -0.7923
 5001TIP3    H236419   3.372   5.045  11.952  0.1892  0.1698 -0.4342
 5002TIP3   OH236420   2.254   5.028  11.366  0.1992  0.2848 -0.0680
 5002TIP3    H136421   2.158   5.021  11.362  0.2240 -0.1687  0.1228
 5002TIP3    H236422   2.283   5.007  11.278  0.2498 -1.6356  0.4008
 5003TIP3   OH236423   2.651   6.212  14.246 -0.0784 -0.1146 -0.0977
 5003TIP3    H136424   2.708   6.258  14.307  0.0802 -0.3037 -0.1033
 5003TIP3    H236425   2.564   6.251  14.260 -0.3031 -1.0450  1.1614
 5004TIP3   OH236426   2.308   2.727   5.017  0.2810 -0.2249 -0.9655
 5004TIP3    H136427   2.379   2.666   4.992  0.1023 -0.3562 -1.1527
 5004TIP3    H236428   2.349   2.786   5.080  0.8598  0.3870 -1.9087
 5005TIP3   OH236429   3.762   4.569   1.669 -0.3767 -0.2895  0.0818
 5005TIP3    H136430   3.839   4.562   1.613 -0.5858  1.7980 -0.5250
 5005TIP3    H236431   3.760   4.487   1.718  0.7828 -1.4380 -1.7207
 5006TIP3   OH236432   3.533   1.136  14.947 -0.3453 -0.1091 -0.0384
 5006TIP3    H136433   3.471   1.174  15.009 -1.9599 -2.4429 -0.1814
 5006TIP3    H236434   3.479   1.102  14.876  1.3117  0.3282 -1.5483
 5007TIP3   OH236435   2.742   2.249   0.045  0.2382  0.4600  0.1863
 5007TIP3    H136436   2.725   2.160   0.077  2.0093  0.3339  0.8402
 5007TIP3    H236437   2.690   2.305   0.102 -2.0041 -0.2293 -1.1273
 5008TIP3   OH236438   2.153   5.489   3.641  0.0115  0.1844  0.7099
 5008TIP3    H136439   2.225   5.506   3.701  1.8226 -0.0046 -1.3526
 5008TIP3    H236440   2.154   5.394   3.629  1.2243  0.4365 -1.4539
 5009TIP3   OH236441   3.959   3.640   5.081 -0.0068 -0.4656  0.1045
 5009TIP3    H136442   4.006   3.650   4.999  0.2714 -0.2572  0.2890
 5009TIP3    H236443   3.951   3.728   5.116  1.8635 -0.7897  1.4052
 5010TIP3   OH236444   3.808   3.054  15.811 -0.3390  0.2377 -0.2067
 5010TIP3    H136445   3.754   3.123  15.849  2.0658  1.1988  1.6235
 5010TIP3    H236446   3.860   3.098  15.744 -1.1277 -0.4974 -1.3249
 5011TIP3   OH236447   5.914   1.054  12.866  0.3227  0.4599  0.4932
 5011TIP3    H136448   5.851   0.993  12.829 -0.7550  1.9590 -0.2247
 5011TIP3    H236449   5.926   1.026  12.957 -0.2349 -0.7372  0.1958
 5012TIP3   OH236450   6.643   1.324  12.861  0.0601 -0.0043 -0.1388
 5012TIP3    H136451   6.729   1.288  12.883 -0.6254 -1.6617 -0.0912
 5012TIP3    H236452   6.660   1.388  12.792  1.3729  0.0289  0.2042
 5013TIP3   OH236453   6.357   3.255  13.046  0.3776  0.4798 -0.1380
 5013TIP3    H136454   6.376   3.334  13.096  2.6241 -0.5746  0.7038
 5013TIP3    H236455   6.365   3.184  13.109  0.2516 -0.5941 -1.3165
 5014TIP3   OH236456   6.169   0.662   2.619  0.2183 -0.1913  0.0883
 5014TIP3    H136457   6.205   0.643   2.532  1.4434  1.8467  0.1264
 5014TIP3    H236458   6.076   0.681   2.603 -0.0576 -1.9169 -0.4771
 5015TIP3   OH236459   4.015   2.847  14.965  0.4975  0.1668  0.0247
 5015TIP3    H136460   3.993   2.903  14.890 -0.3532 -0.2623 -0.0494
 5015TIP3    H236461   4.011   2.906  15.040 -1.6741 -0.0566  0.1092
 5016TIP3   OH236462   3.634   4.004   4.661 -0.4088  0.4606 -0.1733
 5016TIP3    H136463   3.648   4.012   4.756  1.9521  1.6059 -0.5782
 5016TIP3    H236464   3.682   4.078   4.624  0.2935 -1.0807 -2.4181
 5017TIP3   OH236465   0.701   2.446  10.741 -0.3073  0.1407 -0.0230
 5017TIP3    H136466   0.635   2.514  10.741  1.3982  1.8407  1.4683
 5017TIP3    H236467   0.784   2.493  10.739  0.9164 -1.8513  1.7637
 5018TIP3   OH236468   5.617   0.472   1.263  0.0163 -0.0682  0.0938
 5018TIP3    H136469   5.621   0.553   1.213 -0.3609 -0.5026 -0.6634
 5018TIP3    H236470   5.549   0.421   1.219  2.2196 -1.9798 -1.2689
 5019TIP3   OH236471   6.196   1.554  15.987  0.1666 -0.5311  0.2343
 5019TIP3    H136472   6.225   1.603  15.909  2.2189 -0.9277  0.7190
 5019TIP3    H236473   6.221   1.610  16.060 -0.7948 -0.6543  0.6587
 5020TIP3   OH236474   4.222   6.630  17.150  0.6322  0.0097  0.1697
 5020TIP3    H136475   4.260   6.550  17.187 -1.6414 -0.5894  1.2666
 5020TIP3    H236476   4.288   6.697  17.168  2.6738 -1.6222 -0.9635
 5021TIP3   OH236477   3.368   1.773   3.430  0.3048 -0.1515  0.1307
 5021TIP3    H136478   3.342   1.818   3.350  1.1240 -0.0367 -0.0753
 5021TIP3    H236479   3.350   1.680   3.413  0.4063 -0.1186 -0.1553
 5022TIP3   OH236480   2.860   4.870   2.341  0.1714  0.1766 -0.1636
 5022TIP3    H136481   2.897   4.782   2.336 -1.7169 -0.5155 -3.8027
 5022TIP3    H236482   2.766   4.856   2.350 -0.1713  1.8090 -1.0215
 5023TIP3   OH236483   4.730   2.010  14.657 -0.2599 -0.2294  0.1500
 5023TIP3    H136484   4.782   2.020  14.577 -1.2026  1.0558 -0.3217
 5023TIP3    H236485   4.752   1.923  14.690 -0.0463 -0.8671 -1.6472
 5024TIP3   OH236486   2.034   1.207   4.972 -0.5815 -0.6097 -0.1679
 5024TIP3    H136487   1.967   1.239   4.912  0.8461 -1.3490 -2.1978
 5024TIP3    H236488   2.061   1.123   4.936  1.7726 -0.1232  0.3224
 5025TIP3   OH236489   5.541   2.151   5.132 -0.7629 -0.7473 -0.5847
 5025TIP3    H136490   5.601   2.133   5.204 -1.2758 -0.8312 -0.1725
 5025TIP3    H236491   5.594   2.142   5.053  0.1937  0.9371 -0.1484
 5026TIP3   OH236492   5.239   1.906  13.512 -0.4798  0.3322  0.1161
 5026TIP3    H136493   5.226   1.934  13.422  1.2678 -0.4973 -0.4288
 5026TIP3    H236494   5.225   1.984  13.564 -1.8072  0.7483 -0.8496
 5027TIP3   OH236495   5.326   5.541  14.511  0.4746  0.0812  0.0075
 5027TIP3    H136496   5.299   5.483  14.582  0.6034 -1.7400 -1.4166
 5027TIP3    H236497   5.407   5.503  14.478  0.3675  0.8783 -1.1814
 5028TIP3   OH236498   4.662   0.358  11.136 -0.8517 -0.4710  0.2794
 5028TIP3    H136499   4.714   0.439  11.132 -2.6232  0.6030 -1.9882
 5028TIP3    H236500   4.726   0.288  11.121  0.4146  0.6083  0.5370
 5029TIP3   OH236501   2.514   6.787  15.672  0.4441  0.1033  0.4818
 5029TIP3    H136502   2.556   6.729  15.608  0.4548 -0.1459  0.7119
 5029TIP3    H236503   2.562   6.771  15.753  0.8671  0.9228  0.3928
 5030TIP3   OH236504   2.443   0.257  13.910  0.5812  0.2495  0.0886
 5030TIP3    H136505   2.413   0.335  13.956  1.3782  0.3743  0.3934
 5030TIP3    H236506   2.502   0.213  13.971 -0.6224 -1.1084  0.2999
 5031TIP3   OH236507   5.615   1.958   0.420  0.1308  0.0684 -0.0028
 5031TIP3    H136508   5.549   1.888   0.421 -1.1986  1.2924  0.4109
 5031TIP3    H236509   5.629   1.979   0.512 -0.0920  0.8959 -0.1518
 5032TIP3   OH236510   5.213   3.948  12.690 -0.0533 -0.5658 -0.0497
 5032TIP3    H136511   5.264   3.992  12.623 -1.5847 -0.5279 -1.2228
 5032TIP3    H236512   5.150   3.895  12.642 -2.8041  1.3274  1.2817
 5033TIP3   OH236513   5.761   2.601   3.659  0.1697 -0.2250  0.0084
 5033TIP3    H136514   5.779   2.634   3.747  3.4316 -0.1288 -0.6184
 5033TIP3    H236515   5.780   2.508   3.664  0.5864 -0.1789 -0.6313
 5034TIP3   OH236516   3.733   3.661  16.455 -0.2681 -0.2797  0.2285
 5034TIP3    H136517   3.798   3.634  16.389  0.5819  1.3028  0.4024
 5034TIP3    H236518   3.768   3.742  16.491 -1.5170 -0.3072  1.5358
 5035TIP3   OH236519   1.438   4.131  14.682  0.3931  0.2877 -0.5771
 5035TIP3    H136520   1.458   4.156  14.591 -0.3063  1.5309 -0.4032
 5035TIP3    H236521   1.406   4.041  14.675  3.1543 -0.7163 -1.1954
 5036TIP3   OH236522   0.900   0.955  13.079 -0.2548 -0.1755  0.5047
 5036TIP3    H136523   0.887   1.003  12.998  0.3464 -0.4989  0.2143
 5036TIP3    H236524   0.995   0.949  13.089 -0.2852 -2.7974 -0.3810
 5037TIP3   OH236525   2.471   4.285   1.660 -0.6259 -0.1332  0.0108
 5037TIP3    H136526   2.439   4.368   1.693  0.6713  0.6848 -0.7477
 5037TIP3    H236527   2.532   4.254   1.726 -0.9070 -0.3574  0.1673
 5038TIP3   OH236528   1.857   2.100  16.561 -0.3101  0.4916 -0.1793
 5038TIP3    H136529   1.794   2.121  16.491  0.0299  2.5697  0.0892
 5038TIP3    H236530   1.892   2.015  16.537 -0.0235  1.2615 -2.7108
 5039TIP3   OH236531   5.270   0.960  12.454 -0.0499 -0.5776  0.4190
 5039TIP3    H136532   5.210   0.919  12.516  1.6482  0.2445  2.6550
 5039TIP3    H236533   5.272   1.052  12.479 -0.6066  0.1117 -1.9193
 5040TIP3   OH236534   5.987   5.493  16.823 -0.2391  0.0326 -0.5845
 5040TIP3    H136535   6.036   5.575  16.826  1.3248 -0.8778 -0.4932
 5040TIP3    H236536   6.028   5.438  16.890 -0.5841 -1.1988 -1.3673
 5041TIP3   OH236537   6.677   5.784  14.843  0.2011 -0.2794 -0.2689
 5041TIP3    H136538   6.694   5.732  14.921  0.1692  1.0715  0.6629
 5041TIP3    H236539   6.763   5.822  14.820  0.3420 -1.1791 -1.2794
 5042TIP3   OH236540   5.154   6.519  10.424  0.1734  0.6015 -0.2212
 5042TIP3    H136541   5.225   6.530  10.360  0.2876  1.5103  0.0604
 5042TIP3    H236542   5.185   6.565  10.502  0.7204 -1.7926  1.0542
 5043TIP3   OH236543   5.080   5.446  13.386  0.1014  0.2841  0.5783
 5043TIP3    H136544   5.017   5.516  13.370  0.4914  0.6038  0.4340
 5043TIP3    H236545   5.086   5.399  13.303  0.2836  0.4403  0.5031
 5044TIP3   OH236546   2.586   4.469  14.152  0.2583 -0.3946 -0.0593
 5044TIP3    H136547   2.641   4.436  14.081  0.4838  0.6699 -0.4012
 5044TIP3    H236548   2.641   4.533  14.197  0.0180 -0.8641  0.9075
 5045TIP3   OH236549   0.506   1.528  12.750 -0.0005 -0.0811  0.2114
 5045TIP3    H136550   0.505   1.432  12.750  1.1249 -0.1039 -0.8519
 5045TIP3    H236551   0.495   1.552  12.658 -0.7880  0.8314  0.5286
 5046TIP3   OH236552   1.121   0.811   1.570  0.1685 -0.8975  0.7302
 5046TIP3    H136553   1.066   0.871   1.620  0.0561 -0.2009 -0.2037
 5046TIP3    H236554   1.210   0.841   1.587  0.2991 -2.2922  2.5838
 5047TIP3   OH236555   4.257   1.826   5.609 -0.4304  0.1542  0.2970
 5047TIP3    H136556   4.324   1.895   5.606  0.8009 -0.9936  0.8639
 5047TIP3    H236557   4.174   1.873   5.598  0.3497  1.7864  1.1849
 5048TIP3   OH236558   6.692   1.745  16.472 -0.3515 -0.7192 -0.6728
 5048TIP3    H136559   6.715   1.833  16.503  1.3507 -0.7529 -1.7913
 5048TIP3    H236560   6.647   1.760  16.389 -1.0171 -0.8703 -0.3471
 5049TIP3   OH236561   0.926   1.023  14.209 -0.6982 -0.1144  0.2050
 5049TIP3    H136562   0.883   0.983  14.285  1.3598 -0.1334  1.3977
 5049TIP3    H236563   0.889   1.111  14.204 -2.0547 -0.6655  0.2125
 5050TIP3   OH236564   2.235   4.827  13.755 -0.3860  0.0404  0.2081
 5050TIP3    H136565   2.222   4.744  13.801  1.7315  1.2667  3.1832
 5050TIP3    H236566   2.303   4.808  13.690  2.2172  0.0025  2.8005
 5051TIP3   OH236567   1.108   5.709   5.355 -0.6278 -0.5407 -0.5853
 5051TIP3    H136568   1.181   5.770   5.347  0.3653 -1.6955 -0.4103
 5051TIP3    H236569   1.083   5.714   5.448 -1.4575  0.6177 -0.8568
 5052TIP3   OH236570   0.044   3.329   1.775  0.1478  0.2358 -0.2116
 5052TIP3    H136571  -0.037   3.321   1.723 -0.0856 -0.7860  0.3021
 5052TIP3    H236572   0.097   3.392   1.726 -1.0344  1.0602 -0.4554
 5053TIP3   OH236573   0.067   3.011  10.356  0.1867  0.0891  0.2608
 5053TIP3    H136574   0.098   3.100  10.373 -0.0411 -0.3009  2.9013
 5053TIP3    H236575   0.140   2.955  10.384 -1.5519 -0.7082  3.3376
 5054TIP3   OH236576   1.750   3.594  14.626  0.2191 -0.7435  0.1276
 5054TIP3    H136577   1.689   3.639  14.568  0.9678 -1.0511 -0.9181
 5054TIP3    H236578   1.748   3.644  14.707 -0.7628 -0.2434 -0.1965
 5055TIP3   OH236579   0.241   3.927  15.753 -0.0372  0.5092  0.2321
 5055TIP3    H136580   0.173   3.860  15.749 -0.6908  1.1258  0.9785
 5055TIP3    H236581   0.214   3.984  15.825  1.4606  0.5511  0.7729
 5056TIP3   OH236582   6.474   3.269  14.248  0.2092  0.6655  0.2055
 5056TIP3    H136583   6.550   3.210  14.253  0.2294  0.6043 -0.8629
 5056TIP3    H236584   6.511   3.354  14.222 -0.1779  0.4481 -1.0789
 5057TIP3   OH236585   5.313   0.539  13.366 -0.3451 -0.4845  0.4438
 5057TIP3    H136586   5.283   0.585  13.445 -0.1396  1.1229 -0.3763
 5057TIP3    H236587   5.331   0.450  13.395 -1.1477 -0.1521  2.0151
 5058TIP3   OH236588   4.299   2.484   0.377  0.5436  0.5135  0.0184
 5058TIP3    H136589   4.204   2.476   0.367  0.8217 -1.7113 -1.2015
 5058TIP3    H236590   4.329   2.396   0.398  2.4793  0.9425 -0.7773
 5059TIP3   OH236591   4.526   5.004  10.691  0.5355 -0.3569 -0.3567
 5059TIP3    H136592   4.513   4.956  10.609  0.9700  0.4414 -0.9013
 5059TIP3    H236593   4.459   5.073  10.688 -0.4066 -1.2162  0.6486
 5060TIP3   OH236594   0.870   2.403   1.537 -0.2981 -0.3118  0.5651
 5060TIP3    H136595   0.927   2.470   1.575 -1.5938  0.6344  0.8991
 5060TIP3    H236596   0.825   2.448   1.465 -0.1324 -1.2319 -0.1164
 5061TIP3   OH236597   1.638   4.940   3.583  0.2093 -0.3425  0.2470
 5061TIP3    H136598   1.622   4.934   3.489 -0.4611  1.8185  0.1939
 5061TIP3    H236599   1.582   5.012   3.612  1.4318 -0.0945  2.0469
 5062TIP3   OH236600   3.968   2.202   6.215 -0.0652 -0.0090  0.4436
 5062TIP3    H136601   3.928   2.267   6.274  0.9345  0.9667  0.0720
 5062TIP3    H236602   3.962   2.119   6.262 -2.2336  0.1765  0.5259
 5063TIP3   OH236603   1.394   6.591  11.921 -0.3697  0.2348  0.0380
 5063TIP3    H136604   1.454   6.516  11.912  0.0604  0.9479 -3.4855
 5063TIP3    H236605   1.343   6.571  12.000  0.6839 -3.0855 -0.0561
 5064TIP3   OH236606   5.635   3.328   5.837 -0.0397  0.0896 -0.1347
 5064TIP3    H136607   5.608   3.399   5.895  0.3947 -0.8825  1.2683
 5064TIP3    H236608   5.567   3.325   5.770 -2.1191 -0.6775  1.9475
 5065TIP3   OH236609   1.926   5.800  11.708 -0.3060 -0.0832 -0.2043
 5065TIP3    H136610   2.003   5.856  11.703 -0.4610  0.1499  0.0309
 5065TIP3    H236611   1.887   5.820  11.793 -1.3709  0.7619 -0.8897
 5066TIP3   OH236612   6.784   3.036   4.145 -0.0662  0.1428 -0.0430
 5066TIP3    H136613   6.757   3.065   4.058 -1.4450 -2.2693 -0.4828
 5066TIP3    H236614   6.861   2.982   4.130  0.6072  0.9769  0.4045
 5067TIP3   OH236615   6.164   2.294   5.990 -0.4395  0.5452  0.2020
 5067TIP3    H136616   6.192   2.252   6.071 -2.6115  2.0051  1.7956
 5067TIP3    H236617   6.198   2.383   5.995 -1.5171  0.9812  0.0659
 5068TIP3   OH236618   2.895   0.946  15.727  0.1409  0.3807 -0.3033
 5068TIP3    H136619   2.942   0.867  15.753 -1.1917  0.3182  2.1177
 5068TIP3    H236620   2.961   1.001  15.686  1.0209 -2.1014 -2.3883
 5069TIP3   OH236621   6.366   3.447  10.880 -0.0270 -0.4598  0.0872
 5069TIP3    H136622   6.345   3.370  10.827  0.5031 -0.1893 -0.5208
 5069TIP3    H236623   6.282   3.472  10.919  0.0763 -2.2726  1.5604
 5070TIP3   OH236624   4.414   6.236   2.223 -0.2377 -0.1855 -0.2636
 5070TIP3    H136625   4.320   6.247   2.239 -0.5920  0.3095 -2.4752
 5070TIP3    H236626   4.438   6.313   2.170  1.1364 -0.9634 -0.7882
 5071TIP3   OH236627   5.373   4.359  16.508 -0.2321 -0.0545  0.6774
 5071TIP3    H136628   5.289   4.333  16.469  0.5394 -0.2574 -0.8861
 5071TIP3    H236629   5.383   4.301  16.584 -1.3581 -0.2425  0.6917
 5072TIP3   OH236630   0.575   5.007   2.194 -0.4583  0.1849 -0.0023
 5072TIP3    H136631   0.543   4.946   2.128  1.3418  0.2480 -0.9405
 5072TIP3    H236632   0.624   5.073   2.145  1.1333  0.0979  1.4246
 5073TIP3   OH236633   0.720   6.047   5.826  0.1474  1.0780 -0.3875
 5073TIP3    H136634   0.791   6.048   5.761 -0.6198 -0.0042 -1.2607
 5073TIP3    H236635   0.640   6.042   5.773 -0.4783  0.1093  0.6505
 5074TIP3   OH236636   2.962   1.364  11.285 -0.0483  0.6228  0.1599
 5074TIP3    H136637   3.029   1.353  11.217 -0.9536 -0.9149 -0.5253
 5074TIP3    H236638   3.003   1.419  11.351  2.2110 -0.9625  0.1410
 5075TIP3   OH236639   4.199   3.840   0.639  0.6644 -0.0405 -0.0852
 5075TIP3    H136640   4.116   3.791   0.634  0.8367 -0.4736  1.1563
 5075TIP3    H236641   4.181   3.911   0.700  1.3056 -0.3403  0.4596
 5076TIP3   OH236642   2.291   5.006  11.663 -0.6180  0.2158  0.5834
 5076TIP3    H136643   2.284   5.016  11.568 -0.9477  2.6643  0.8480
 5076TIP3    H236644   2.234   4.931  11.683 -0.1466 -0.6432 -1.1754
 5077TIP3   OH236645   4.342   5.449   4.803  0.3372  0.0876 -0.1239
 5077TIP3    H136646   4.255   5.413   4.783  0.8099 -0.3123 -1.4625
 5077TIP3    H236647   4.383   5.463   4.718  1.7212 -0.0059  0.5130
 5078TIP3   OH236648   3.617   5.471   1.798  0.1109  0.8706  0.4031
 5078TIP3    H136649   3.549   5.497   1.860 -0.2185 -1.6783  1.1565
 5078TIP3    H236650   3.570   5.440   1.721  0.4161 -0.1300  0.6072
 5079TIP3   OH236651   0.636   2.341   2.894  0.4875 -0.2278  0.2644
 5079TIP3    H136652   0.601   2.307   2.812 -1.2539 -2.1827  1.7684
 5079TIP3    H236653   0.718   2.293   2.907  0.5369 -0.2426 -0.1042
 5080TIP3   OH236654   1.677   6.524  15.328  0.9073 -0.2578 -0.4154
 5080TIP3    H136655   1.753   6.520  15.270  1.4626 -0.1700  0.3034
 5080TIP3    H236656   1.602   6.525  15.269  1.4496 -0.7887 -1.1132
 5081TIP3   OH236657   3.976   3.571   3.590 -0.5883 -0.5341  0.1816
 5081TIP3    H136658   3.881   3.580   3.586 -0.4966  0.0458 -1.2296
 5081TIP3    H236659   4.006   3.654   3.627 -0.4971  0.2725 -1.6404
 5082TIP3   OH236660   5.475   1.282   2.158  0.8172  0.0248 -0.2905
 5082TIP3    H136661   5.391   1.236   2.160  0.7652  0.1472  1.5464
 5082TIP3    H236662   5.497   1.295   2.250  1.6742  2.1616 -0.7738
 5083TIP3   OH236663   0.479   6.189   5.209  0.4116 -0.0507  0.0990
 5083TIP3    H136664   0.494   6.100   5.243 -1.4993 -0.3911  0.0958
 5083TIP3    H236665   0.567   6.224   5.194  1.1959 -1.7036  0.7303
 5084TIP3   OH236666   0.323   3.926  13.314 -0.0479 -0.6995  0.3072
 5084TIP3    H136667   0.251   3.889  13.365 -0.1292 -0.6010  0.2635
 5084TIP3    H236668   0.316   3.883  13.229 -0.7661  0.1721 -0.0828
 5085TIP3   OH236669   5.627   4.545  11.993  0.9079 -0.0599  0.3446
 5085TIP3    H136670   5.680   4.546  11.913 -0.7428  0.5212 -0.7709
 5085TIP3    H236671   5.586   4.459  11.994 -0.8838  0.7430 -0.6951
 5086TIP3   OH236672   4.492   3.242   3.785 -0.2813  0.1314  0.4659
 5086TIP3    H136673   4.499   3.149   3.761 -0.5981 -0.3449  2.1975
 5086TIP3    H236674   4.582   3.268   3.808 -0.6870 -0.5949  3.0028
 5087TIP3   OH236675   1.594   2.922   5.517 -0.4601 -0.1384 -0.1453
 5087TIP3    H136676   1.667   2.863   5.501 -0.1429 -0.5982  2.8220
 5087TIP3    H236677   1.634   3.004   5.545 -1.0230  0.2689 -0.5108
 5088TIP3   OH236678   2.192   2.922   4.876 -0.8319  0.2113 -0.1071
 5088TIP3    H136679   2.207   2.845   4.931  0.8062  1.0894  0.7103
 5088TIP3    H236680   2.169   2.886   4.790  1.9789 -1.2437 -0.3293
 5089TIP3   OH236681   5.281   2.520   3.062  0.0786 -0.4967  0.0328
 5089TIP3    H136682   5.282   2.533   3.157 -1.3295  1.8775 -0.2220
 5089TIP3    H236683   5.220   2.449   3.048  1.5647 -2.0046  0.9904
 5090TIP3   OH236684   6.357   2.463   2.326  0.3197 -0.9652  0.2673
 5090TIP3    H136685   6.410   2.388   2.300 -0.5957 -1.9114  1.0840
 5090TIP3    H236686   6.286   2.425   2.378 -0.1712  0.4619  0.6530
 5091TIP3   OH236687   5.026   4.563   4.160 -0.8358 -0.7763  0.1800
 5091TIP3    H136688   4.971   4.606   4.094 -1.0717  0.9684  1.4572
 5091TIP3    H236689   5.075   4.635   4.200 -1.4410 -1.6486  2.5772
 5092TIP3   OH236690   0.224   5.383  14.218 -0.1544 -0.0742 -0.5370
 5092TIP3    H136691   0.280   5.415  14.147  0.0991 -0.2332 -0.4115
 5092TIP3    H236692   0.259   5.425  14.297 -0.8198  0.5827 -0.5903
 5093TIP3   OH236693   1.051   2.202   0.987  0.4208  0.5260  0.1219
 5093TIP3    H136694   0.980   2.139   0.998 -0.4324  1.4710  0.1435
 5093TIP3    H236695   1.131   2.149   0.981 -0.1091 -0.4686  1.6746
 5094TIP3   OH236696   1.425   5.467   2.727 -0.0049  0.0927 -0.0273
 5094TIP3    H136697   1.367   5.528   2.681 -0.3045 -0.1768 -0.0141
 5094TIP3    H236698   1.394   5.468   2.817 -0.4713 -0.6077 -0.1722
 5095TIP3   OH236699   1.258   6.151   1.177 -0.2165  0.3955  0.6105
 5095TIP3    H136700   1.216   6.084   1.123  0.3028  0.0155  0.6810
 5095TIP3    H236701   1.261   6.228   1.120 -0.0623  0.1231  0.2455
 5096TIP3   OH236702   5.573   4.465   1.517 -0.2288  0.0671 -0.0419
 5096TIP3    H136703   5.480   4.484   1.531 -0.5285  0.2758 -2.1125
 5096TIP3    H236704   5.619   4.525   1.575 -1.4021 -1.4316  2.5117
 5097TIP3   OH236705   2.398   1.825   0.795 -0.4772  0.2323  0.0769
 5097TIP3    H136706   2.369   1.878   0.869  2.3875 -1.1489  2.2919
 5097TIP3    H236707   2.355   1.740   0.807  2.1064 -0.9038  1.8087
 5098TIP3   OH236708   6.238   1.733   5.041  0.3491  0.6366 -0.1329
 5098TIP3    H136709   6.152   1.750   5.002  0.0341  0.1309  0.3126
 5098TIP3    H236710   6.282   1.676   4.978 -0.4964 -0.9061  0.6117
 5099TIP3   OH236711   2.798   3.220  13.151 -0.5462  0.7427 -0.0773
 5099TIP3    H136712   2.877   3.260  13.113 -0.6839 -0.5881 -1.7701
 5099TIP3    H236713   2.727   3.246  13.093 -0.8887 -0.5816 -0.2685
 5100TIP3   OH236714   5.630   3.122  16.435 -0.1830 -0.3857  0.2888
 5100TIP3    H136715   5.572   3.060  16.480  0.4541 -1.2308 -0.0254
 5100TIP3    H236716   5.683   3.066  16.378  0.3559  0.4725 -0.0467
 5101TIP3   OH236717   1.918   3.436   1.055  0.2074  0.0441 -0.4984
 5101TIP3    H136718   1.940   3.413   0.965 -1.6769  0.5894 -1.1164
 5101TIP3    H236719   1.833   3.396   1.070 -0.0597  1.0083  0.6152
 5102TIP3   OH236720   4.346   6.066  13.348 -0.0646  0.1134  0.0589
 5102TIP3    H136721   4.344   6.161  13.338 -0.5698  0.1357  0.3265
 5102TIP3    H236722   4.289   6.033  13.278 -1.4558  0.1212  1.1771
 5103TIP3   OH236723   5.268   6.100   5.287  0.0095 -0.0551 -0.7760
 5103TIP3    H136724   5.208   6.043   5.238  0.6875 -0.7531 -0.7935
 5103TIP3    H236725   5.212   6.172   5.318 -1.0804 -1.3016  0.1965
 5104TIP3   OH236726   3.591   5.359  10.196 -0.2128 -0.2790 -0.2646
 5104TIP3    H136727   3.567   5.283  10.248 -1.0955  0.4294  0.3970
 5104TIP3    H236728   3.514   5.416  10.200  1.4118  1.9128  1.5907
 5105TIP3   OH236729   5.079   1.798  16.772  0.2877  0.1426  0.6195
 5105TIP3    H136730   5.060   1.858  16.845 -1.5510 -0.5659  0.7445
 5105TIP3    H236731   5.123   1.724  16.814  1.4749  0.8389  0.6337
 5106TIP3   OH236732   2.012   6.753   2.472  0.2735  0.3277  0.1056
 5106TIP3    H136733   2.098   6.764   2.513 -1.0741 -0.4238  3.3686
 5106TIP3    H236734   1.978   6.842   2.463  0.6893  0.5279  0.4808
 5107TIP3   OH236735   6.679   5.733  12.849  0.9724 -0.0524 -0.5107
 5107TIP3    H136736   6.679   5.651  12.897 -0.9188  0.9796  1.3302
 5107TIP3    H236737   6.640   5.797  12.909  2.6017  2.2559 -1.8073
 5108TIP3   OH236738   0.300   1.487  11.408 -0.0077  0.1656  0.1728
 5108TIP3    H136739   0.222   1.474  11.463  0.8419  0.3573  1.4251
 5108TIP3    H236740   0.295   1.579  11.381 -0.6676 -0.0473 -0.4740
 5109TIP3   OH236741   3.567   5.089   6.498 -0.0776 -0.6108  0.3908
 5109TIP3    H136742   3.657   5.061   6.481  0.6386 -0.1214  3.0498
 5109TIP3    H236743   3.576   5.179   6.530 -1.5958 -0.2493 -0.1502
 5110TIP3   OH236744   3.513   3.287  13.127 -0.0717 -0.6275 -0.3555
 5110TIP3    H136745   3.532   3.377  13.103  1.5277 -1.0058 -0.6095
 5110TIP3    H236746   3.558   3.275  13.211 -1.0014 -0.9275  0.1017
 5111TIP3   OH236747   1.339   6.478   4.515  0.3415  0.0200 -0.1956
 5111TIP3    H136748   1.352   6.511   4.604 -1.9971 -1.5869  0.8017
 5111TIP3    H236749   1.247   6.497   4.495  0.4737 -0.8279 -1.7511
 5112TIP3   OH236750   2.685   1.346  14.033  0.6259  0.4898 -0.5007
 5112TIP3    H136751   2.627   1.361  13.958  1.5843 -3.5540 -2.2109
 5112TIP3    H236752   2.772   1.341  13.995  1.4998  1.4253  1.3523
 5113TIP3   OH236753   3.016   0.918  11.359 -0.0390 -0.1302 -0.4935
 5113TIP3    H136754   3.087   0.967  11.400 -0.8626  0.2463  0.5204
 5113TIP3    H236755   2.990   0.971  11.284  0.3900 -0.0039 -0.5545
 5114TIP3   OH236756   2.316   3.830  16.408 -0.2714 -0.1080  0.4725
 5114TIP3    H136757   2.291   3.903  16.465  0.1557 -1.7589  2.8497
 5114TIP3    H236758   2.360   3.871  16.334  0.3817  2.0244  2.0058
 5115TIP3   OH236759   4.471   1.783   2.230 -0.0742  0.2042  0.1485
 5115TIP3    H136760   4.414   1.771   2.307 -0.1891 -0.5397 -0.0433
 5115TIP3    H236761   4.558   1.757   2.261  0.1723  1.3364  0.4397
 5116TIP3   OH236762   5.729   4.562   0.576  0.2227 -0.0495 -0.3481
 5116TIP3    H136763   5.665   4.550   0.646  0.5509 -0.7741 -0.1701
 5116TIP3    H236764   5.677   4.557   0.496 -0.1633  0.8526 -0.1543
 5117TIP3   OH236765   5.203   4.127   2.529  0.2067  0.3529 -0.0245
 5117TIP3    H136766   5.214   4.045   2.480  0.0696  0.6619 -0.5729
 5117TIP3    H236767   5.117   4.159   2.502  0.3189  0.7485  0.0853
 5118TIP3   OH236768   3.119   4.166  15.651 -1.0573 -0.0243 -0.3625
 5118TIP3    H136769   3.085   4.165  15.741 -0.3855 -2.6217 -0.0917
 5118TIP3    H236770   3.214   4.164  15.662 -0.9789 -0.4919 -1.1192
 5119TIP3   OH236771   2.566   4.710  12.027  0.0346  0.0493 -0.0911
 5119TIP3    H136772   2.494   4.773  12.027  0.4751  0.5583 -0.2219
 5119TIP3    H236773   2.529   4.631  11.990 -0.6857  0.0430  0.6276
 5120TIP3   OH236774   6.199   2.905   6.410 -0.9297 -0.1311 -0.0280
 5120TIP3    H136775   6.164   2.821   6.441  0.4193  0.2584  2.7144
 5120TIP3    H236776   6.124   2.963   6.409 -1.6171 -1.0167 -0.5914
 5121TIP3   OH236777   2.668   3.200  12.666  0.2903  0.4573 -0.2571
 5121TIP3    H136778   2.587   3.160  12.635  0.2181  0.9726 -0.7365
 5121TIP3    H236779   2.716   3.128  12.708  0.0480 -0.0756 -0.8843
 5122TIP3   OH236780   2.307   6.003   0.863 -0.4068  0.0784 -0.0007
 5122TIP3    H136781   2.392   6.046   0.860 -1.4023  2.4118  2.2270
 5122TIP3    H236782   2.327   5.910   0.865  2.1045  0.5901  0.8492
 5123TIP3   OH236783   4.619   1.463   2.336 -0.1547  0.1275  0.2227
 5123TIP3    H136784   4.667   1.538   2.373 -0.1095  0.3719 -0.3246
 5123TIP3    H236785   4.680   1.390   2.344  0.4424  0.4999 -0.7378
 5124TIP3   OH236786   3.860   3.420  14.292  0.1794  0.2491  0.4411
 5124TIP3    H136787   3.806   3.497  14.312  1.0187  0.9575  0.0019
 5124TIP3    H236788   3.919   3.450  14.224  2.5433  0.0802  2.3568
 5125TIP3   OH236789   3.697   1.026  15.542  0.1519  0.1318  0.1028
 5125TIP3    H136790   3.784   1.059  15.565  1.6225 -2.4264 -1.5314
 5125TIP3    H236791   3.696   1.026  15.446 -1.4356 -0.4349  0.0981
 5126TIP3   OH236792   4.089   3.269  15.122  0.3390  0.1450  0.2469
 5126TIP3    H136793   4.073   3.175  15.121  1.1831  0.0030 -0.5486
 5126TIP3    H236794   4.002   3.308  15.120 -0.0162 -0.6156  0.6643
 5127TIP3   OH236795   6.780   2.725  14.785  0.1842  0.0484  0.6024
 5127TIP3    H136796   6.850   2.680  14.737  0.4391 -0.1477  1.1601
 5127TIP3    H236797   6.751   2.662  14.851  0.5019  0.6770  1.3457
 5128TIP3   OH236798   0.655   0.251   0.806  0.3587  0.0471  0.5197
 5128TIP3    H136799   0.624   0.321   0.863 -1.0484 -0.3756  0.3119
 5128TIP3    H236800   0.632   0.280   0.718  0.7145 -0.1969  0.3463
 5129TIP3   OH236801   6.291   0.517   3.754 -0.5251 -0.2154  0.3716
 5129TIP3    H136802   6.255   0.439   3.797  0.2024  0.0947  1.5432
 5129TIP3    H236803   6.379   0.526   3.791 -0.7798  1.4368  0.5896
 5130TIP3   OH236804   4.274   0.430   3.492  0.2917 -0.4302  0.6905
 5130TIP3    H136805   4.303   0.403   3.405 -1.5401  0.8343 -0.3381
 5130TIP3    H236806   4.322   0.511   3.510  0.6633 -0.6864  0.8629
 5131TIP3   OH236807   0.989   2.810  14.399 -0.6710  0.0569 -0.3023
 5131TIP3    H136808   1.032   2.756  14.466 -2.2504 -0.1369  0.5624
 5131TIP3    H236809   0.915   2.850  14.444 -0.5336  1.5802 -1.4072
 5132TIP3   OH236810   3.017   2.173   6.498  0.2394  0.5972  0.9024
 5132TIP3    H136811   3.111   2.176   6.479  0.1046 -1.2881 -0.1955
 5132TIP3    H236812   3.007   2.101   6.560 -0.5660  0.2373  0.3682
 5133TIP3   OH236813   5.369   6.391  16.596 -0.6516  0.4055  0.2365
 5133TIP3    H136814   5.405   6.321  16.541  0.2972  0.3150  0.9710
 5133TIP3    H236815   5.351   6.349  16.680 -1.3348  0.7391  0.2620
 5134TIP3   OH236816   3.636   1.696  13.637  0.3224 -0.0392 -0.1662
 5134TIP3    H136817   3.634   1.630  13.706  0.9484  1.5335  1.3926
 5134TIP3    H236818   3.725   1.692  13.603  0.3165 -0.1084 -0.1733
 5135TIP3   OH236819   0.383   6.095   1.700 -0.3168 -0.0763  0.3195
 5135TIP3    H136820   0.349   6.128   1.784 -2.6804 -2.5520  0.3790
 5135TIP3    H236821   0.455   6.038   1.724 -0.1200  0.2761  0.5738
 5136TIP3   OH236822   5.698   5.678  16.228  0.3530  0.0274  0.4333
 5136TIP3    H136823   5.699   5.702  16.136 -0.6629  2.4756  1.0024
 5136TIP3    H236824   5.751   5.746  16.271  0.8578 -1.1010  1.6553
 5137TIP3   OH236825   3.209   1.095  13.647 -0.0383 -0.1570 -0.4704
 5137TIP3    H136826   3.258   1.040  13.708 -0.7481 -0.1430  0.1225
 5137TIP3    H236827   3.155   1.034  13.597 -0.1561 -0.0796 -0.4372
 5138TIP3   OH236828   4.190   5.242  13.218  0.0729 -0.2516  0.1969
 5138TIP3    H136829   4.153   5.229  13.306 -0.4175 -1.8543 -0.2377
 5138TIP3    H236830   4.116   5.270  13.165 -0.0058 -1.0294 -0.1075
 5139TIP3   OH236831   6.213   6.188   3.555 -0.8629 -0.5588  0.0449
 5139TIP3    H136832   6.265   6.108   3.550 -1.6023 -1.0140 -0.5331
 5139TIP3    H236833   6.140   6.166   3.613  0.3102  0.5004  1.9797
 5140TIP3   OH236834   4.588   0.032  11.619 -0.0743 -0.0058 -0.2826
 5140TIP3    H136835   4.516   0.083  11.582 -0.9330 -0.4865  0.7197
 5140TIP3    H236836   4.562   0.016  11.709  0.8832 -0.9569 -0.1712
 5141TIP3   OH236837   6.519   0.319  13.630  0.2564 -0.2101  0.0788
 5141TIP3    H136838   6.589   0.384  13.626  0.9233 -0.6215  3.5226
 5141TIP3    H236839   6.441   0.369  13.657  0.0007 -0.2907 -0.5097
 5142TIP3   OH236840   5.503   5.178  14.215 -0.5310 -0.5519  0.5041
 5142TIP3    H136841   5.448   5.221  14.149 -1.4877 -0.7656  1.1550
 5142TIP3    H236842   5.578   5.145  14.165 -0.3563  0.8408 -0.1933
 5143TIP3   OH236843   3.524   4.107  14.776 -0.2768 -0.6685 -0.6017
 5143TIP3    H136844   3.487   4.166  14.711 -0.0962  1.5460  1.2613
 5143TIP3    H236845   3.599   4.155  14.813  0.4201 -2.4065  0.3309
 5144TIP3   OH236846   0.973   5.939  16.055 -0.3486 -0.0017  0.7022
 5144TIP3    H136847   1.006   5.852  16.077 -0.8150 -0.2244  0.5206
 5144TIP3    H236848   1.045   5.980  16.008 -0.9919 -1.1683 -1.3605
 5145TIP3   OH236849   0.348   6.586  14.639 -0.2472 -0.3352  0.4528
 5145TIP3    H136850   0.367   6.679  14.646  0.0431 -0.3638  0.0371
 5145TIP3    H236851   0.430   6.542  14.660 -0.1877 -0.4827 -0.0804
 5146TIP3   OH236852   3.057   5.548   4.179 -0.1531 -0.0727  0.2200
 5146TIP3    H136853   3.116   5.624   4.175  0.0679 -0.2956 -0.6398
 5146TIP3    H236854   3.100   5.481   4.127 -0.6094 -0.6184  0.5460
 5147TIP3   OH236855   1.250   3.084  12.900  0.0043 -0.5953 -0.6512
 5147TIP3    H136856   1.277   3.134  12.977  1.9134  0.7417 -2.1473
 5147TIP3    H236857   1.322   3.023  12.884 -0.1157 -0.4662 -1.7213
 5148TIP3   OH236858   4.803   1.093  10.917  0.5775  0.3024  0.2815
 5148TIP3    H136859   4.775   1.110  10.827 -0.1074  0.4283  0.5181
 5148TIP3    H236860   4.788   0.999  10.930  3.6196 -0.3788 -0.7612
 5149TIP3   OH236861   3.174   5.858  16.304 -0.4422  0.3957  0.0159
 5149TIP3    H136862   3.150   5.950  16.293 -0.7700  0.3515  0.3680
 5149TIP3    H236863   3.137   5.815  16.227  1.3108  0.8608 -1.1104
 5150TIP3   OH236864   1.080   0.115  15.178 -0.1205 -0.6692 -0.1844
 5150TIP3    H136865   1.073   0.210  15.165  1.8433 -0.4705  0.1391
 5150TIP3    H236866   0.989   0.086  15.186 -0.7738  1.1010 -0.8327
 5151TIP3   OH236867   4.829   3.844  15.256 -0.1095 -0.3632  0.3961
 5151TIP3    H136868   4.741   3.830  15.291 -0.2518 -0.2240  0.1024
 5151TIP3    H236869   4.837   3.939  15.249  0.4064 -0.3387  1.2669
 5152TIP3   OH236870   1.611   3.763   3.648 -0.0771 -0.0349  0.4461
 5152TIP3    H136871   1.612   3.694   3.582  1.0907 -1.0154  1.4513
 5152TIP3    H236872   1.520   3.791   3.652  0.0648  0.9904 -2.5091
 5153TIP3   OH236873   1.136   4.505  10.858 -0.0529  0.4076 -0.0357
 5153TIP3    H136874   1.165   4.493  10.767  0.1587 -1.1380  0.2156
 5153TIP3    H236875   1.216   4.530  10.905  0.4606 -1.6801  0.2509
 5154TIP3   OH236876   0.661   6.743  15.948  0.3923  0.0342 -0.4714
 5154TIP3    H136877   0.716   6.682  15.899 -0.0440 -0.5735 -0.1951
 5154TIP3    H236878   0.593   6.689  15.988  0.1381  0.6631 -0.0397
 5155TIP3   OH236879   2.419   2.928   2.016 -0.8371 -0.4267  0.4021
 5155TIP3    H136880   2.406   2.892   1.928 -1.5606 -0.0530  0.3592
 5155TIP3    H236881   2.514   2.924   2.029 -0.6050  0.6955 -0.8979
 5156TIP3   OH236882   4.952   3.212  15.849  0.1623  0.5075  0.1098
 5156TIP3    H136883   4.898   3.244  15.921  2.4739  2.6076  1.0108
 5156TIP3    H236884   4.963   3.288  15.792  0.9211 -0.2859 -0.8238
 5157TIP3   OH236885   6.327   2.917  16.101 -0.0929 -0.1742 -0.3257
 5157TIP3    H136886   6.353   2.961  16.182 -0.3314  0.0684 -0.3787
 5157TIP3    H236887   6.330   2.986  16.035 -0.0778 -0.3302 -0.4869
 5158TIP3   OH236888   6.144   3.128   0.309 -0.5473 -0.3028 -0.5035
 5158TIP3    H136889   6.166   3.190   0.378 -0.6072  0.9976 -1.6295
 5158TIP3    H236890   6.229   3.097   0.277 -0.5371 -1.7141  0.8567
 5159TIP3   OH236891   1.823   6.386  13.769 -0.0018  0.5357 -0.3623
 5159TIP3    H136892   1.858   6.300  13.746  0.0814  0.1093  1.3292
 5159TIP3    H236893   1.889   6.425  13.826 -1.6852  0.1895  1.9056
 5160TIP3   OH236894   4.776   3.791   4.004  0.1090  0.0093 -0.0705
 5160TIP3    H136895   4.863   3.776   4.040  0.0332 -0.6205 -0.1391
 5160TIP3    H236896   4.723   3.818   4.079  0.4998  0.9822 -0.1384
 5161TIP3   OH236897   5.508   4.852   3.932 -0.1927  0.1686  0.3999
 5161TIP3    H136898   5.543   4.786   3.992 -0.3612  0.6019  0.9767
 5161TIP3    H236899   5.421   4.818   3.907  0.1429 -0.3296 -0.1171
 5162TIP3   OH236900   2.096   2.035  13.880  0.8762 -0.1283  0.5267
 5162TIP3    H136901   2.124   1.945  13.896  1.1905 -0.3830 -1.3728
 5162TIP3    H236902   2.172   2.078  13.842 -0.3377 -0.0216 -1.8674
 5163TIP3   OH236903   0.712   1.077   3.748  0.1748 -0.0205 -0.0480
 5163TIP3    H136904   0.623   1.075   3.715  0.0097 -0.8714  0.4182
 5163TIP3    H236905   0.751   0.994   3.718  0.7171  0.2214 -0.0253
 5164TIP3   OH236906   2.213   3.978  15.371  0.1690  0.2146  0.5971
 5164TIP3    H136907   2.225   4.005  15.462  2.5867  0.1896  0.3237
 5164TIP3    H236908   2.302   3.969  15.336 -0.7018  0.3779 -1.8202
 5165TIP3   OH236909   4.925   0.003  15.013  0.1141  0.4699 -0.3981
 5165TIP3    H136910   4.943  -0.035  14.927 -0.4936 -0.0875 -0.2858
 5165TIP3    H236911   4.940   0.096  15.002  1.3929  0.2297 -0.7475
 5166TIP3   OH236912   4.213   4.751   1.910  1.0852  0.5508  0.2264
 5166TIP3    H136913   4.157   4.686   1.952 -0.5871  0.1649 -2.4649
 5166TIP3    H236914   4.189   4.834   1.952 -1.6348  0.4106 -0.9396
 5167TIP3   OH236915   4.795   2.570   3.491  0.7781 -1.2165 -0.1182
 5167TIP3    H136916   4.735   2.521   3.547  1.0843 -1.6465 -0.1669
 5167TIP3    H236917   4.798   2.657   3.530 -0.0526 -1.1282 -0.2465
 5168TIP3   OH236918   2.112   2.105  11.791  0.6049  0.6001  0.0457
 5168TIP3    H136919   2.164   2.156  11.854  1.2436  1.1170 -0.8970
 5168TIP3    H236920   2.122   2.152  11.708 -0.6852  0.2264 -0.3334
 5169TIP3   OH236921   2.042   3.569  11.307  0.3719 -0.1682 -0.6174
 5169TIP3    H136922   1.970   3.631  11.320  0.7624  0.5318 -1.6936
 5169TIP3    H236923   2.028   3.534  11.219  0.2281 -1.5135 -0.0581
 5170TIP3   OH236924   6.627   4.208   1.552 -0.0828  0.2096  0.3224
 5170TIP3    H136925   6.536   4.229   1.531 -0.1066  2.0437  2.0631
 5170TIP3    H236926   6.629   4.113   1.559 -1.8583  0.1571  0.2446
 5171TIP3   OH236927   5.135   5.943   3.905 -0.5409 -0.0773  0.5779
 5171TIP3    H136928   5.091   5.929   3.988 -0.3252  0.0896  0.7211
 5171TIP3    H236929   5.188   6.022   3.918 -2.0408  1.1109 -0.3376
 5172TIP3   OH236930   5.700   4.883  12.158  0.5596 -0.0876 -0.5544
 5172TIP3    H136931   5.619   4.873  12.107  1.7607  0.7060 -2.6821
 5172TIP3    H236932   5.701   4.807  12.217 -1.8244  0.0130 -0.3403
 5173TIP3   OH236933   6.358   6.036  11.265 -0.3411  0.2461  0.4520
 5173TIP3    H136934   6.360   6.017  11.359  0.0851  1.6011  0.7413
 5173TIP3    H236935   6.307   6.117  11.259 -1.7244 -0.7059 -0.6561
 5174TIP3   OH236936   5.478   1.463  13.575  0.3953  0.1424  0.2614
 5174TIP3    H136937   5.471   1.382  13.525  1.8081  0.4948 -0.5328
 5174TIP3    H236938   5.493   1.435  13.665  0.5457 -0.4859  0.0444
 5175TIP3   OH236939   3.409   5.638   2.832 -0.3238  0.3090  0.6592
 5175TIP3    H136940   3.456   5.568   2.878  1.6461 -0.3074 -2.1978
 5175TIP3    H236941   3.461   5.717   2.849  1.5410 -0.2638 -1.9852
 5176TIP3   OH236942   3.768   4.525  11.252  0.4622 -0.3218  0.6741
 5176TIP3    H136943   3.808   4.595  11.200 -0.5172 -0.2158  0.0489
 5176TIP3    H236944   3.686   4.562  11.284 -0.3578 -1.3762 -0.1663
 5177TIP3   OH236945   2.523   2.218  14.905  0.0120  0.4328 -0.3084
 5177TIP3    H136946   2.463   2.189  14.974 -0.9345  0.2233 -1.2022
 5177TIP3    H236947   2.474   2.203  14.824  1.7990 -1.0206 -1.1381
 5178TIP3   OH236948   0.166   6.039   6.037  0.3877  0.0437 -0.5614
 5178TIP3    H136949   0.072   6.036   6.057  0.5094  0.2473  0.0688
 5178TIP3    H236950   0.171   6.027   5.942 -0.4654  2.7617 -0.9959
 5179TIP3   OH236951   5.671   3.776   2.470 -0.0804 -0.6779  0.0086
 5179TIP3    H136952   5.637   3.687   2.479 -1.1429 -0.2177  0.6946
 5179TIP3    H236953   5.619   3.828   2.532  1.1215  0.2609  0.2571
 5180TIP3   OH236954   5.633   4.093   1.504 -0.9760 -0.1513 -0.3782
 5180TIP3    H136955   5.623   4.110   1.410  0.5950 -0.8103 -0.6721
 5180TIP3    H236956   5.719   4.051   1.512 -0.4917  1.1561  1.5099
 5181TIP3   OH236957   0.757   0.803  11.368  0.1946  0.0502  0.7150
 5181TIP3    H136958   0.806   0.810  11.450  0.5481  0.1164  0.4996
 5181TIP3    H236959   0.822   0.773  11.304 -0.1332 -0.2159  0.5102
 5182TIP3   OH236960   0.614   0.587  11.288 -0.0687 -0.5014 -0.3971
 5182TIP3    H136961   0.678   0.579  11.217  1.2480  0.9375  0.5855
 5182TIP3    H236962   0.639   0.668  11.333 -1.0745 -1.2210  1.5061
 5183TIP3   OH236963   2.661   3.405   4.138 -0.4055 -0.4596  0.4789
 5183TIP3    H136964   2.736   3.375   4.190  0.2549  1.3381  0.5849
 5183TIP3    H236965   2.695   3.478   4.086 -1.3209 -1.5751 -1.7482
 5184TIP3   OH236966   2.383   6.411  15.449  0.2214  0.2097 -0.2566
 5184TIP3    H136967   2.352   6.361  15.374  0.1589 -3.0378  1.8470
 5184TIP3    H236968   2.306   6.458  15.480 -0.3149 -0.3168 -0.7819
 5185TIP3   OH236969   0.253   2.831  14.566  0.2800  0.3209 -0.0685
 5185TIP3    H136970   0.289   2.880  14.493  1.3949 -1.6692 -0.9047
 5185TIP3    H236971   0.199   2.894  14.614  2.7131  2.7084 -0.3236
 5186TIP3   OH236972   2.007   5.083  14.794 -0.4221 -0.0973 -0.2994
 5186TIP3    H136973   1.921   5.118  14.768 -0.8974 -0.0385  1.3198
 5186TIP3    H236974   1.991   4.991  14.813 -0.5947  0.4060  2.1226
 5187TIP3   OH236975   0.180   6.392   1.103  0.2575  0.1610  0.6342
 5187TIP3    H136976   0.121   6.387   1.178  0.2547  0.3702  0.6466
 5187TIP3    H236977   0.265   6.364   1.137  0.0940 -0.4575  0.5376
 5188TIP3   OH236978   6.150   2.239  17.171  0.1015  0.3588 -0.3729
 5188TIP3    H136979   6.115   2.150  17.179 -1.9780  1.1975  0.1079
 5188TIP3    H236980   6.216   2.245  17.241  0.0766 -0.7102 -0.2442
 5189TIP3   OH236981   6.114   0.020  13.891 -0.0675  0.0294 -0.5281
 5189TIP3    H136982   6.200   0.045  13.857 -0.4685  0.4485 -1.2161
 5189TIP3    H236983   6.052   0.043  13.822 -0.5440 -2.0489 -0.8369
 5190TIP3   OH236984   4.214   0.654   0.781 -0.0839  0.1858  0.0312
 5190TIP3    H136985   4.283   0.693   0.835  0.4512 -1.1657  0.3592
 5190TIP3    H236986   4.245   0.665   0.691  2.5152 -3.8100  0.2971
 5191TIP3   OH236987   2.477   5.895  15.786 -0.7315 -0.5660 -0.7980
 5191TIP3    H136988   2.549   5.841  15.818 -0.8650 -0.9892 -1.1942
 5191TIP3    H236989   2.499   5.912  15.694 -0.8835 -0.2687 -0.7813
 5192TIP3   OH236990   0.677   5.906  16.970  0.1099 -0.6303 -0.3721
 5192TIP3    H136991   0.680   5.985  17.023  1.2081 -0.0907 -1.2007
 5192TIP3    H236992   0.616   5.848  17.015 -0.4429  0.5583  0.4207
 5193TIP3   OH236993   5.465   6.705  17.238 -0.4253  0.1763 -0.1986
 5193TIP3    H136994   5.519   6.777  17.206 -1.7504  0.8665 -0.9085
 5193TIP3    H236995   5.394   6.698  17.174 -1.8397  0.0468  1.3408
 5194TIP3   OH236996   0.297   4.779   2.560 -0.0593  0.1783  0.2774
 5194TIP3    H136997   0.283   4.813   2.472 -0.4332  0.0322  0.2810
 5194TIP3    H236998   0.383   4.813   2.586  0.3755 -0.3684 -0.4270
 5195TIP3   OH236999   6.332   2.251  11.763  0.1168 -0.3894 -0.1041
 5195TIP3    H137000   6.256   2.193  11.753 -0.5578  0.3214  0.8214
 5195TIP3    H237001   6.406   2.191  11.774 -0.4713 -1.0833  0.1382
 5196TIP3   OH237002   2.590   4.491  16.943 -0.6221  0.0220  0.1238
 5196TIP3    H137003   2.498   4.492  16.919 -0.8290 -0.4190  0.8961
 5196TIP3    H237004   2.591   4.469  17.036  0.2259  0.6959  0.2880
 5197TIP3   OH237005   6.522   0.470   2.431 -0.1213  0.5372 -0.2802
 5197TIP3    H137006   6.539   0.391   2.379  0.7149 -0.2807  1.2168
 5197TIP3    H237007   6.565   0.540   2.383 -1.2571  0.1841 -1.8707
 5198TIP3   OH237008   5.074   5.441   0.560  0.1727  0.5213  0.1229
 5198TIP3    H137009   4.983   5.411   0.562  0.1895  0.4909  0.6612
 5198TIP3    H237010   5.101   5.433   0.469 -0.0639 -0.3754  0.1294
 5199TIP3   OH237011   3.908   0.526  14.936 -0.0981  0.3126 -0.6488
 5199TIP3    H137012   3.903   0.486  15.023 -0.6078  0.6100 -0.5388
 5199TIP3    H237013   3.837   0.485  14.887  0.1488  0.1923 -0.9103
 5200TIP3   OH237014   3.493   1.602  11.981 -0.0315 -0.2174  0.1293
 5200TIP3    H137015   3.430   1.564  11.920  0.6824 -0.9648 -0.1515
 5200TIP3    H237016   3.576   1.602  11.933  0.0857  1.2801  0.2879
 5201TIP3   OH237017   5.100   3.369  12.295 -0.1306  0.2803  0.1928
 5201TIP3    H137018   5.074   3.277  12.286 -0.3787 -0.0487  3.5667
 5201TIP3    H237019   5.064   3.412  12.217 -1.3029 -2.1883 -0.6809
 5202TIP3   OH237020   1.937   2.951  11.825  0.5209 -0.4470  0.1682
 5202TIP3    H137021   1.896   2.865  11.812  1.1368 -0.7666  0.3137
 5202TIP3    H237022   2.015   2.949  11.770  0.4539  0.0794  0.0557
 5203TIP3   OH237023   0.936   6.156  13.300  0.0855  0.0114  0.5634
 5203TIP3    H137024   0.847   6.185  13.283  1.2917  2.6889 -1.6536
 5203TIP3    H237025   0.952   6.088  13.234 -0.1774 -0.2207  0.7371
 5204TIP3   OH237026   6.215   6.356  14.750  0.0628  0.1203  0.3379
 5204TIP3    H137027   6.283   6.421  14.768  1.0121 -0.8107  0.1886
 5204TIP3    H237028   6.152   6.402  14.695  1.4031  0.5306 -0.8850
 5205TIP3   OH237029   1.822   4.396   0.276  0.1176 -0.0339 -0.6115
 5205TIP3    H137030   1.821   4.491   0.262 -0.4000 -0.2930 -2.4683
 5205TIP3    H237031   1.835   4.386   0.370 -0.2425  1.8898 -0.3317
 5206TIP3   OH237032   0.474   0.984   5.642 -0.0567 -0.1291 -0.5725
 5206TIP3    H137033   0.381   0.963   5.635 -0.2779 -0.2910  2.2614
 5206TIP3    H237034   0.516   0.901   5.663  0.4526  0.3409  0.2734
 5207TIP3   OH237035   4.218   1.642   1.166  0.5018  0.4540  0.0711
 5207TIP3    H137036   4.182   1.730   1.169  1.3600  0.8605 -1.2649
 5207TIP3    H237037   4.188   1.601   1.248 -0.9923  1.5413  0.0893
 5208TIP3   OH237038   4.730   1.801   3.688  0.5327  0.1846  1.0048
 5208TIP3    H137039   4.708   1.718   3.645 -0.1849  1.2154 -0.6653
 5208TIP3    H237040   4.714   1.785   3.781  1.1873 -1.7961  0.8095
 5209TIP3   OH237041   0.223   0.186   5.392 -0.2199  0.2594  0.6509
 5209TIP3    H137042   0.278   0.170   5.468 -0.3045  0.0345  0.6662
 5209TIP3    H237043   0.238   0.278   5.369  1.8009 -0.3527 -0.6472
 5210TIP3   OH237044   0.605   2.338   3.764 -0.3771 -0.0976 -0.1777
 5210TIP3    H137045   0.589   2.365   3.673  0.5939 -0.3232 -0.4298
 5210TIP3    H237046   0.587   2.416   3.816 -1.5889 -0.1590 -0.5003
 5211TIP3   OH237047   1.875   2.477   4.431  0.1307  0.3470 -0.9160
 5211TIP3    H137048   1.839   2.514   4.512  1.4906  2.2252 -1.1558
 5211TIP3    H237049   1.920   2.397   4.460 -1.6655 -0.4686 -0.2241
 5212TIP3   OH237050   4.752   1.170  15.541  0.4759 -0.2319 -0.1162
 5212TIP3    H137051   4.844   1.142  15.543  0.8113  0.6243 -2.4439
 5212TIP3    H237052   4.753   1.259  15.576  0.7435  0.3087 -1.4917
 5213TIP3   OH237053   4.351   5.955  12.434 -0.2702 -0.8971 -0.0055
 5213TIP3    H137054   4.332   5.948  12.528 -3.5209  2.0149 -0.3674
 5213TIP3    H237055   4.411   6.029  12.427 -2.5530  0.9519 -0.4724
 5214TIP3   OH237056   4.607   3.221   0.573 -0.1392  0.5024 -0.0125
 5214TIP3    H137057   4.598   3.146   0.632  0.9968 -0.1824 -0.7211
 5214TIP3    H237058   4.543   3.285   0.607 -2.6859 -1.5911 -0.7159
 5215TIP3   OH237059   3.329   2.896   1.700  0.4790 -0.3014  0.1925
 5215TIP3    H137060   3.321   2.825   1.763  1.8509 -1.0633 -0.4453
 5215TIP3    H237061   3.423   2.898   1.678  0.4027  1.4630 -0.0792
 5216TIP3   OH237062   2.802   1.635  17.207 -0.5333  0.3466  0.0215
 5216TIP3    H137063   2.744   1.584  17.150 -1.0500  1.7400 -0.7433
 5216TIP3    H237064   2.753   1.716  17.223 -0.6653 -0.2732  2.9826
 5217TIP3   OH237065   1.276   3.610   1.125  0.3043 -0.3660  0.0122
 5217TIP3    H137066   1.210   3.662   1.080 -1.3833  1.4634  4.2509
 5217TIP3    H237067   1.255   3.519   1.103 -0.5720  0.4428 -2.5821
 5218TIP3   OH237068   2.365   5.920   2.826 -0.3518  0.4148  0.3219
 5218TIP3    H137069   2.410   5.835   2.821 -0.0036  0.5986  0.3340
 5218TIP3    H237070   2.327   5.932   2.739 -1.8107 -0.5303  0.8121
 5219TIP3   OH237071   0.723   2.706  14.843 -0.5187 -0.2658  0.0014
 5219TIP3    H137072   0.734   2.678  14.752  1.0053  2.1407 -0.5928
 5219TIP3    H237073   0.797   2.667  14.889 -0.3021 -0.0273 -0.1443
 5220TIP3   OH237074   0.543   5.751  12.954  0.3065  0.0763  0.6953
 5220TIP3    H137075   0.528   5.720  13.044 -0.3940 -0.7322  0.3166
 5220TIP3    H237076   0.619   5.809  12.961 -1.2829  2.0464  2.2382
 5221TIP3   OH237077   3.161   3.237   0.556  0.0577  0.1845  0.3843
 5221TIP3    H137078   3.130   3.210   0.642  0.0880  0.7426  0.5752
 5221TIP3    H237079   3.248   3.199   0.548  1.7436  3.4355  2.2815
 5222TIP3   OH237080   0.066   4.186  12.986 -0.3343 -0.1621 -0.2830
 5222TIP3    H137081   0.093   4.247  13.055 -2.6867  0.8620 -0.2171
 5222TIP3    H237082   0.145   4.171  12.934  0.6652  1.6728  0.6741
 5223TIP3   OH237083   3.494   0.294  15.667 -1.5224 -0.7558  0.4340
 5223TIP3    H137084   3.424   0.255  15.720 -0.4228 -2.5018  0.6348
 5223TIP3    H237085   3.566   0.231  15.673 -0.6968 -0.0203 -1.5533
 5224TIP3   OH237086   5.893   1.098   4.338 -0.0742  0.0910  0.0248
 5224TIP3    H137087   5.812   1.047   4.333 -0.1849  0.2923 -0.2869
 5224TIP3    H237088   5.963   1.035   4.323 -0.1953 -0.0215 -0.0673
 5225TIP3   OH237089   0.273   1.006  12.482 -0.1795  0.3570  0.3192
 5225TIP3    H137090   0.248   0.975  12.395  2.2182 -0.0841 -0.2540
 5225TIP3    H237091   0.219   0.954  12.543 -2.5417  1.3287 -0.9019
 5226TIP3   OH237092   0.320   6.066   1.144  0.0331  0.3076 -0.2313
 5226TIP3    H137093   0.262   6.055   1.220  0.2065 -1.9193 -0.3881
 5226TIP3    H237094   0.370   6.145   1.164  1.0563 -0.9985  2.6333
 5227TIP3   OH237095   3.594   4.168  13.124 -0.6217  0.3306  0.8541
 5227TIP3    H137096   3.607   4.263  13.112  0.5831  0.4021  2.6272
 5227TIP3    H237097   3.683   4.132  13.122 -1.0385 -0.6898  0.8541
 5228TIP3   OH237098   4.851   2.980   0.481  0.1088  0.3756 -0.2607
 5228TIP3    H137099   4.946   2.992   0.474 -0.0905  2.1642 -0.1321
 5228TIP3    H237100   4.814   3.058   0.441 -1.3119 -0.1022  0.0908
 5229TIP3   OH237101   5.647   0.998  14.704 -0.2594 -0.4078  0.2420
 5229TIP3    H137102   5.667   0.993  14.797  2.4590 -1.5672 -0.3625
 5229TIP3    H237103   5.578   0.932  14.690 -0.1217 -0.7783  1.2950
 5230TIP3   OH237104   0.801   6.587   1.657  0.0668  0.0616  0.4200
 5230TIP3    H137105   0.734   6.638   1.703  0.7656 -0.7798  2.4259
 5230TIP3    H237106   0.752   6.516   1.616 -0.3740 -0.0718  1.1641
 5231TIP3   OH237107   0.538   6.423   0.927 -0.0597 -0.0290  0.6319
 5231TIP3    H137108   0.562   6.516   0.922  0.7987 -0.1465  2.1456
 5231TIP3    H237109   0.469   6.412   0.862  0.0953  1.5852  0.1723
 5232TIP3   OH237110   2.926   6.654   3.135 -0.3529  0.2936  0.3280
 5232TIP3    H137111   2.964   6.579   3.180  0.1869  0.0799 -0.4780
 5232TIP3    H237112   2.876   6.700   3.203 -1.0054 -0.9994  0.7434
 5233TIP3   OH237113   6.777   5.641  16.325  0.1450 -0.1468  0.5218
 5233TIP3    H137114   6.813   5.572  16.380 -0.5765  2.1844  4.1474
 5233TIP3    H237115   6.694   5.606  16.293  1.6885 -2.4305 -1.0945
 5234TIP3   OH237116   6.457   4.163   2.573 -0.2527  0.1915  0.1762
 5234TIP3    H137117   6.516   4.097   2.536 -1.4728  0.4295 -2.3095
 5234TIP3    H237118   6.408   4.115   2.640  1.3244 -0.5114  0.8556
 5235TIP3   OH237119   4.227   6.192   2.898 -0.0071 -0.1224  0.0581
 5235TIP3    H137120   4.323   6.202   2.901  0.0501 -1.1364  2.4763
 5235TIP3    H237121   4.193   6.281   2.905  0.7437  0.2895 -1.2938
 5236TIP3   OH237122   3.736   2.784   1.341 -0.0072 -0.0117 -0.7018
 5236TIP3    H137123   3.800   2.795   1.270 -0.2808  1.8600 -0.6850
 5236TIP3    H237124   3.780   2.816   1.419  0.3711 -2.2850  0.0402
 5237TIP3   OH237125   3.944   3.226   3.258 -0.1911 -0.1633  0.2665
 5237TIP3    H137126   3.980   3.303   3.213 -2.2351 -1.2704 -3.4318
 5237TIP3    H237127   3.943   3.157   3.192 -1.7894 -2.3535  2.4803
 5238TIP3   OH237128   3.975   1.377   3.404 -0.1888  0.3937 -0.4597
 5238TIP3    H137129   3.934   1.337   3.328  1.0148  0.7313 -1.2974
 5238TIP3    H237130   3.983   1.305   3.467 -0.9699  0.0632 -0.7250
 5239TIP3   OH237131   6.371   3.647   6.004  0.1480  0.0782 -0.0641
 5239TIP3    H137132   6.396   3.692   5.923 -2.6328  1.1087 -0.3935
 5239TIP3    H237133   6.355   3.557   5.978  2.0334 -0.2844 -0.0900
 5240TIP3   OH237134   2.437   4.653   1.086 -0.5423 -0.0492  0.0538
 5240TIP3    H137135   2.458   4.629   0.996  0.5781 -0.0446  0.3021
 5240TIP3    H237136   2.447   4.571   1.136  0.6351  0.3345  0.4624
 5241TIP3   OH237137   0.323   5.048   3.026 -0.7000 -0.3041  0.6928
 5241TIP3    H137138   0.238   5.006   3.009 -0.8009  0.0632  0.2812
 5241TIP3    H237139   0.312   5.090   3.112 -1.0340 -0.0129  0.5096
 5242TIP3   OH237140   5.714   6.096   0.195  0.0989 -0.0960  0.0525
 5242TIP3    H137141   5.734   6.013   0.239  1.3256 -0.4238 -1.1103
 5242TIP3    H237142   5.762   6.091   0.112  0.5781  2.0003  0.2004
 5243TIP3   OH237143   3.624   1.579  11.246 -0.2967 -0.1677  0.4835
 5243TIP3    H137144   3.631   1.541  11.334  0.4823 -0.8555  0.1254
 5243TIP3    H237145   3.625   1.674  11.261  0.2643 -0.2829  1.1843
 5244TIP3   OH237146   0.772   2.662   5.685  0.5457 -0.1797  0.4554
 5244TIP3    H137147   0.716   2.730   5.647  1.2588  0.3549  0.3235
 5244TIP3    H237148   0.765   2.588   5.624  1.3653  0.5283 -0.5283
 5245TIP3   OH237149   6.368   5.329   2.564 -0.6159 -0.0503  0.1703
 5245TIP3    H137150   6.351   5.244   2.604  0.1772 -1.1146 -1.6726
 5245TIP3    H237151   6.445   5.362   2.610  0.5409 -1.4444 -0.7342
 5246TIP3   OH237152   2.212   3.994  16.595 -0.7442  0.0219 -0.1028
 5246TIP3    H137153   2.226   4.034  16.681  2.3819 -1.0137 -0.0696
 5246TIP3    H237154   2.183   3.905  16.614 -0.3281 -0.1189 -0.1370
 5247TIP3   OH237155   3.347   0.096   5.217 -0.1879  0.0077  0.3899
 5247TIP3    H137156   3.347   0.095   5.121  0.2617 -2.4356  0.3826
 5247TIP3    H237157   3.260   0.128   5.240  0.6834  3.4309 -0.7985
 5248TIP3   OH237158   6.109   3.543   0.633 -0.2289  0.0182 -0.0262
 5248TIP3    H137159   6.157   3.482   0.689 -1.2704  0.4455  1.3451
 5248TIP3    H237160   6.028   3.561   0.680 -1.3250  0.0601 -1.8716
 5249TIP3   OH237161   6.004   1.356   2.484  0.0876  0.7416 -0.0942
 5249TIP3    H137162   6.091   1.342   2.521  0.5215  3.0449 -0.2213
 5249TIP3    H237163   5.988   1.277   2.432  2.7156  0.9503 -1.3110
 5250TIP3   OH237164   2.158   5.534   4.697 -0.1111  0.2294 -0.3001
 5250TIP3    H137165   2.116   5.605   4.746 -0.9984 -1.8226  2.0494
 5250TIP3    H237166   2.215   5.578   4.634 -3.3326  3.0546 -1.3775
 5251TIP3   OH237167   0.955   0.187  16.728 -0.1046  0.1201  0.4321
 5251TIP3    H137168   0.899   0.256  16.692 -0.2241 -0.0966  0.2043
 5251TIP3    H237169   0.896   0.113  16.741  0.1887 -0.1987 -0.0720
 5252TIP3   OH237170   2.305   1.235   4.899 -0.5738 -0.2285 -0.4662
 5252TIP3    H137171   2.217   1.271   4.910  0.1110  1.5214 -0.5030
 5252TIP3    H237172   2.295   1.141   4.915 -2.1020  0.2284  1.4224
 5253TIP3   OH237173   2.841   1.936  11.858 -0.4380 -1.1159  0.5077
 5253TIP3    H137174   2.760   1.917  11.906  0.3776  0.7467  2.7450
 5253TIP3    H237175   2.834   2.029  11.836  1.4339 -0.7200  1.4834
 5254TIP3   OH237176   0.381   0.611   4.374 -1.1401 -0.0730 -0.4613
 5254TIP3    H137177   0.413   0.690   4.417 -1.1745  0.9694 -2.2790
 5254TIP3    H237178   0.436   0.541   4.408 -1.1128  0.7332  1.1813
 5255TIP3   OH237179   2.218   3.066  14.628 -0.4968  0.6195  0.1603
 5255TIP3    H137180   2.255   2.988  14.587 -0.4233  1.1275 -0.7637
 5255TIP3    H237181   2.252   3.065  14.717  2.0496  1.2391 -0.7535
 5256TIP3   OH237182   4.839   4.871  12.888  0.7053  0.5869 -0.0843
 5256TIP3    H137183   4.746   4.847  12.889  0.9540 -0.4616 -1.1629
 5256TIP3    H237184   4.878   4.816  12.956  1.1225 -1.4996 -1.9698
 5257TIP3   OH237185   2.309   0.827  11.960  0.4701 -0.1726  0.4659
 5257TIP3    H137186   2.218   0.798  11.963  0.4041  0.0759  0.9493
 5257TIP3    H237187   2.357   0.765  12.015  0.6651 -0.5481 -0.1187
 5258TIP3   OH237188   2.579   4.773  15.140 -0.2848 -0.0444 -0.0423
 5258TIP3    H137189   2.489   4.740  15.137 -0.1127 -0.6566  1.0766
 5258TIP3    H237190   2.633   4.696  15.123  0.0502  0.0986  0.3665
 5259TIP3   OH237191   2.746   6.740   6.331 -0.0003 -0.3385  0.3995
 5259TIP3    H137192   2.678   6.784   6.279 -0.9625 -0.4998  1.5060
 5259TIP3    H237193   2.829   6.771   6.294 -0.6479 -1.0027 -1.7249
 5260TIP3   OH237194   0.972   5.112  12.362  0.0548  0.0977  0.1401
 5260TIP3    H137195   0.990   5.018  12.358 -0.3467 -0.0099  0.7590
 5260TIP3    H237196   0.877   5.118  12.363  0.0839  0.4791  0.7474
 5261TIP3   OH237197   1.142   0.117   2.994 -0.1315  0.0329  0.6579
 5261TIP3    H137198   1.198   0.060   3.048  0.0928 -1.5117 -1.1386
 5261TIP3    H237199   1.082   0.056   2.950  1.2644  0.9631 -2.6818
 5262TIP3   OH237200   0.060   1.819  12.820  0.4904 -0.3283 -0.5307
 5262TIP3    H137201   0.145   1.781  12.842  1.7109  0.4963 -3.5676
 5262TIP3    H237202   0.028   1.856  12.902  2.5043 -1.6999  0.9196
 5263TIP3   OH237203   4.588   2.503   2.465  0.1345  0.0041 -0.2192
 5263TIP3    H137204   4.554   2.416   2.486  2.3640 -1.1774 -1.3010
 5263TIP3    H237205   4.596   2.504   2.370 -0.1489  1.5115 -0.2436
 5264TIP3   OH237206   5.240   6.525  14.765  0.1077  0.2224  0.4007
 5264TIP3    H137207   5.309   6.461  14.747 -0.2070  0.3221 -1.2932
 5264TIP3    H237208   5.285   6.610  14.762  0.0178  0.2542 -0.2122
 5265TIP3   OH237209   6.208   3.446   4.309  0.0432 -0.2041  0.4691
 5265TIP3    H137210   6.269   3.382   4.346  0.4505  0.7278  1.4383
 5265TIP3    H237211   6.262   3.503   4.255 -0.1506 -0.0242  0.4636
 5266TIP3   OH237212   4.654   3.699   2.404  0.0149  0.5634  0.1806
 5266TIP3    H137213   4.651   3.661   2.316 -0.2765  2.1013 -0.5073
 5266TIP3    H237214   4.742   3.679   2.437  0.2016  0.1705 -0.5548
 5267TIP3   OH237215   5.393   2.952   5.985 -0.4761  0.2758  0.2713
 5267TIP3    H137216   5.473   3.005   5.986 -1.7327  2.2313  2.7210
 5267TIP3    H237217   5.389   2.914   6.073 -2.7857  1.1195  0.5745
 5268TIP3   OH237218   5.763   6.181  13.781 -0.2907 -0.5944  0.0482
 5268TIP3    H137219   5.743   6.139  13.697  1.4255  0.5931 -1.0060
 5268TIP3    H237220   5.839   6.133  13.815 -1.5579 -1.6639  1.3809
 5269TIP3   OH237221   5.279   1.642  13.458  0.3346 -0.1549  0.2653
 5269TIP3    H137222   5.279   1.729  13.499 -0.0565 -0.1039  0.1608
 5269TIP3    H237223   5.363   1.604  13.482 -0.6753 -0.8921  2.7575
 5270TIP3   OH237224   5.263   3.539  16.242  0.3254 -0.2193 -0.2577
 5270TIP3    H137225   5.290   3.511  16.329  1.5630  0.7606 -0.3123
 5270TIP3    H237226   5.249   3.633  16.250 -0.2041 -0.2324 -0.9528
 5271TIP3   OH237227   0.758   3.445  13.128  0.1273  0.0882 -0.5979
 5271TIP3    H137228   0.852   3.431  13.125  0.1247  0.2278 -2.0662
 5271TIP3    H237229   0.724   3.389  13.058 -0.8243  0.3906 -0.3858
 5272TIP3   OH237230   3.421   6.162  14.311  0.2567 -0.8102  0.3142
 5272TIP3    H137231   3.447   6.247  14.347 -1.0937 -0.1331 -0.2908
 5272TIP3    H237232   3.500   6.130  14.267  0.1851  1.0669 -1.2277
 5273TIP3   OH237233   0.767   2.080   6.078 -0.0693  0.3550 -0.0769
 5273TIP3    H137234   0.737   1.996   6.043  0.3024 -0.2433  1.0155
 5273TIP3    H237235   0.691   2.138   6.069 -1.1089 -0.7454  1.3107
 5274TIP3   OH237236   6.222   3.990  15.912 -0.0243  0.4621  0.2710
 5274TIP3    H137237   6.273   3.999  15.992  0.5682  1.1105 -0.1705
 5274TIP3    H237238   6.287   3.981  15.842 -0.5176  0.7641 -0.2399
 5275TIP3   OH237239   6.381   5.933  16.215 -0.2736  0.1012  0.6024
 5275TIP3    H137240   6.340   6.013  16.249  1.2273  0.5756  1.3486
 5275TIP3    H237241   6.473   5.942  16.239  0.3451 -0.7484 -1.4004
 5276TIP3   OH237242   0.083   6.738  12.019 -0.0343  0.5317 -0.5994
 5276TIP3    H137243   0.098   6.829  12.045  0.9214 -0.0140  0.8338
 5276TIP3    H237244   0.149   6.688  12.068  1.3094 -0.6409 -3.4535
 5277TIP3   OH237245   3.312   3.883   2.717  0.0867 -0.4867 -0.1528
 5277TIP3    H137246   3.221   3.895   2.742  0.4693  2.1222  0.1437
 5277TIP3    H237247   3.352   3.838   2.792 -0.7261 -0.6986  0.1514
 5278TIP3   OH237248   6.313   4.138  17.187 -0.3518  0.7890  0.4988
 5278TIP3    H137249   6.319   4.232  17.169  0.5730  0.3507 -1.6094
 5278TIP3    H237250   6.402   4.113  17.211 -0.4492  0.3115  0.3587
 5279TIP3   OH237251   5.531   3.858   3.481  0.3169 -0.3154  0.0333
 5279TIP3    H137252   5.588   3.808   3.422  0.8617  1.0061 -0.5634
 5279TIP3    H237253   5.465   3.794   3.510  0.7002 -1.2536 -1.1218
 5280TIP3   OH237254   6.459   6.521   6.190  0.3260 -0.0542  0.1209
 5280TIP3    H137255   6.383   6.578   6.200  0.2516 -0.0542 -0.4184
 5280TIP3    H237256   6.534   6.582   6.186  0.4584 -0.0937  1.5501
 5281TIP3   OH237257   0.993   3.171  15.648  0.0795 -0.3273 -0.3146
 5281TIP3    H137258   0.969   3.232  15.718  0.4035 -1.5264  0.8627
 5281TIP3    H237259   0.914   3.164  15.594 -1.5887 -2.6167  2.3268
 5282TIP3   OH237260   6.112   3.508  14.769 -0.1215  0.8792  0.1662
 5282TIP3    H137261   6.166   3.580  14.736  0.3132  0.5258  0.1048
 5282TIP3    H237262   6.174   3.450  14.814 -0.5818  0.9218  0.8529
 5283TIP3   OH237263   6.285   1.037  14.911 -0.4155 -0.3713 -0.4260
 5283TIP3    H137264   6.282   0.941  14.915  1.6158 -0.4477  0.2052
 5283TIP3    H237265   6.377   1.058  14.929 -1.0174  1.7338  0.3203
 5284TIP3   OH237266   0.054   1.893   4.551  0.0007 -0.4267 -0.3044
 5284TIP3    H137267   0.034   1.801   4.538 -0.9502 -0.1564 -0.8454
 5284TIP3    H237268   0.113   1.895   4.626 -0.9008 -1.3827  0.4391
 5285TIP3   OH237269   0.920   0.865   3.799  0.1037 -0.0911  0.1777
 5285TIP3    H137270   0.977   0.927   3.754  1.3269  1.1358  3.2932
 5285TIP3    H237271   0.959   0.779   3.781  0.9225  0.4338 -0.5876
 5286TIP3   OH237272   2.286   0.368  15.680  0.2951  0.3148  0.2786
 5286TIP3    H137273   2.380   0.352  15.672 -0.0637 -0.7937 -2.0855
 5286TIP3    H237274   2.245   0.301  15.626 -1.8795  0.7605  1.3147
 5287TIP3   OH237275   2.527   4.535   3.780 -0.6898 -0.3775  0.1641
 5287TIP3    H137276   2.474   4.600   3.826  2.1734  1.0164  1.6026
 5287TIP3    H237277   2.475   4.454   3.785 -2.7991  0.9834  1.2491
 5288TIP3   OH237278   5.297   1.094   6.013 -0.7762 -0.8362  0.1953
 5288TIP3    H137279   5.378   1.141   6.031 -1.0970 -0.2872  0.2438
 5288TIP3    H237280   5.283   1.105   5.919 -0.9662 -0.6410  0.2451
 5289TIP3   OH237281   4.874   2.131   5.312  0.4602 -0.0485  0.0546
 5289TIP3    H137282   4.933   2.126   5.238 -2.3335 -4.3534 -2.0891
 5289TIP3    H237283   4.912   2.074   5.378  0.3430 -0.2571 -0.0590
 5290TIP3   OH237284   5.659   1.915   2.878  0.0435 -0.3832  0.7731
 5290TIP3    H137285   5.722   1.950   2.941  1.7958 -3.1541  0.6539
 5290TIP3    H237286   5.590   1.876   2.931  0.3630 -0.7069  0.9489
 5291TIP3   OH237287   2.563   5.463  12.827 -0.3976  0.6055 -0.1926
 5291TIP3    H137288   2.515   5.416  12.895  0.8238 -0.6133 -0.1370
 5291TIP3    H237289   2.509   5.456  12.749 -0.8757  0.2980  0.1695
 5292TIP3   OH237290   1.434   2.655   1.810 -0.1933  0.0294 -0.5925
 5292TIP3    H137291   1.527   2.671   1.826  0.4125 -0.7440 -3.0980
 5292TIP3    H237292   1.414   2.576   1.860  0.9599 -0.8190 -1.4456
 5293TIP3   OH237293   4.136   4.194  14.028  0.3956  0.3418  0.6825
 5293TIP3    H137294   4.107   4.280  14.058  0.3827  0.3434  0.6664
 5293TIP3    H237295   4.188   4.212  13.950 -0.3751  0.2668  0.1424
 5294TIP3   OH237296   4.168   2.552  16.709  0.0715 -0.5901  0.0745
 5294TIP3    H137297   4.184   2.459  16.692 -0.8374 -1.1053  1.9488
 5294TIP3    H237298   4.246   2.596  16.675  0.3381 -1.9869 -1.1800
 5295TIP3   OH237299   6.678   6.474   4.747 -0.3317  0.4094  0.4119
 5295TIP3    H137300   6.690   6.478   4.653 -1.2282 -0.8499  0.2276
 5295TIP3    H237301   6.585   6.454   4.759 -0.0636 -0.2473  1.5319
 5296TIP3   OH237302   1.420   0.971   1.348 -0.0512 -0.3190  0.3712
 5296TIP3    H137303   1.337   0.923   1.341  0.1131 -0.7875  1.5680
 5296TIP3    H237304   1.482   0.919   1.296 -0.4732 -0.0106 -0.4609
 5297TIP3   OH237305   6.335   6.494  17.146 -0.0975  0.1244 -0.1726
 5297TIP3    H137306   6.426   6.521  17.158  0.2420  0.2965 -2.7558
 5297TIP3    H237307   6.340   6.405  17.111 -0.8295  0.7898 -2.0501
 5298TIP3   OH237308   3.974   5.463   4.553  0.2232  0.4757 -0.0897
 5298TIP3    H137309   4.050   5.446   4.498  0.4739  0.3998  0.2733
 5298TIP3    H237310   3.934   5.542   4.517  0.3187  0.3627 -0.4464
 5299TIP3   OH237311   0.847   6.219  12.440  0.2666  0.0401 -0.5466
 5299TIP3    H137312   0.942   6.230  12.443  0.3488 -0.8839  0.7411
 5299TIP3    H237313   0.820   6.265  12.361  1.7203  0.8285 -0.6086
 5300TIP3   OH237314   6.341   0.989   5.313  0.3403 -0.2404 -0.3794
 5300TIP3    H137315   6.405   0.990   5.242 -0.9296 -0.3737 -1.5444
 5300TIP3    H237316   6.316   1.080   5.324  0.2370 -0.2701 -0.3723
 5301TIP3   OH237317   0.078   5.278   4.764  0.1267  0.1266 -0.0293
 5301TIP3    H137318   0.129   5.356   4.742  0.5872 -0.3956 -0.8662
 5301TIP3    H237319   0.127   5.237   4.836 -0.2142  0.6947  0.5343
 5302TIP3   OH237320   2.164   2.778   1.234  0.4467 -0.0961  0.4182
 5302TIP3    H137321   2.076   2.741   1.220  0.8330 -0.4304 -1.3059
 5302TIP3    H237322   2.189   2.748   1.321 -0.8661 -0.6095  0.6348
 5303TIP3   OH237323   1.972   6.282   5.796  0.3079 -0.3557 -0.1471
 5303TIP3    H137324   1.937   6.291   5.884  0.2517  0.8581 -0.2877
 5303TIP3    H237325   1.898   6.250   5.744  0.6297 -2.1185  0.4477
 5304TIP3   OH237326   2.893   5.031  15.004  0.0154  0.7223  0.3340
 5304TIP3    H137327   2.826   5.042  15.071  0.8481  1.2384  1.0940
 5304TIP3    H237328   2.868   4.951  14.957  1.3314 -1.6937  3.5487
 5305TIP3   OH237329   6.540   2.191  16.720 -0.5324  0.4614  0.2963
 5305TIP3    H137330   6.519   2.216  16.630  0.8501  0.0230 -0.1587
 5305TIP3    H237331   6.608   2.252  16.747 -0.1271 -0.1420  0.6457
 5306TIP3   OH237332   5.699   4.134  15.899 -0.5258  0.1043  0.0351
 5306TIP3    H137333   5.771   4.072  15.886 -0.6588 -0.1484  0.4812
 5306TIP3    H237334   5.733   4.198  15.961  0.2370  1.5213 -1.7979
 5307TIP3   OH237335   2.027   3.438  16.884  0.7673  0.0607  0.3015
 5307TIP3    H137336   2.019   3.440  16.980 -0.7564  1.0844  0.1840
 5307TIP3    H237337   2.119   3.458  16.867  1.1332 -0.5068  1.5677
 5308TIP3   OH237338   3.473   3.688   0.030  0.1198  0.2306  0.7148
 5308TIP3    H137339   3.483   3.593   0.034 -0.4278  0.0650 -1.4248
 5308TIP3    H237340   3.461   3.715   0.121  1.2533 -1.6316  1.4438
 5309TIP3   OH237341   2.501   5.595  11.373 -0.0066 -0.0724 -0.6080
 5309TIP3    H137342   2.556   5.624  11.300 -0.7052 -0.9967 -1.5208
 5309TIP3    H237343   2.432   5.661  11.379 -0.0088 -0.0513 -0.8542
 5310TIP3   OH237344   0.586   5.441   1.779 -0.2863 -0.1211 -0.0234
 5310TIP3    H137345   0.522   5.491   1.830  0.6482 -0.9407  1.9960
 5310TIP3    H237346   0.541   5.358   1.761 -0.5641  0.1161 -0.4520
 5311TIP3   OH237347   4.226   2.386   6.385 -0.1373  0.7298  1.0460
 5311TIP3    H137348   4.207   2.299   6.421 -0.1829  0.6148  0.7445
 5311TIP3    H237349   4.149   2.438   6.408 -1.2625  0.0311 -0.9367
 5312TIP3   OH237350   6.519   0.010   4.170  0.4309 -0.5771 -0.0784
 5312TIP3    H137351   6.613   0.026   4.163  0.6190 -1.1825  0.8756
 5312TIP3    H237352   6.490  -0.000   4.080  1.0423  0.8859 -0.4628
 5313TIP3   OH237353   6.363   6.106   5.928  0.3312 -0.0979 -1.1211
 5313TIP3    H137354   6.304   6.084   6.000  4.0983  0.4025  2.3097
 5313TIP3    H237355   6.316   6.174   5.879 -0.9874  2.0628  2.8989
 5314TIP3   OH237356   0.999   5.856  13.363 -0.0952  0.7017 -0.0688
 5314TIP3    H137357   1.087   5.834  13.333 -0.2280  1.1413 -0.8069
 5314TIP3    H237358   0.968   5.778  13.409  0.2900  0.1829 -0.6950
 5315TIP3   OH237359   3.939   3.225  11.265 -0.2231 -0.1021  0.9634
 5315TIP3    H137360   3.940   3.198  11.357  0.5578  0.4026  1.1146
 5315TIP3    H237361   3.879   3.164  11.222  0.9078 -1.5804  1.4414
 5316TIP3   OH237362   4.815   4.390  11.107 -0.3033 -0.2222 -0.2069
 5316TIP3    H137363   4.808   4.473  11.154 -0.0722  0.3190 -1.1195
 5316TIP3    H237364   4.837   4.326  11.175 -0.3852  0.4797  0.4860
 5317TIP3   OH237365   1.631   0.162   0.266  0.1029 -0.0737 -0.5864
 5317TIP3    H137366   1.570   0.235   0.257  0.7422  0.5992  0.4121
 5317TIP3    H237367   1.613   0.126   0.353 -1.8214 -2.6122 -1.9607
 5318TIP3   OH237368   1.219   6.765  14.804 -0.0210 -0.4697  0.3848
 5318TIP3    H137369   1.217   6.673  14.779  0.8596 -0.5603  0.6486
 5318TIP3    H237370   1.220   6.764  14.899 -1.0180 -0.1632  0.4064
 5319TIP3   OH237371   3.358   4.198  11.957 -0.1434 -0.1104 -0.0853
 5319TIP3    H137372   3.366   4.151  12.039  0.6886 -0.1795 -0.2081
 5319TIP3    H237373   3.356   4.291  11.982  0.8160 -0.1006 -0.0364
 5320TIP3   OH237374   5.113   2.691  11.923  0.2012  0.4841  0.3427
 5320TIP3    H137375   5.055   2.709  11.997  0.0794  0.7801  0.1777
 5320TIP3    H237376   5.155   2.608  11.944 -0.1594  0.3540  0.5407
 5321TIP3   OH237377   1.375   2.614  15.277  0.1509 -0.3330 -0.2152
 5321TIP3    H137378   1.345   2.663  15.354  1.3801  0.1866 -0.0650
 5321TIP3    H237379   1.317   2.644  15.207 -0.0385  0.2659  0.1884
 5322TIP3   OH237380   4.872   6.702  10.715  0.1018  0.2731  0.1683
 5322TIP3    H137381   4.887   6.621  10.667 -0.5567 -0.9466  1.9670
 5322TIP3    H237382   4.777   6.712  10.714  0.1081  0.4204  0.9025
 5323TIP3   OH237383   6.238   5.168   5.017  0.2276  0.1819  0.1674
 5323TIP3    H137384   6.214   5.240   5.076 -1.4140  0.0463 -0.2976
 5323TIP3    H237385   6.222   5.089   5.068 -1.4312  0.0555 -0.5097
 5324TIP3   OH237386   3.281   0.286  11.147 -0.5748 -0.1771  0.6067
 5324TIP3    H137387   3.336   0.351  11.104  0.0058 -0.8908  0.2682
 5324TIP3    H237388   3.261   0.325  11.232  0.1304  0.2581  0.5781
 5325TIP3   OH237389   0.574   4.761  16.489  0.5339 -0.0248 -0.3284
 5325TIP3    H137390   0.654   4.783  16.440 -0.3834  0.3765 -1.6588
 5325TIP3    H237391   0.566   4.666  16.479  0.9806 -0.1032  0.0276
 5326TIP3   OH237392   4.493   6.174   3.548  0.5434  0.5506 -0.0621
 5326TIP3    H137393   4.479   6.079   3.544  1.9377  0.2789  0.9727
 5326TIP3    H237394   4.551   6.193   3.475 -0.4889  0.7653 -0.8373
 5327TIP3   OH237395   5.642   6.011   1.602 -0.5903 -0.2445  0.0951
 5327TIP3    H137396   5.594   6.094   1.596  0.2681  0.4348  2.2515
 5327TIP3    H237397   5.620   5.977   1.689  2.1747 -0.3220  0.8023
 5328TIP3   OH237398   1.307   3.282  11.393  0.2387  0.1322 -0.1673
 5328TIP3    H137399   1.290   3.330  11.311 -1.2980 -0.5989 -0.2852
 5328TIP3    H237400   1.225   3.287  11.441  1.7191  2.3013  2.2708
 5329TIP3   OH237401   6.363   5.222   2.300 -0.0356 -0.4058 -0.7734
 5329TIP3    H137402   6.387   5.134   2.327  0.0396 -0.0904  0.1898
 5329TIP3    H237403   6.363   5.274   2.381 -1.6565  0.1287 -1.0956
 5330TIP3   OH237404   4.314   5.740  15.471  0.7277 -0.4944 -0.3265
 5330TIP3    H137405   4.397   5.748  15.516  0.1194 -1.2645  0.9622
 5330TIP3    H237406   4.270   5.667  15.515 -0.9019  0.3397 -0.5386
 5331TIP3   OH237407   0.962   6.192  16.607  0.1366 -0.0246 -0.3810
 5331TIP3    H137408   0.997   6.138  16.535  0.2818  0.5950 -0.7807
 5331TIP3    H237409   1.039   6.217  16.658  0.1247  0.2157 -0.4812
 5332TIP3   OH237410   3.900   2.389  16.792 -0.3592  0.0209 -1.1611
 5332TIP3    H137411   3.962   2.359  16.859 -1.1492  0.5600 -0.1687
 5332TIP3    H237412   3.945   2.462  16.750  0.0811 -0.2223 -1.1195
 5333TIP3   OH237413   1.756   0.538  16.904  0.0185 -0.9927 -0.3574
 5333TIP3    H137414   1.683   0.523  16.844  0.3873 -0.1895 -1.0094
 5333TIP3    H237415   1.715   0.567  16.985 -0.3586 -0.1090 -0.8651
 5334TIP3   OH237416   5.701   4.293   3.710  0.0766  0.1471  0.6605
 5334TIP3    H137417   5.619   4.245   3.721  0.4742 -1.3820 -2.3623
 5334TIP3    H237418   5.769   4.231   3.737  0.2827  1.2467  2.7139
 5335TIP3   OH237419   2.361   0.319  15.119  0.0493  0.5725  0.5501
 5335TIP3    H137420   2.305   0.380  15.167  0.5423  1.1124  0.4415
 5335TIP3    H237421   2.316   0.235  15.126 -0.3856  0.8503  1.1108
 5336TIP3   OH237422   6.691   1.464  11.936 -0.4902 -0.2943  0.6351
 5336TIP3    H137423   6.766   1.449  11.995 -1.3673 -0.2002  1.7953
 5336TIP3    H237424   6.693   1.390  11.876  1.3277  0.4034 -0.1988
 5337TIP3   OH237425   0.732   6.205  16.051  0.5929  0.3072 -0.2189
 5337TIP3    H137426   0.776   6.219  16.135 -1.5868 -1.6837  1.3339
 5337TIP3    H237427   0.724   6.109  16.044 -2.6928  0.5431 -0.7901
 5338TIP3   OH237428   2.623   2.179  13.707  0.4333  0.0122  0.1110
 5338TIP3    H137429   2.689   2.168  13.775  1.7428 -0.5458 -1.2327
 5338TIP3    H237430   2.656   2.127  13.633 -0.2895  1.7084 -1.4224
 5339TIP3   OH237431   1.521   3.602  13.146  0.5472  0.5222 -0.3431
 5339TIP3    H137432   1.505   3.626  13.055  1.6902  0.8179 -0.4646
 5339TIP3    H237433   1.511   3.683  13.195  1.6360  0.7011 -0.4152
 5340TIP3   OH237434   5.541   3.662   0.624  0.0544 -0.4278  0.4830
 5340TIP3    H137435   5.509   3.616   0.702 -0.3270 -0.6194  0.2186
 5340TIP3    H237436   5.560   3.751   0.654 -1.4534 -0.0936  0.4956
 5341TIP3   OH237437   6.455   2.791   1.540  0.3149  0.2857  0.0060
 5341TIP3    H137438   6.407   2.799   1.622  0.7093  0.0778  0.2581
 5341TIP3    H237439   6.528   2.733   1.560 -0.3084 -0.8115 -0.8180
 5342TIP3   OH237440   4.398   0.231  14.514  0.1884 -0.0771 -0.1809
 5342TIP3    H137441   4.427   0.322  14.519 -0.2127 -0.0044  1.2096
 5342TIP3    H237442   4.457   0.183  14.573 -0.1575 -0.5610 -0.2175
 5343TIP3   OH237443   2.125   3.314  15.772 -0.0979 -0.1482  0.8072
 5343TIP3    H137444   2.132   3.405  15.801 -0.8411  0.0322  0.4302
 5343TIP3    H237445   2.170   3.264  15.840 -2.6054  0.1723  2.7782
 5344TIP3   OH237446   5.693   0.021  12.443 -0.3872 -0.0456  0.4828
 5344TIP3    H137447   5.721  -0.013  12.357  1.3359  0.2430  0.9075
 5344TIP3    H237448   5.639  -0.049  12.480  0.3131 -0.9187 -0.1028
 5345TIP3   OH237449   1.951   3.120   2.892 -0.6739  0.2302 -0.7354
 5345TIP3    H137450   1.888   3.180   2.932 -0.0258  0.1309  0.4620
 5345TIP3    H237451   1.932   3.124   2.798 -1.0468  1.8453 -0.6110
 5346TIP3   OH237452   4.064   0.721   1.489  0.1590 -0.3680  0.1513
 5346TIP3    H137453   4.121   0.644   1.490  0.2841 -0.2799  1.4014
 5346TIP3    H237454   4.069   0.754   1.400  1.7825 -0.5801  0.1478
 5347TIP3   OH237455   3.187   5.264   5.335  0.1535  0.3702  0.0809
 5347TIP3    H137456   3.108   5.235   5.381  0.1814  0.5958  0.2743
 5347TIP3    H237457   3.252   5.197   5.354  0.3484  0.7871  0.9018
 5348TIP3   OH237458   0.064   5.422  16.465 -0.4003 -0.4129  0.2267
 5348TIP3    H137459  -0.023   5.427  16.503  0.0667  0.7254  1.1744
 5348TIP3    H237460   0.120   5.392  16.536  0.1862  0.0906 -0.0121
 5349TIP3   OH237461   1.776   4.625   6.228 -0.2150 -0.2680 -0.0263
 5349TIP3    H137462   1.689   4.636   6.189  0.5726 -1.0281 -2.0593
 5349TIP3    H237463   1.800   4.535   6.207  1.7113  0.4175 -0.8708
 5350TIP3   OH237464   3.484   0.949  14.442  0.2413 -0.0930  0.2223
 5350TIP3    H137465   3.547   0.928  14.511  0.1334  1.1672  0.7168
 5350TIP3    H237466   3.440   0.866  14.424  0.3834 -0.4705  1.5593
 5351TIP3   OH237467   4.951   1.445  16.515 -0.1172  0.1886  0.3450
 5351TIP3    H137468   4.926   1.481  16.600 -1.1551 -1.2286  0.6434
 5351TIP3    H237469   4.918   1.355  16.515 -0.2606  0.2079 -1.6028
 5352TIP3   OH237470   2.896   2.842  14.896  0.1544  0.0104  0.0701
 5352TIP3    H137471   2.992   2.841  14.887  0.2594 -1.1993  1.1808
 5352TIP3    H237472   2.880   2.886  14.979 -0.2616  0.3063 -0.1655
 5353TIP3   OH237473   0.433   3.225   3.697 -0.7830 -0.5904  0.1947
 5353TIP3    H137474   0.515   3.235   3.649  0.5206 -1.4524  2.2279
 5353TIP3    H237475   0.439   3.287   3.769 -2.2205 -0.1728 -0.0232
 5354TIP3   OH237476   0.791   5.308  14.171  0.3791  0.0672 -0.0512
 5354TIP3    H137477   0.713   5.362  14.177  0.3139 -0.2114  2.0339
 5354TIP3    H237478   0.805   5.295  14.077 -2.0076  0.2026 -0.4452
 5355TIP3   OH237479   4.320   3.779  15.803 -0.6013  0.0533  0.4501
 5355TIP3    H137480   4.233   3.739  15.797 -0.9241  0.5690  1.5071
 5355TIP3    H237481   4.340   3.779  15.897  0.6282 -0.2315  0.1904
 5356TIP3   OH237482   4.039   3.474   4.066 -0.1323  0.1363 -0.5324
 5356TIP3    H137483   4.107   3.425   4.019 -0.1319 -0.6239  0.2361
 5356TIP3    H237484   4.063   3.465   4.159 -1.7405 -0.8892 -0.1866
 5357TIP3   OH237485   1.280   1.865   0.341  0.0271  0.4102  0.6213
 5357TIP3    H137486   1.213   1.807   0.377  2.0595 -0.6368  2.8909
 5357TIP3    H237487   1.239   1.951   0.339 -2.1660 -0.6206 -0.3416
 5358TIP3   OH237488   6.338   6.747  11.554  0.0319  0.0702  0.2634
 5358TIP3    H137489   6.320   6.778  11.643  0.3746  0.0274  0.3470
 5358TIP3    H237490   6.416   6.693  11.562 -0.5297 -0.7779  0.1057
 5359TIP3   OH237491   4.315   6.484  11.564 -0.4474  0.1477  0.1152
 5359TIP3    H137492   4.382   6.418  11.573  0.8900  1.3405 -0.7996
 5359TIP3    H237493   4.322   6.538  11.643 -1.9481 -1.1477  1.1524
 5360TIP3   OH237494   1.301   0.497  16.386  0.1066 -0.2564 -0.2376
 5360TIP3    H137495   1.277   0.517  16.296 -0.7059 -0.3126 -0.0329
 5360TIP3    H237496   1.228   0.445  16.420  0.2275  0.0917  0.5735
 5361TIP3   OH237497   0.963   6.545   0.362 -0.1275 -0.2590  0.6655
 5361TIP3    H137498   1.041   6.522   0.312  0.1215  0.3981  0.7433
 5361TIP3    H237499   0.892   6.544   0.298  0.3869  1.8027  0.0105
 5362TIP3   OH237500   2.562   4.844  14.121  0.3994  0.5559 -0.0274
 5362TIP3    H137501   2.601   4.858  14.208  1.3074  2.0286 -0.6531
 5362TIP3    H237502   2.625   4.788  14.076  1.1541  1.8223 -0.5715
 5363TIP3   OH237503   3.097   3.451  15.571 -0.1009 -0.5603  0.4303
 5363TIP3    H137504   3.078   3.520  15.507  0.3136 -1.6347 -0.8562
 5363TIP3    H237505   3.107   3.498  15.654  1.5776  1.0996 -0.6726
 5364TIP3   OH237506   5.407   5.961   5.818 -0.0357 -0.5485  0.1757
 5364TIP3    H137507   5.445   6.049   5.815  1.4403 -1.2194 -3.3951
 5364TIP3    H237508   5.314   5.973   5.800  0.3045  0.2188 -1.0674
 5365TIP3   OH237509   0.862   1.213  12.960  0.7359 -0.1762  0.6039
 5365TIP3    H137510   0.782   1.219  12.908  1.3127  0.3383 -0.2244
 5365TIP3    H237511   0.884   1.303  12.982  1.4754 -0.2604  0.2353
 5366TIP3   OH237512   2.176   4.182   5.283 -0.1782 -0.2162  0.3306
 5366TIP3    H137513   2.243   4.157   5.219 -0.6579  1.5283 -0.8840
 5366TIP3    H237514   2.105   4.217   5.230 -2.5070 -2.9520  1.5116
 5367TIP3   OH237515   1.266   0.802  12.544 -0.0486  0.0971 -0.5267
 5367TIP3    H137516   1.325   0.737  12.582 -1.6891 -0.4042  1.2549
 5367TIP3    H237517   1.285   0.883  12.593  0.4366  0.4128 -1.2252
 5368TIP3   OH237518   1.644   1.890   2.790  0.1997 -0.3867 -0.1592
 5368TIP3    H137519   1.684   1.971   2.821  0.2202 -0.2390 -0.5794
 5368TIP3    H237520   1.718   1.830   2.777  0.0465 -1.1270  2.0483
 5369TIP3   OH237521   5.386   6.751  14.829  0.4612 -0.6282 -0.2397
 5369TIP3    H137522   5.453   6.732  14.895  0.1566 -0.1835  0.2025
 5369TIP3    H237523   5.382   6.847  14.826 -0.5237 -0.6554  0.1109
 5370TIP3   OH237524   0.483   0.408   4.065  0.4640  0.5043  0.0588
 5370TIP3    H137525   0.480   0.349   3.990  0.3634 -1.3607  1.4987
 5370TIP3    H237526   0.426   0.481   4.040  0.0402 -0.3341 -1.4748
 5371TIP3   OH237527   4.293   2.729   3.851 -0.0122 -0.1791  0.1375
 5371TIP3    H137528   4.283   2.773   3.936 -0.0958 -1.7716  0.9788
 5371TIP3    H237529   4.243   2.647   3.861 -1.6694  0.5116 -2.1265
 5372TIP3   OH237530   1.607   6.374  12.627  0.0593  0.1380  0.5152
 5372TIP3    H137531   1.630   6.466  12.615  1.1466 -0.1429  0.3877
 5372TIP3    H237532   1.675   6.326  12.580 -1.0275 -0.7066 -0.2304
 5373TIP3   OH237533   0.981   4.856   3.242 -0.0788  0.4869  0.6325
 5373TIP3    H137534   1.069   4.842   3.278 -0.2004  0.1505  0.7927
 5373TIP3    H237535   0.962   4.777   3.192  0.0677  0.9244 -0.1379
 5374TIP3   OH237536   3.965   5.259  11.864 -0.2250 -0.0556  0.8001
 5374TIP3    H137537   3.991   5.234  11.953  0.7331 -2.2221 -0.0429
 5374TIP3    H237538   4.046   5.289  11.823 -0.4674  0.0050  0.3605
 5375TIP3   OH237539   6.368   1.443   3.003  0.0632 -0.2158 -1.1295
 5375TIP3    H137540   6.442   1.383   3.012  1.7394  1.8632 -0.5296
 5375TIP3    H237541   6.403   1.528   3.031 -2.8341  0.6082  0.1713
 5376TIP3   OH237542   0.334   1.016  16.532  0.3572  0.8239  0.0117
 5376TIP3    H137543   0.276   1.089  16.508  1.3388  2.2007  1.6467
 5376TIP3    H237544   0.421   1.056  16.534  1.1064 -0.7743 -0.5757
 5377TIP3   OH237545   4.149   2.984   3.251  0.2578  0.1900  0.0435
 5377TIP3    H137546   4.054   2.970   3.250  0.1614  0.4200  2.3649
 5377TIP3    H237547   4.162   3.056   3.314  1.9458  0.3912 -0.5007
 5378TIP3   OH237548   3.464   5.160  10.319 -0.7183 -0.6843  0.2234
 5378TIP3    H137549   3.377   5.194  10.339 -1.1400 -0.9617 -1.0832
 5378TIP3    H237550   3.454   5.065  10.324 -0.0758 -0.6918  1.6926
 5379TIP3   OH237551   2.246   2.375  13.855  0.2161  0.1156 -0.4417
 5379TIP3    H137552   2.266   2.464  13.827  0.1176  0.1236 -0.4866
 5379TIP3    H237553   2.153   2.377  13.877  0.2704  0.0849 -0.2090
 5380TIP3   OH237554   4.768   0.115  11.091  0.3298 -0.1083  0.7441
 5380TIP3    H137555   4.777   0.021  11.109  0.3591 -0.4028 -0.7522
 5380TIP3    H237556   4.830   0.132  11.020 -2.3492  0.2541 -1.6085
 5381TIP3   OH237557   0.043   5.592   2.405  0.0487  0.2600  0.0659
 5381TIP3    H137558  -0.046   5.626   2.406 -0.4273 -0.8192 -1.7933
 5381TIP3    H237559   0.075   5.605   2.494 -1.4214  2.0386  0.3663
 5382TIP3   OH237560   4.354   4.026  10.327  0.2654  0.3419  0.3143
 5382TIP3    H137561   4.321   4.101  10.279  1.9382  1.1270  0.3471
 5382TIP3    H237562   4.344   4.051  10.419  1.3208  0.7650  0.3218
 5383TIP3   OH237563   4.135   3.855  16.748 -0.0990 -0.2429 -0.1346
 5383TIP3    H137564   4.056   3.809  16.719  0.3445  0.0826 -1.8817
 5383TIP3    H237565   4.195   3.785  16.774  0.5625 -0.7001 -2.7539
 5384TIP3   OH237566   3.263   0.695   0.877  0.5653 -0.2682  0.0385
 5384TIP3    H137567   3.207   0.658   0.809  0.0030 -0.1300  0.4146
 5384TIP3    H237568   3.206   0.757   0.923  0.7219 -0.8956  1.0946
 5385TIP3   OH237569   3.855   4.560   2.855 -0.0998 -0.5087  0.0783
 5385TIP3    H137570   3.928   4.621   2.852  0.2291 -0.9410 -3.5351
 5385TIP3    H237571   3.885   4.488   2.910  0.9455  0.7929  1.2472
 5386TIP3   OH237572   0.212   0.932   5.609 -0.3025  0.4414  0.7089
 5386TIP3    H137573   0.167   1.001   5.560  0.5929  1.5312  1.4070
 5386TIP3    H237574   0.142   0.880   5.648 -1.0470 -0.5614 -1.8730
 5387TIP3   OH237575   2.030   6.579   3.295  0.2947  0.3494  0.2214
 5387TIP3    H137576   2.091   6.559   3.366 -0.3802 -1.1257  0.4160
 5387TIP3    H237577   2.086   6.588   3.217  0.8754  0.2852  0.6267
 5388TIP3   OH237578   2.464   2.471   1.889 -0.6673 -0.0357 -0.0534
 5388TIP3    H137579   2.460   2.552   1.939 -1.3964 -0.1022 -0.0010
 5388TIP3    H237580   2.540   2.424   1.925  0.7156  1.3215 -1.1574
 5389TIP3   OH237581   4.620   5.076  14.651  0.6628 -0.0659  0.0599
 5389TIP3    H137582   4.529   5.055  14.674  0.3182  1.9390  0.5610
 5389TIP3    H237583   4.669   4.997  14.675 -1.1429 -1.7853 -1.6760
 5390TIP3   OH237584   2.115   0.616  14.594 -0.2644  0.6680 -0.5179
 5390TIP3    H137585   2.094   0.567  14.673  2.2447 -0.1997 -0.3421
 5390TIP3    H237586   2.072   0.569  14.523 -1.6481  0.8507  0.1983
 5391TIP3   OH237587   5.752   4.673  11.774  0.6822 -0.5877 -0.1420
 5391TIP3    H137588   5.818   4.712  11.831 -0.5722 -0.9708  1.5944
 5391TIP3    H237589   5.734   4.741  11.709  2.5955 -0.3929 -0.5044
 5392TIP3   OH237590   3.633   6.440   5.753  1.0860 -0.0291 -0.3997
 5392TIP3    H137591   3.678   6.357   5.768 -0.2138 -0.8549 -0.9524
 5392TIP3    H237592   3.575   6.423   5.678 -0.5732  0.7997  0.6508
 5393TIP3   OH237593   6.518   4.698   2.056 -0.5835  0.4717  0.5658
 5393TIP3    H137594   6.479   4.667   2.138  2.0721 -0.3478  1.5575
 5393TIP3    H237595   6.494   4.631   1.992 -0.7960 -0.0301  1.1586
 5394TIP3   OH237596   3.499   2.988  16.807 -0.2138 -0.2806 -0.1570
 5394TIP3    H137597   3.487   2.897  16.836 -1.5739 -0.4919 -1.3665
 5394TIP3    H237598   3.516   3.036  16.888 -0.2960 -1.4753  0.5890
 5395TIP3   OH237599   3.222   5.260  14.327  0.1406  0.2941  0.4500
 5395TIP3    H137600   3.158   5.328  14.307  0.0901  0.3048  0.6476
 5395TIP3    H237601   3.281   5.259  14.251 -1.2791 -1.0851 -0.6864
 5396TIP3   OH237602   6.333   5.074   5.666  0.0252 -0.2067  0.2475
 5396TIP3    H137603   6.247   5.115   5.660  0.6687  1.4285  1.6222
 5396TIP3    H237604   6.318   4.992   5.713 -0.7150  0.2764  0.8583
 5397TIP3   OH237605   3.501   2.040   0.845  0.5664 -0.5730 -0.4814
 5397TIP3    H137606   3.538   1.964   0.891 -0.8758 -0.7830  0.3511
 5397TIP3    H237607   3.578   2.092   0.822  1.4286 -1.1455  0.9717
 5398TIP3   OH237608   2.384   2.353   2.862 -0.4441 -0.8408  0.5360
 5398TIP3    H137609   2.422   2.351   2.774 -0.4973 -0.4700  0.5017
 5398TIP3    H237610   2.397   2.444   2.891 -2.0199 -0.4965  0.2194
 5399TIP3   OH237611   0.154   1.041   3.910  0.0962 -0.4036  0.3507
 5399TIP3    H137612   0.109   1.096   3.975  0.2463 -0.4000  0.4501
 5399TIP3    H237613   0.136   0.952   3.938  0.0419 -0.4046  0.3151
 5400TIP3   OH237614   1.957   4.350   3.228  0.1130 -0.0045  0.2014
 5400TIP3    H137615   1.969   4.258   3.252  1.0431  0.6331  2.2482
 5400TIP3    H237616   1.880   4.377   3.278  0.4906  0.6312  0.4326
 5401TIP3   OH237617   4.794   5.958  16.041  0.0142 -0.0719 -0.0785
 5401TIP3    H137618   4.882   5.921  16.032  1.1539  2.2750  0.9025
 5401TIP3    H237619   4.773   5.991  15.954 -1.3928 -3.7307 -1.1940
 5402TIP3   OH237620   4.203   5.689   1.390 -0.3114 -0.4493  0.1188
 5402TIP3    H137621   4.200   5.729   1.477 -3.0348 -0.4731  0.0759
 5402TIP3    H237622   4.180   5.760   1.330 -1.3404 -1.1143 -0.2958
 5403TIP3   OH237623   4.571   0.328   3.926  0.3178 -0.1675  0.9851
 5403TIP3    H137624   4.575   0.380   3.845  1.9791  0.8346  1.6808
 5403TIP3    H237625   4.589   0.239   3.898 -3.6057 -0.6227 -0.3905
 5404TIP3   OH237626   6.179   3.772   2.412 -0.1073 -0.7325 -0.1730
 5404TIP3    H137627   6.141   3.832   2.349  0.3857 -1.2674 -0.9965
 5404TIP3    H237628   6.190   3.824   2.492 -1.9674 -0.4170 -0.1130
 5405TIP3   OH237629   4.617   6.394   1.902 -0.0625  0.2635  0.2334
 5405TIP3    H137630   4.678   6.415   1.973 -1.1379  0.7395  1.0450
 5405TIP3    H237631   4.630   6.465   1.838  0.5340  0.1298  0.2078
 5406TIP3   OH237632   2.341   5.114   0.466 -0.2279  0.1116 -0.7465
 5406TIP3    H137633   2.254   5.099   0.429 -0.3333 -1.6974  0.2157
 5406TIP3    H237634   2.349   5.210   0.468 -1.6153  0.2888 -2.1565
 5407TIP3   OH237635   6.373   4.637  13.233  0.2952  0.3322  0.3337
 5407TIP3    H137636   6.364   4.544  13.212 -0.8480  0.5733 -0.2601
 5407TIP3    H237637   6.289   4.663  13.269 -0.1465  1.6545 -1.5624
 5408TIP3   OH237638   6.411   1.366  12.573  0.0888  0.6739 -0.3811
 5408TIP3    H137639   6.451   1.381  12.487  0.6734  1.3728  0.0076
 5408TIP3    H237640   6.341   1.430  12.579 -0.1396  0.4320 -0.4567
 5409TIP3   OH237641   3.000   1.302   6.685  0.6020  0.6723  0.3642
 5409TIP3    H137642   2.937   1.238   6.651  0.2237  1.0599  0.3232
 5409TIP3    H237643   2.994   1.293   6.780  1.3230 -0.0891  0.3445
 5410TIP3   OH237644   4.648   5.336  12.485 -0.1222  0.1246  0.1299
 5410TIP3    H137645   4.740   5.334  12.456 -0.4980  0.8406 -1.1322
 5410TIP3    H237646   4.636   5.424  12.520 -0.1362 -0.2005  0.9521
 5411TIP3   OH237647   5.714   2.038   1.298 -0.5557  0.0742  0.0409
 5411TIP3    H137648   5.692   2.044   1.391  0.0988 -2.0950  0.3502
 5411TIP3    H237649   5.646   1.982   1.261  1.8350 -3.0214  0.1659
 5412TIP3   OH237650   5.876   5.511  12.947 -0.0624 -0.1527  0.1935
 5412TIP3    H137651   5.934   5.552  13.012 -1.2805  0.0567  1.1749
 5412TIP3    H237652   5.869   5.575  12.876  0.6571 -0.0496  0.2141
 5413TIP3   OH237653   5.656   6.369  15.248 -0.4577 -0.7320  0.0229
 5413TIP3    H137654   5.611   6.325  15.320 -1.3064 -2.2533 -1.4046
 5413TIP3    H237655   5.588   6.380  15.181  0.4705  0.1123 -0.7928
 5414TIP3   OH237656   4.971   5.630   4.779  0.5485  0.0932 -0.1132
 5414TIP3    H137657   5.019   5.548   4.778  1.8555  0.8633 -1.2066
 5414TIP3    H237658   4.995   5.674   4.697  0.4524  1.8964  0.7867
 5415TIP3   OH237659   6.316   5.920  11.504  0.2993 -0.3525 -0.1411
 5415TIP3    H137660   6.242   5.859  11.510 -1.1739  1.4221  0.5154
 5415TIP3    H237661   6.356   5.916  11.591 -1.8175  1.9861  1.0261
 5416TIP3   OH237662   6.116   6.379   1.390 -0.0365 -0.5089  0.3963
 5416TIP3    H137663   6.107   6.457   1.445 -1.1654 -0.6814  0.4648
 5416TIP3    H237664   6.128   6.414   1.301 -1.2767 -0.2661  0.3265
 5417TIP3   OH237665   2.996   5.924   4.123 -0.2478 -0.5500 -0.6613
 5417TIP3    H137666   3.022   6.013   4.146 -1.1315 -0.1122 -1.3551
 5417TIP3    H237667   3.010   5.874   4.204 -0.8783  0.4528  0.0709
 5418TIP3   OH237668   1.568   1.559   4.068  0.6472  0.4174 -0.0089
 5418TIP3    H137669   1.587   1.649   4.093  0.6117  0.3384  0.3175
 5418TIP3    H237670   1.498   1.565   4.003 -0.8452  0.5260  1.5768
 5419TIP3   OH237671   3.724   5.007  11.457 -0.1987  0.2443 -0.1019
 5419TIP3    H137672   3.729   5.047  11.544  1.0259 -0.5242  0.1824
 5419TIP3    H237673   3.635   4.972  11.453 -0.2266  0.1775  0.8842
 5420TIP3   OH237674   0.819   2.872  13.348  0.0430 -0.6174  0.1797
 5420TIP3    H137675   0.736   2.918  13.358  0.6085  0.3521  0.4775
 5420TIP3    H237676   0.799   2.799  13.290 -0.6931  0.4561 -0.9370
 5421TIP3   OH237677   2.323   2.431  14.935 -0.1370  0.6056  0.2332
 5421TIP3    H137678   2.356   2.345  14.960  0.3901  0.4336 -1.0103
 5421TIP3    H237679   2.229   2.427  14.955 -0.2052 -0.4304 -0.2533
 5422TIP3   OH237680   1.010   2.554   2.321  0.1208  0.5990 -0.5407
 5422TIP3    H137681   1.062   2.475   2.304  0.1550  0.6352 -0.6057
 5422TIP3    H237682   0.925   2.521   2.349  0.5962  0.5314  0.8671
 5423TIP3   OH237683   6.448   2.398   5.925 -0.1367 -0.2701 -0.4688
 5423TIP3    H137684   6.536   2.370   5.901 -0.4010 -0.4376 -1.2445
 5423TIP3    H237685   6.435   2.362   6.013  0.4430 -0.5273 -0.4839
 5424TIP3   OH237686   3.449   5.537  11.215  0.4006 -0.6940 -0.4085
 5424TIP3    H137687   3.542   5.538  11.234  0.6118 -0.2808 -1.3979
 5424TIP3    H237688   3.439   5.472  11.146 -0.2327 -1.6406  0.5669
 5425TIP3   OH237689   2.316   4.063   1.826  0.3745 -0.0803  0.3556
 5425TIP3    H137690   2.338   4.124   1.755  2.6752 -1.3682 -0.0795
 5425TIP3    H237691   2.262   3.996   1.784  0.6852 -0.1692  0.0995
 5426TIP3   OH237692   5.977   4.060  11.603  0.2087  0.3965  0.7029
 5426TIP3    H137693   6.051   4.062  11.541 -0.3589 -0.9077 -0.0534
 5426TIP3    H237694   5.988   3.977  11.650 -1.2025 -0.1898  0.0318
 5427TIP3   OH237695   1.009   3.625   2.866 -0.3406  0.0622 -0.0228
 5427TIP3    H137696   0.988   3.694   2.930  1.2234  0.9223 -0.4120
 5427TIP3    H237697   1.104   3.612   2.876 -0.5321 -1.6230 -0.3711
 5428TIP3   OH237698   4.343   3.290  12.676  0.4547 -0.3557  0.4717
 5428TIP3    H137699   4.308   3.361  12.729  0.0380 -0.5238  0.4193
 5428TIP3    H237700   4.375   3.334  12.597  2.1444  0.0467  1.3539
 5429TIP3   OH237701   4.974   0.866  17.044  0.0311  0.0280 -0.5613
 5429TIP3    H137702   4.913   0.883  16.972 -0.3089  0.0095 -0.2757
 5429TIP3    H237703   5.044   0.814  17.004 -0.3608 -0.3279 -0.7880
 5430TIP3   OH237704   5.567   3.492  16.677  0.4995  0.6815  0.0874
 5430TIP3    H137705   5.580   3.487  16.772 -1.4062 -1.3763  0.3013
 5430TIP3    H237706   5.642   3.446  16.640 -0.1156 -0.8932  0.7479
 5431TIP3   OH237707   0.482   0.088  13.724 -0.0235  0.1721 -0.6906
 5431TIP3    H137708   0.443   0.114  13.808  0.7687 -0.7605 -0.0250
 5431TIP3    H237709   0.541   0.161  13.702  1.7248 -0.7255  0.8661
 5432TIP3   OH237710   0.239   5.679  12.104 -0.2341 -0.1999  0.0375
 5432TIP3    H137711   0.314   5.714  12.055 -0.7022  0.3152 -0.3202
 5432TIP3    H237712   0.278   5.636  12.179  0.5145 -1.2196 -0.9163
 5433TIP3   OH237713   2.662   0.511  11.944  0.0953 -0.6898  0.6914
 5433TIP3    H137714   2.667   0.606  11.950  1.1320 -0.7211  0.3811
 5433TIP3    H237715   2.590   0.495  11.884  0.4262 -0.0876  0.1315
 5434TIP3   OH237716   4.443   1.422   5.598  0.1237 -0.2258 -0.1375
 5434TIP3    H137717   4.354   1.437   5.630  0.0110 -0.9607 -0.1034
 5434TIP3    H237718   4.432   1.397   5.506  0.3294  0.1546 -0.2673
 5435TIP3   OH237719   5.540   5.987  14.108 -0.1002  0.1280  0.9778
 5435TIP3    H137720   5.496   6.022  14.186  0.9475  0.0331  1.6209
 5435TIP3    H237721   5.514   6.046  14.037 -0.4249  0.6790  1.5550
 5436TIP3   OH237722   5.178   0.728  13.600  0.1395 -0.6485  0.5094
 5436TIP3    H137723   5.191   0.748  13.693 -1.2345 -0.2434  0.6148
 5436TIP3    H237724   5.158   0.812  13.560  0.3131 -0.8899 -0.0903
 5437TIP3   OH237725   5.892   5.507  15.497 -0.4664 -0.3683 -0.2897
 5437TIP3    H137726   5.801   5.529  15.517 -0.3694  1.4337 -1.6807
 5437TIP3    H237727   5.897   5.412  15.507 -2.7193 -0.5878 -1.0173
 5438TIP3   OH237728   5.788   5.827  14.385  0.8589  0.1263  0.1641
 5438TIP3    H137729   5.722   5.779  14.335  1.9630 -1.5966  0.3063
 5438TIP3    H237730   5.769   5.806  14.476  0.0810  1.6510  0.3671
 5439TIP3   OH237731   2.294   1.809  12.248 -0.3539  0.4278  0.1672
 5439TIP3    H137732   2.337   1.744  12.191 -1.5707 -0.2504  0.0002
 5439TIP3    H237733   2.232   1.853  12.190  0.5723  1.8649  0.2516
 5440TIP3   OH237734   0.528   2.303  13.294  0.2560 -0.4799 -0.4757
 5440TIP3    H137735   0.618   2.288  13.265  0.3365  0.9704 -1.0310
 5440TIP3    H237736   0.529   2.392  13.329 -0.7760 -0.7672  0.2921
 5441TIP3   OH237737   3.628   2.698   3.049  0.0253 -0.0646  0.8407
 5441TIP3    H137738   3.692   2.638   3.011 -0.8058 -0.1149 -0.5143
 5441TIP3    H237739   3.649   2.783   3.010 -0.6561 -0.0626  0.4650
 5442TIP3   OH237740   5.290   3.502   0.080 -0.4712  0.6550 -0.1259
 5442TIP3    H137741   5.199   3.489   0.051 -0.3416  1.0350 -0.7130
 5442TIP3    H237742   5.291   3.590   0.117 -0.3220  0.6793 -0.1893
 5443TIP3   OH237743   1.904   0.800  15.958  0.2267 -0.3863 -0.8287
 5443TIP3    H137744   1.889   0.791  16.052 -0.7255 -0.0828 -0.9507
 5443TIP3    H237745   1.911   0.894  15.944 -1.6934 -0.3039 -1.3726
 5444TIP3   OH237746   4.009   1.833  16.627 -0.3806  0.6040 -0.0032
 5444TIP3    H137747   4.024   1.754  16.575 -0.8395 -0.3874  1.3532
 5444TIP3    H237748   3.940   1.809  16.688 -0.1356  1.8943  0.7919
 5445TIP3   OH237749   1.065   4.043   4.809 -0.5615  0.0194 -0.2532
 5445TIP3    H137750   1.100   3.980   4.745 -0.6633  1.0658 -1.3615
 5445TIP3    H237751   1.138   4.060   4.869 -0.9941 -2.3021  0.9745
 5446TIP3   OH237752   6.050   6.728   4.694  0.1514 -0.2645 -0.2073
 5446TIP3    H137753   6.103   6.785   4.751 -0.6065  1.0307 -0.7758
 5446TIP3    H237754   5.961   6.739   4.726 -0.3381  0.8058 -1.9066
 5447TIP3   OH237755   4.830   1.769  14.720  0.3108  0.2418  0.6541
 5447TIP3    H137756   4.838   1.772  14.815 -1.2468  2.1794  0.7354
 5447TIP3    H237757   4.758   1.708  14.704  0.1485  0.4162  0.7257
 5448TIP3   OH237758   6.655   6.013  10.847  0.5463  0.4007  0.0253
 5448TIP3    H137759   6.566   5.979  10.834 -0.4578  1.8935  2.6131
 5448TIP3    H237760   6.657   6.095  10.798 -0.6485  2.0171  2.5276
 5449TIP3   OH237761   1.899   6.616  15.829 -0.2664 -0.5333  0.5899
 5449TIP3    H137762   1.805   6.611  15.839 -0.5595  0.9322 -1.0813
 5449TIP3    H237763   1.920   6.546  15.767  0.0203 -2.0643  2.3669
 5450TIP3   OH237764   4.771   0.587  12.293  0.2006 -0.4102 -0.1075
 5450TIP3    H137765   4.691   0.552  12.333  1.1755 -0.9764  1.3883
 5450TIP3    H237766   4.740   0.655  12.234 -1.4337 -0.9734  0.0584
 5451TIP3   OH237767   6.677   3.627   4.304 -0.3983 -0.9208 -0.5154
 5451TIP3    H137768   6.598   3.660   4.346 -0.2515  0.3373 -1.2131
 5451TIP3    H237769   6.660   3.534   4.291 -0.9077 -1.1024  1.2687
 5452TIP3   OH237770   2.253   0.854   0.743 -0.7289 -0.1238  0.6980
 5452TIP3    H137771   2.326   0.819   0.794 -0.2812  2.3159  1.8367
 5452TIP3    H237772   2.175   0.828   0.792 -0.5338 -1.2502  0.4180
 5453TIP3   OH237773   4.002   0.880  13.392  0.9089  0.1153 -0.0033
 5453TIP3    H137774   3.962   0.921  13.469 -0.5249 -0.4837 -0.4262
 5453TIP3    H237775   3.958   0.921  13.318 -1.1600 -2.7495 -0.4345
 5454TIP3   OH237776   0.580   3.413  12.388 -0.0724 -0.3502  0.2107
 5454TIP3    H137777   0.521   3.339  12.399  1.4945 -1.5119  1.0206
 5454TIP3    H237778   0.546   3.461  12.313 -1.7344 -1.2831  0.3605
 5455TIP3   OH237779   0.084   0.675   6.037  0.3700 -0.0599  0.0353
 5455TIP3    H137780   0.096   0.620   6.113 -0.1928 -0.0555  0.1286
 5455TIP3    H237781  -0.004   0.713   6.047  0.5670  0.4925 -0.2525
 5456TIP3   OH237782   0.528   5.260  11.177 -0.2414  0.8917 -0.7106
 5456TIP3    H137783   0.434   5.277  11.172 -0.3095  0.1306 -2.2287
 5456TIP3    H237784   0.534   5.166  11.195  0.2300  0.5907 -2.3579
 5457TIP3   OH237785   2.449   6.774  12.404  0.6973 -0.5713 -0.2339
 5457TIP3    H137786   2.415   6.685  12.398  0.9091 -0.5789 -1.4960
 5457TIP3    H237787   2.527   6.774  12.349 -1.0797  1.1985 -2.9322
 5458TIP3   OH237788   3.363   0.102   3.687 -0.7682  0.0429 -0.2273
 5458TIP3    H137789   3.385   0.119   3.596  0.1920  0.1679  0.0225
 5458TIP3    H237790   3.402   0.016   3.706 -0.2248  0.3998  0.3038
 5459TIP3   OH237791   2.223   3.137   1.423  0.3862  0.3018  0.0671
 5459TIP3    H137792   2.306   3.127   1.469  0.1468  2.2391  0.9859
 5459TIP3    H237793   2.246   3.179   1.340  0.3371  0.8237  0.3149
 5460TIP3   OH237794   6.414   1.970   2.925  0.6854 -0.0078 -0.4934
 5460TIP3    H137795   6.387   2.052   2.966 -2.1311 -0.5081 -1.2435
 5460TIP3    H237796   6.438   1.995   2.835  2.1948  0.3312 -0.0197
 5461TIP3   OH237797   3.870   6.465  14.586  0.8924 -0.2927  0.4495
 5461TIP3    H137798   3.900   6.478  14.496 -0.4352  0.7324  0.1338
 5461TIP3    H237799   3.870   6.370  14.598 -0.7233 -0.5575 -1.3007
 5462TIP3   OH237800   6.380   3.706  15.879 -0.1310  0.1830  0.0145
 5462TIP3    H137801   6.415   3.790  15.852  2.1142  0.2562  2.9727
 5462TIP3    H237802   6.451   3.644  15.864 -0.6084 -0.6172  0.9901
 5463TIP3   OH237803   5.686   3.511  15.649 -0.1386  0.4527 -0.2348
 5463TIP3    H137804   5.629   3.457  15.704 -2.0657  5.3515  2.9384
 5463TIP3    H237805   5.631   3.535  15.574 -0.4949  0.9045  0.1686
 5464TIP3   OH237806   4.714   6.717   3.153 -0.0266  0.4627 -0.3049
 5464TIP3    H137807   4.803   6.687   3.172  0.4624  2.3113  0.4625
 5464TIP3    H237808   4.716   6.737   3.059 -0.0525 -0.8693 -0.5919
 5465TIP3   OH237809   4.057   5.971  12.062 -0.2971  0.4088 -0.5711
 5465TIP3    H137810   4.109   5.925  12.129  2.4695  2.9437 -0.8683
 5465TIP3    H237811   3.967   5.966  12.095  0.5512 -1.1919  1.6915
 5466TIP3   OH237812   0.818   5.305   4.931  0.5668 -0.2769 -0.0494
 5466TIP3    H137813   0.890   5.291   4.992  0.2657 -1.2230  0.1084
 5466TIP3    H237814   0.850   5.267   4.848  0.8142  0.6215 -0.3662
 5467TIP3   OH237815   0.737   1.796  14.233  0.7992  0.0932  0.2730
 5467TIP3    H137816   0.739   1.716  14.286 -0.4136  0.0035  0.1888
 5467TIP3    H237817   0.691   1.771  14.153 -0.3887  1.0916  0.6317
 5468TIP3   OH237818   1.007   1.893  10.753 -0.2667  0.4430  0.1524
 5468TIP3    H137819   1.081   1.884  10.693 -1.0918  2.4866 -1.2520
 5468TIP3    H237820   1.042   1.940  10.828 -0.2801  2.1428 -0.8721
 5469TIP3   OH237821   0.327   5.496  11.853  0.2248  0.0521 -0.0127
 5469TIP3    H137822   0.338   5.557  11.780 -0.3523 -0.8959 -0.9052
 5469TIP3    H237823   0.237   5.510  11.882 -0.3438 -1.2823 -1.0731
 5470TIP3   OH237824   0.503   5.101  14.179 -0.3694 -0.0016 -0.0289
 5470TIP3    H137825   0.514   5.186  14.138 -0.2745 -0.0124 -0.0270
 5470TIP3    H237826   0.471   5.044  14.109  0.6810 -0.2414 -0.3248
 5471TIP3   OH237827   4.800   3.631   5.672 -0.0794 -0.2924  0.2429
 5471TIP3    H137828   4.825   3.545   5.704 -0.4797  0.1025  1.6883
 5471TIP3    H237829   4.720   3.615   5.621  1.0125 -1.0387 -1.2753
 5472TIP3   OH237830   1.311   5.056  11.769 -0.0947 -0.0038 -0.2963
 5472TIP3    H137831   1.303   5.040  11.863  0.4316  0.3326 -0.1910
 5472TIP3    H237832   1.229   5.099  11.745  0.3253  1.1652  0.2804
 5473TIP3   OH237833   0.499   3.580  10.996  0.6233 -0.0741 -0.1551
 5473TIP3    H137834   0.590   3.554  10.981 -0.2823 -3.7909  0.2792
 5473TIP3    H237835   0.456   3.565  10.911  0.1332  0.2940  0.0275
 5474TIP3   OH237836   0.862   4.401  13.872 -0.8374  0.2837 -0.2688
 5474TIP3    H137837   0.887   4.419  13.781 -3.1250  0.8585 -0.8156
 5474TIP3    H237838   0.862   4.487  13.913  3.1149 -0.2532  1.1359
 5475TIP3   OH237839   4.127   3.031   3.920  0.0803 -0.3475 -0.5578
 5475TIP3    H137840   4.070   2.955   3.928 -0.3878 -0.0276 -0.8125
 5475TIP3    H237841   4.178   3.016   3.840 -1.1465  0.3455 -1.4970
 5476TIP3   OH237842   5.897   2.833   4.934 -0.3940  0.1655  0.0041
 5476TIP3    H137843   5.944   2.831   4.851  0.5165 -1.7877  0.5463
 5476TIP3    H237844   5.808   2.859   4.910 -0.0772 -0.1323 -1.5436
 5477TIP3   OH237845   3.576   6.161   2.480 -0.1095 -0.0785  0.2135
 5477TIP3    H137846   3.515   6.100   2.438 -1.5354  0.7853  0.9929
 5477TIP3    H237847   3.636   6.106   2.529 -0.3451 -0.9358 -0.4528
 5478TIP3   OH237848   3.123   3.275   1.217 -0.1364 -0.1528 -0.0456
 5478TIP3    H137849   3.191   3.243   1.158  1.7186 -2.8053  3.3271
 5478TIP3    H237850   3.061   3.203   1.224 -1.0646  0.6640  0.1344
 5479TIP3   OH237851   0.651   3.397  14.813  0.5929 -0.8743 -0.2148
 5479TIP3    H137852   0.606   3.359  14.888  0.5109  1.1340  0.7711
 5479TIP3    H237853   0.582   3.446  14.767  1.1087 -0.3420 -0.4200
 5480TIP3   OH237854   2.389   1.252  16.584 -0.1928  0.0866  0.1331
 5480TIP3    H137855   2.453   1.309  16.542 -0.8482 -0.5615 -1.7867
 5480TIP3    H237856   2.439   1.175  16.612  0.3854  0.8643  1.2634
 5481TIP3   OH237857   2.760   2.535  14.925 -0.2649  0.2150 -0.8484
 5481TIP3    H137858   2.707   2.464  14.961  1.0162 -0.3531 -0.0607
 5481TIP3    H237859   2.833   2.544  14.985  1.2656  0.0755 -2.6345
 5482TIP3   OH237860   0.026   4.352  17.010 -0.1797  0.2407 -0.3959
 5482TIP3    H137861   0.097   4.398  16.964  0.1603 -0.3684 -0.4889
 5482TIP3    H237862  -0.044   4.416  17.017  0.3280  0.8010 -0.4463
 5483TIP3   OH237863   6.163   0.121  16.445  0.6420  0.0512 -0.4479
 5483TIP3    H137864   6.171   0.068  16.524 -0.2576  1.5039  0.6193
 5483TIP3    H237865   6.174   0.211  16.474 -2.0206  0.7912 -1.6034
 5484TIP3   OH237866   0.912   3.238   0.334  0.3456  0.0990  0.1506
 5484TIP3    H137867   0.890   3.156   0.289  0.2479  0.3685 -0.3018
 5484TIP3    H237868   0.889   3.222   0.426 -2.1514  0.5057 -0.3536
 5485TIP3   OH237869   2.178   6.594  14.858  0.4903  0.2809  0.4761
 5485TIP3    H137870   2.162   6.622  14.768  0.4167  0.0036  0.4031
 5485TIP3    H237871   2.151   6.669  14.911  1.3897  0.7860  0.2256
 5486TIP3   OH237872   2.071   5.900   4.549  0.2120  0.4819  0.0501
 5486TIP3    H137873   2.033   5.988   4.551 -0.8492  0.0315 -0.0242
 5486TIP3    H237874   2.160   5.913   4.514 -0.1024  1.4644 -0.4008
 5487TIP3   OH237875   1.713   3.769   1.624  0.5042  0.2137  0.6069
 5487TIP3    H137876   1.633   3.817   1.642  1.4659  1.7270  0.9260
 5487TIP3    H237877   1.783   3.832   1.641  1.6562  0.0107 -3.0147
 5488TIP3   OH237878   0.538   5.734   1.513  0.0514 -0.1915  0.2734
 5488TIP3    H137879   0.604   5.762   1.576 -1.4549  1.0634  1.3307
 5488TIP3    H237880   0.470   5.802   1.516 -0.2866 -0.3222 -2.3685
 5489TIP3   OH237881   0.676   4.137  13.760 -0.2652 -0.3239  0.3244
 5489TIP3    H137882   0.767   4.112  13.775 -0.7464 -2.2449  0.2330
 5489TIP3    H237883   0.634   4.130  13.846 -0.4629 -0.0093  0.2565
 5490TIP3   OH237884   3.391   2.496   0.126  0.3051 -0.9999 -0.1672
 5490TIP3    H137885   3.408   2.554   0.052 -0.4596 -0.1481  0.3045
 5490TIP3    H237886   3.468   2.439   0.130  0.6323 -0.6527 -1.2289
 5491TIP3   OH237887   1.790   1.437   2.482 -0.0644  0.6239 -0.1504
 5491TIP3    H137888   1.702   1.403   2.468 -0.4806  1.8022 -0.5280
 5491TIP3    H237889   1.802   1.436   2.577  0.6118 -2.1542 -0.2175
 5492TIP3   OH237890   1.019   3.556  12.277  0.2800  0.4298  0.1849
 5492TIP3    H137891   0.963   3.633  12.277  0.0969  0.2990  0.9927
 5492TIP3    H237892   1.070   3.563  12.358  2.5438  1.3514 -1.2579
 5493TIP3   OH237893   4.563   1.088   3.415 -0.6145  0.0203 -0.0243
 5493TIP3    H137894   4.546   1.086   3.509 -0.8084 -0.0261 -0.0612
 5493TIP3    H237895   4.645   1.039   3.404  1.5232  3.2513  0.6021
 5494TIP3   OH237896   2.487   4.938   5.889 -0.2105  0.5086 -0.3602
 5494TIP3    H137897   2.451   4.878   5.955  2.2410 -0.5482  0.0508
 5494TIP3    H237898   2.464   5.025   5.922  0.3310 -0.0302  1.5350
 5495TIP3   OH237899   0.508   3.671   0.539  0.2086 -0.0148 -0.3978
 5495TIP3    H137900   0.516   3.660   0.445 -1.0842 -0.4682 -0.4710
 5495TIP3    H237901   0.414   3.681   0.554  0.5048  1.2913  0.7076
 5496TIP3   OH237902   4.832   1.194  16.472  0.3638 -0.6047  0.2024
 5496TIP3    H137903   4.805   1.105  16.494 -1.1916  0.5287  3.1980
 5496TIP3    H237904   4.773   1.219  16.400 -1.4460 -0.8721  1.5550
 5497TIP3   OH237905   3.971   4.332  16.955  0.1693  0.0877 -0.2533
 5497TIP3    H137906   3.910   4.398  16.990 -1.1926 -0.9436 -0.6626
 5497TIP3    H237907   3.947   4.323  16.863  0.3505 -0.9720 -0.1999
 5498TIP3   OH237908   2.891   6.029   1.866 -0.1764 -0.2155 -0.4257
 5498TIP3    H137909   2.880   6.057   1.957  0.1081 -0.4972 -0.3062
 5498TIP3    H237910   2.803   6.003   1.838 -0.4362  0.7508 -0.5217
 5499TIP3   OH237911   4.610   4.203  11.301  0.3993  0.6887 -0.1020
 5499TIP3    H137912   4.603   4.297  11.316 -0.7473  0.6534 -0.3680
 5499TIP3    H237913   4.698   4.180  11.331  0.3631  1.6905  0.7992
 5500TIP3   OH237914   4.281   2.459  12.071  0.0362 -0.3326 -0.7326
 5500TIP3    H137915   4.249   2.375  12.104  1.1768 -0.5677 -0.2001
 5500TIP3    H237916   4.376   2.447  12.063  0.1749  0.8164 -0.9163
 5501TIP3   OH237917   1.129   1.030   5.541 -0.0622  0.0675  0.6516
 5501TIP3    H137918   1.053   1.035   5.599 -0.8634 -0.2608 -0.3633
 5501TIP3    H237919   1.145   0.937   5.530 -0.6071  0.1018 -0.5363
 5502TIP3   OH237920   1.635   2.594   0.888 -0.5197  0.0237 -0.0241
 5502TIP3    H137921   1.588   2.616   0.968  1.4170 -0.7921  1.3712
 5502TIP3    H237922   1.583   2.525   0.847 -2.8015  2.0609 -0.7625
 5503TIP3   OH237923   0.530   3.586   1.557 -0.3031  0.3696  0.2545
 5503TIP3    H137924   0.608   3.613   1.606  0.6053 -0.7500 -0.5471
 5503TIP3    H237925   0.513   3.496   1.587 -0.5093  0.1411 -0.5270
 5504TIP3   OH237926   5.004   3.685  13.994  0.0305 -0.4666 -0.1784
 5504TIP3    H137927   5.059   3.614  13.961  1.7506  0.9984 -0.5484
 5504TIP3    H237928   5.005   3.751  13.923  0.4896  0.9848  1.1439
 5505TIP3   OH237929   1.116   1.401   3.013  0.1077 -0.3202 -0.1241
 5505TIP3    H137930   1.137   1.494   3.007  0.0808 -0.3838 -1.2671
 5505TIP3    H237931   1.197   1.356   2.991 -0.0382 -0.5692 -0.1519
 5506TIP3   OH237932   1.608   2.974   2.369 -0.3437  0.2081  0.0683
 5506TIP3    H137933   1.632   2.899   2.424 -3.2580 -1.5723 -0.9877
 5506TIP3    H237934   1.683   2.985   2.310  0.6680 -1.0280  1.0786
 5507TIP3   OH237935   2.659   2.411   4.538  0.2411 -0.2346  0.0306
 5507TIP3    H137936   2.705   2.354   4.477  2.1091  1.4400 -0.1843
 5507TIP3    H237937   2.724   2.430   4.606 -1.0786 -0.1876  1.3057
 5508TIP3   OH237938   3.154   1.189  10.875 -0.2284  0.1851  0.1199
 5508TIP3    H137939   3.105   1.241  10.810  1.6716  1.2839 -0.4852
 5508TIP3    H237940   3.154   1.244  10.954  0.2374  0.2955  0.0414
 5509TIP3   OH237941   5.219   0.980   0.852 -0.0206  0.5253  0.3360
 5509TIP3    H137942   5.267   0.914   0.902 -1.9497  0.6277  2.3809
 5509TIP3    H237943   5.247   1.064   0.890  0.3886  0.7500 -0.4517
 5510TIP3   OH237944   0.631   5.013  13.518 -0.2956 -0.2757 -0.5258
 5510TIP3    H137945   0.554   5.065  13.542  0.1294 -0.3188  0.9289
 5510TIP3    H237946   0.599   4.955  13.448 -1.7803 -0.7980  0.5617
 5511TIP3   OH237947   1.335   2.597   6.176 -0.3391 -0.5543 -0.2190
 5511TIP3    H137948   1.275   2.672   6.170  1.2873  0.8352  0.5433
 5511TIP3    H237949   1.287   2.531   6.225 -0.5180  1.3079  2.1743
 5512TIP3   OH237950   0.063   0.866  14.597  0.4483 -0.0902  0.2711
 5512TIP3    H137951   0.035   0.849  14.687 -0.6394 -0.7674 -0.1776
 5512TIP3    H237952   0.053   0.781  14.553  0.7375  0.2952 -0.5456
 5513TIP3   OH237953   1.050   4.422   0.907 -0.1685 -1.2851  0.2461
 5513TIP3    H137954   1.142   4.431   0.932  0.0837 -4.7460  0.8241
 5513TIP3    H237955   1.004   4.410   0.990 -0.6382 -2.9897 -0.2342
 5514TIP3   OH237956   5.537   1.761   1.677  0.3121 -0.1782  0.0300
 5514TIP3    H137957   5.503   1.779   1.589 -0.0616 -0.4535  0.1196
 5514TIP3    H237958   5.631   1.753   1.665  0.3151  0.2684 -0.2694
 5515TIP3   OH237959   3.411   2.816  15.383 -0.7766  0.1312  0.0831
 5515TIP3    H137960   3.399   2.721  15.375  0.5389 -0.1175  0.9724
 5515TIP3    H237961   3.450   2.842  15.300  0.8208 -0.4410  0.6489
 5516TIP3   OH237962   2.214   3.592  13.360  0.7694  0.8429  0.1191
 5516TIP3    H137963   2.150   3.664  13.365  1.4954  1.5867 -0.9906
 5516TIP3    H237964   2.177   3.532  13.296  0.0078  0.0571  1.2809
 5517TIP3   OH237965   3.036   0.399  14.112  0.5575 -0.1605 -0.1229
 5517TIP3    H137966   3.024   0.491  14.132  0.6773 -0.0553 -0.5293
 5517TIP3    H237967   3.031   0.355  14.197 -1.4398  0.0054 -0.1442
 5518TIP3   OH237968   5.614   2.424   5.770 -0.2689  0.1310 -0.3698
 5518TIP3    H137969   5.569   2.468   5.699 -0.1130  1.1564  0.1650
 5518TIP3    H237970   5.707   2.443   5.755 -0.3001  1.0560  0.5760
 5519TIP3   OH237971   2.621   5.783   0.658  0.2838 -0.3558  0.7559
 5519TIP3    H137972   2.631   5.696   0.619  1.9925 -0.3602  1.1594
 5519TIP3    H237973   2.700   5.794   0.711  0.9406  2.1604 -0.7032
 5520TIP3   OH237974   5.866   6.639   2.027  0.4633  0.1086  0.2531
 5520TIP3    H137975   5.851   6.734   2.028 -0.5568 -0.0419  0.4098
 5520TIP3    H237976   5.851   6.614   1.936  2.4479  0.3478 -0.1457
 5521TIP3   OH237977   5.406   0.438   1.097  0.1749  0.4659  0.1526
 5521TIP3    H137978   5.319   0.467   1.125  0.6371  1.4631  0.5941
 5521TIP3    H237979   5.404   0.343   1.108 -1.3381  0.3137 -1.2141
 5522TIP3   OH237980   3.834   6.467  11.249  0.2615  0.2339 -0.8374
 5522TIP3    H137981   3.846   6.558  11.221 -2.1350  0.8201 -0.0064
 5522TIP3    H237982   3.758   6.469  11.306  1.7475 -1.8850  1.3153
 5523TIP3   OH237983   4.032   3.560  14.588 -0.1928  0.1996  0.6995
 5523TIP3    H137984   3.965   3.620  14.557 -1.2363 -1.1432  0.2922
 5523TIP3    H237985   4.072   3.525  14.508 -0.4749 -0.6155  0.9108
 5524TIP3   OH237986   2.661   4.509   5.604  0.1826 -0.0136 -0.1412
 5524TIP3    H137987   2.585   4.451   5.598  0.5868 -0.3185 -2.8527
 5524TIP3    H237988   2.710   4.476   5.680 -1.9525 -0.3083  1.1479
 5525TIP3   OH237989   4.312   0.890   5.501 -0.2156  0.4347 -0.3053
 5525TIP3    H137990   4.261   0.970   5.495 -0.5373  0.1307 -1.7341
 5525TIP3    H237991   4.370   0.893   5.424 -1.6314 -1.6535 -1.4949
 5526TIP3   OH237992   3.556   5.477   5.046 -0.5963  0.5685 -0.2897
 5526TIP3    H137993   3.617   5.539   5.088 -1.4637  2.0898 -1.2164
 5526TIP3    H237994   3.516   5.430   5.119 -0.5245  1.6985  0.4889
 5527TIP3   OH237995   1.787   5.998   4.713  0.3003  0.0820  0.5366
 5527TIP3    H137996   1.846   5.955   4.776 -0.0497  0.8199  1.3861
 5527TIP3    H237997   1.838   6.003   4.632  1.1428  0.0553  1.0587
 5528TIP3   OH237998   0.582   5.899  15.596 -0.1087 -0.1807  0.6258
 5528TIP3    H137999   0.570   5.972  15.536  0.5030 -0.7552 -0.2219
 5528TIP3    H238000   0.566   5.821  15.542  0.2067 -0.7005  1.2711
 5529TIP3   OH238001   6.009   5.288  11.485 -0.6402 -0.6098 -0.1094
 5529TIP3    H138002   6.028   5.381  11.473  0.8832 -0.7239  1.3588
 5529TIP3    H238003   6.066   5.243  11.422 -0.5934 -0.6199 -0.0600
 5530TIP3   OH238004   1.727   3.687   6.279  0.2019 -0.0854  0.6103
 5530TIP3    H138005   1.651   3.638   6.313 -0.7535  0.4443 -0.7244
 5530TIP3    H238006   1.704   3.706   6.188  1.8648  0.2591  0.2575
 5531TIP3   OH238007   2.048   0.820   6.350  0.4385 -0.9616 -0.6311
 5531TIP3    H138008   2.135   0.858   6.340  0.4355 -0.5626  0.7124
 5531TIP3    H238009   2.055   0.764   6.427 -0.7843  0.0102  0.2131
 5532TIP3   OH238010   0.836   3.219  12.729  0.0515  0.2797  0.0691
 5532TIP3    H138011   0.914   3.248  12.776  0.1004  1.0726 -0.4767
 5532TIP3    H238012   0.834   3.275  12.650 -1.4641  0.7765  0.4438
 5533TIP3   OH238013   0.948   4.086   2.950  0.2972 -0.7078  0.2561
 5533TIP3    H138014   0.964   4.058   2.860  3.4481  1.9703 -0.1244
 5533TIP3    H238015   0.969   4.009   3.003 -1.3998 -2.2499 -1.2172
 5534TIP3   OH238016   6.715   5.178   0.790  0.3048 -0.0003  0.0093
 5534TIP3    H138017   6.795   5.137   0.757  0.3449  2.0524 -2.5974
 5534TIP3    H238018   6.740   5.269   0.807 -0.7010 -0.1006  2.2191
 5535TIP3   OH238019   3.730   4.252  12.894 -0.0054 -0.4839  0.0145
 5535TIP3    H138020   3.808   4.278  12.943  0.6973 -1.4771 -0.5637
 5535TIP3    H238021   3.754   4.168  12.853 -0.2636  0.7307 -2.7306
 5536TIP3   OH238022   4.628   2.905   0.233  0.5757 -0.4639 -0.1527
 5536TIP3    H138023   4.548   2.852   0.231  0.0515  0.2568  1.1964
 5536TIP3    H238024   4.605   2.980   0.288  2.1298 -0.1721  0.1021
 5537TIP3   OH238025   5.247   2.370   4.352 -0.6213  0.3721  0.4031
 5537TIP3    H138026   5.152   2.356   4.357 -0.6987  1.2606  1.6048
 5537TIP3    H238027   5.258   2.444   4.292 -0.6406 -0.1783 -0.2845
 5538TIP3   OH238028   4.927   3.667   2.142 -0.0315  0.2660  0.3434
 5538TIP3    H138029   4.882   3.584   2.153 -1.2045  1.0945  2.1159
 5538TIP3    H238030   4.998   3.665   2.207  1.8210 -0.5383 -1.6229
 5539TIP3   OH238031   1.419   5.865  10.420  0.5031 -0.5075  0.1585
 5539TIP3    H138032   1.456   5.817  10.494 -0.1501 -1.3707 -0.0674
 5539TIP3    H238033   1.422   5.803  10.347  0.5214  0.1111 -0.3702
 5540TIP3   OH238034   4.370   2.523   5.934 -0.0623 -0.2086  0.2848
 5540TIP3    H138035   4.370   2.428   5.942  0.6865 -0.3615 -1.2325
 5540TIP3    H238036   4.278   2.547   5.926 -0.2426 -0.8313  0.4828
 5541TIP3   OH238037   2.147   1.437  14.273  0.0731 -0.4348 -0.1690
 5541TIP3    H138038   2.172   1.465  14.361  0.4035  0.8110 -0.6396
 5541TIP3    H238039   2.067   1.486  14.253  1.5679  1.5229 -1.6438
 5542TIP3   OH238040   3.460   1.836   6.731  0.0397  0.0959 -0.7021
 5542TIP3    H138041   3.478   1.774   6.802 -0.7286  1.3430  0.5868
 5542TIP3    H238042   3.372   1.867   6.748  0.6827  2.0829 -0.9457
 5543TIP3   OH238043   5.774   4.611  13.975  0.5488 -0.1726  0.3687
 5543TIP3    H138044   5.782   4.538  13.913 -0.8581  0.4757 -0.6069
 5543TIP3    H238045   5.822   4.683  13.934  0.3244  0.0090  0.4214
 5544TIP3   OH238046   1.293   2.965  10.473 -0.0057 -0.0394 -1.0043
 5544TIP3    H138047   1.280   2.873  10.453  0.1740 -0.0039 -1.2992
 5544TIP3    H238048   1.205   3.001  10.482 -0.0581 -0.4255 -0.0139
 5545TIP3   OH238049   3.551   5.412   3.444 -0.6297  0.7024  0.9097
 5545TIP3    H138050   3.609   5.336   3.438 -0.1680  1.1905 -1.3146
 5545TIP3    H238051   3.482   5.385   3.505  0.3282 -0.9582  1.2926
 5546TIP3   OH238052   0.044   1.903  14.623 -0.3990  0.1473 -0.5348
 5546TIP3    H138053   0.115   1.875  14.564  0.2590  1.7423 -0.5409
 5546TIP3    H238054   0.055   1.850  14.701  2.0502  1.6927  0.2418
 5547TIP3   OH238055   0.559   3.892   4.353 -0.2868 -0.5399  0.4838
 5547TIP3    H138056   0.486   3.940   4.312  0.8603  2.5263  1.8689
 5547TIP3    H238057   0.634   3.910   4.297  0.1893 -0.5594  1.1106
 5548TIP3   OH238058   5.197   4.438   2.178 -0.7238  0.2810  0.1345
 5548TIP3    H138059   5.243   4.494   2.116  0.0731 -0.2229  0.2550
 5548TIP3    H238060   5.180   4.494   2.253 -0.5330  0.5433 -0.0178
 5549TIP3   OH238061   6.653   6.415   5.283  0.0019 -0.5740 -0.0463
 5549TIP3    H138062   6.565   6.390   5.254 -0.1949  0.0155  0.0454
 5549TIP3    H238063   6.656   6.510   5.275  1.1414 -0.7083 -1.4798
 5550TIP3   OH238064   2.776   4.329  15.503 -1.0122  0.1577 -0.3937
 5550TIP3    H138065   2.767   4.424  15.509 -1.2395  0.0776  0.4639
 5550TIP3    H238066   2.761   4.297  15.591 -1.0680 -0.6940 -0.7068
 5551TIP3   OH238067   6.786   1.324   4.404  0.0704  0.3127 -0.1741
 5551TIP3    H138068   6.843   1.375   4.346 -1.7486  0.2875 -2.0748
 5551TIP3    H238069   6.701   1.368   4.397 -1.0000 -1.7066 -0.1689
 5552TIP3   OH238070   5.117   2.310   6.683 -0.3233  0.3211 -0.4106
 5552TIP3    H138071   5.139   2.218   6.671 -0.5293 -0.3256  3.7079
 5552TIP3    H238072   5.184   2.357   6.633  1.1513 -1.9988 -0.6816
 5553TIP3   OH238073   0.691   0.170  15.769 -0.0153  0.1830  0.1599
 5553TIP3    H138074   0.703   0.096  15.829  1.1051 -2.6144 -3.3369
 5553TIP3    H238075   0.603   0.159  15.735 -0.0568  0.8467  0.0437
 5554TIP3   OH238076   5.487   3.345   2.542 -0.1652 -0.6130 -0.6746
 5554TIP3    H138077   5.475   3.417   2.480  0.5424  1.1863  1.2108
 5554TIP3    H238078   5.573   3.310   2.522  0.7701  1.0281  0.2753
 5555TIP3   OH238079   3.217   0.487  11.640 -0.0778  1.1861 -0.2199
 5555TIP3    H138080   3.186   0.576  11.651 -0.5894  0.7835  1.7115
 5555TIP3    H238081   3.200   0.444  11.724 -0.9503 -1.0601 -1.4950
 5556TIP3   OH238082   3.927   5.208  11.596  0.0666 -0.1437 -0.0352
 5556TIP3    H138083   3.942   5.197  11.690  0.8521 -0.5937 -0.2065
 5556TIP3    H238084   3.881   5.291  11.588  0.4108  0.1204  0.7169
 5557TIP3   OH238085   1.136   3.983  15.475  0.0576  0.3298  0.0964
 5557TIP3    H138086   1.065   3.932  15.437 -1.1143 -0.1200  2.8347
 5557TIP3    H238087   1.177   3.925  15.538  0.9322  1.6102  0.7219
 5558TIP3   OH238088   0.850   2.028  15.438  0.3657  0.6179  0.0461
 5558TIP3    H138089   0.786   2.025  15.367  1.3493 -1.7108 -0.7852
 5558TIP3    H238090   0.935   2.036  15.394  1.1892 -3.2084  0.7627
 5559TIP3   OH238091   2.653   2.238  15.573  0.2343 -0.3663  0.4959
 5559TIP3    H138092   2.636   2.326  15.607 -0.9219 -0.7708  0.9556
 5559TIP3    H238093   2.689   2.254  15.485  1.6730  0.6146  1.2283
 5560TIP3   OH238094   0.181   5.415  13.199 -0.7237 -0.3961 -0.2835
 5560TIP3    H138095   0.190   5.493  13.253 -1.3190 -1.4233  1.3326
 5560TIP3    H238096   0.243   5.428  13.127 -1.3213  1.8742 -0.4216
 5561TIP3   OH238097   3.973   5.449  12.476 -0.0563 -0.2576  0.5179
 5561TIP3    H138098   4.014   5.522  12.429 -0.8166 -0.1671 -0.0167
 5561TIP3    H238099   3.979   5.473  12.568  1.2631 -0.3341  0.4662
 5562TIP3   OH238100   5.058   0.993  12.082 -0.0964  0.1074  0.3936
 5562TIP3    H138101   5.031   1.071  12.131  0.8544  1.5718 -1.3390
 5562TIP3    H238102   5.137   0.963  12.127 -1.5000 -0.9443  2.1678
 5563TIP3   OH238103   5.172   6.026   2.336 -0.2186  0.2357  0.1245
 5563TIP3    H138104   5.233   5.956   2.359  0.4133  0.8184  0.2482
 5563TIP3    H238105   5.089   5.999   2.374 -0.5983 -1.6760 -2.0072
 5564TIP3   OH238106   5.054   2.614   6.106 -0.5197 -0.0202  0.4587
 5564TIP3    H138107   5.015   2.620   6.193 -1.1747  1.4941  0.0569
 5564TIP3    H238108   5.141   2.576   6.123 -1.5409 -2.0235  1.4935
 5565TIP3   OH238109   1.561   4.592  17.151 -0.1695 -0.3316  0.3661
 5565TIP3    H138110   1.654   4.607  17.136  0.0037 -0.8360  0.9093
 5565TIP3    H238111   1.519   4.676  17.132 -0.2051 -1.3243 -4.8183
 5566TIP3   OH238112   6.057   1.738   5.677 -0.1969  0.0792 -0.3434
 5566TIP3    H138113   5.987   1.797   5.651 -0.0767  0.0517 -0.7297
 5566TIP3    H238114   6.020   1.650   5.667 -0.8359  0.1044  1.5264
 5567TIP3   OH238115   4.986   6.458  13.107  0.4023 -0.3608 -0.5438
 5567TIP3    H138116   5.025   6.462  13.195 -1.8383  2.1524  0.4059
 5567TIP3    H238117   4.972   6.365  13.092 -1.6021 -0.7206  2.9253
 5568TIP3   OH238118   2.281   0.644   3.630 -0.7968  0.0987 -0.0731
 5568TIP3    H138119   2.298   0.720   3.686 -0.6160 -1.4696  2.0623
 5568TIP3    H238120   2.202   0.604   3.667  0.9223 -2.5727  0.9142
 5569TIP3   OH238121   6.214   5.567  14.846 -0.1318 -0.3443  0.0278
 5569TIP3    H138122   6.212   5.600  14.935 -0.8381 -1.2825  0.3695
 5569TIP3    H238123   6.307   5.567  14.822 -0.0663  1.2481  0.2492
 5570TIP3   OH238124   3.480   2.752   5.790 -0.6523 -0.2485 -0.1809
 5570TIP3    H138125   3.489   2.815   5.719 -0.1470  0.6189  0.6314
 5570TIP3    H238126   3.389   2.759   5.818 -1.0198 -1.0632 -1.1694
 5571TIP3   OH238127   0.918   6.105   0.253  0.2568  0.8075  0.0750
 5571TIP3    H138128   0.911   6.150   0.168 -0.2818 -0.3231 -0.4960
 5571TIP3    H238129   0.872   6.022   0.239  1.6457 -0.1196  0.9733
 5572TIP3   OH238130   6.767   1.984  16.583 -0.0903 -0.2722 -0.1560
 5572TIP3    H138131   6.847   2.031  16.605 -0.3423 -0.7384  1.8319
 5572TIP3    H238132   6.698   2.051  16.587 -0.1573 -0.3818  0.6866
 5573TIP3   OH238133   4.832   5.351   4.843  0.1838 -0.2167 -0.6085
 5573TIP3    H138134   4.923   5.367   4.816  0.0853 -2.5379 -2.5935
 5573TIP3    H238135   4.839   5.278   4.904 -0.3464 -0.4838 -0.8685
 5574TIP3   OH238136   4.707   4.718  13.577 -0.1787 -0.4719 -0.1263
 5574TIP3    H138137   4.636   4.724  13.641 -1.4281 -2.2017 -1.2951
 5574TIP3    H238138   4.699   4.797  13.524 -0.6059 -0.1643  0.3971
 5575TIP3   OH238139   1.095   3.618  15.602 -0.0611 -0.2014 -0.0910
 5575TIP3    H138140   1.031   3.612  15.531 -0.5258 -0.0256  0.3199
 5575TIP3    H238141   1.044   3.629  15.681  0.5293  1.8360  0.0309
 5576TIP3   OH238142   4.805   2.289   4.182  0.2021  0.4595 -0.0678
 5576TIP3    H138143   4.813   2.230   4.107 -1.1521  0.6934 -0.3970
 5576TIP3    H238144   4.804   2.376   4.143 -4.3033  0.4625 -0.1184
 5577TIP3   OH238145   6.596   3.892   3.170 -0.0938 -0.4135 -0.5783
 5577TIP3    H138146   6.625   3.847   3.091  0.9378 -0.0974 -0.3808
 5577TIP3    H238147   6.583   3.983   3.142  0.1297 -0.3327 -0.4191
 5578TIP3   OH238148   0.958   3.707   1.023 -0.2003  0.6780 -0.1548
 5578TIP3    H138149   1.020   3.758   0.971  0.9174 -0.2118  0.2812
 5578TIP3    H238150   0.873   3.745   1.003  0.4252  1.5658 -1.1864
 5579TIP3   OH238151   6.742   5.120   4.576  0.1441  0.0624 -0.2042
 5579TIP3    H138152   6.705   5.050   4.630 -1.0203  0.5425 -0.3678
 5579TIP3    H238153   6.791   5.175   4.637 -1.6908  0.9608  0.4851
 5580TIP3   OH238154   0.416   5.729  15.872 -0.5702  0.2286  0.1025
 5580TIP3    H138155   0.508   5.713  15.893 -0.6810  0.2228  0.6064
 5580TIP3    H238156   0.394   5.663  15.806 -0.1884  0.2883 -0.0823
 5581TIP3   OH238157   0.155   0.431   0.972 -0.4727  0.2205 -0.4295
 5581TIP3    H138158   0.243   0.464   0.960 -0.3186  0.0497  0.2323
 5581TIP3    H238159   0.101   0.509   0.982 -0.2381  0.2959  0.2543
 5582TIP3   OH238160   2.238   6.264  16.430  0.1792 -0.3751 -0.3159
 5582TIP3    H138161   2.312   6.271  16.491 -0.1571 -2.1892  0.3223
 5582TIP3    H238162   2.164   6.241  16.486 -0.1203 -2.1322 -1.3972
 5583TIP3   OH238163   4.370   2.875  17.176  0.6067 -0.5513 -0.2942
 5583TIP3    H138164   4.449   2.916  17.140  0.3777 -0.2535 -0.4611
 5583TIP3    H238165   4.392   2.857  17.267  1.0773 -1.0126 -0.4960
 5584TIP3   OH238166   2.745   2.648  11.754 -0.2029  0.0453  0.3317
 5584TIP3    H138167   2.679   2.679  11.817 -0.2494  0.9348 -0.1546
 5584TIP3    H238168   2.808   2.720  11.747 -1.0485  0.6177 -1.8373
 5585TIP3   OH238169   2.583   3.648  16.220 -0.0341  0.6595 -0.0231
 5585TIP3    H138170   2.632   3.568  16.241 -1.1823 -0.8174 -2.7729
 5585TIP3    H238171   2.491   3.622  16.227 -0.4234  1.4463 -1.9720
 5586TIP3   OH238172   0.698   5.396   1.518  0.4896 -0.0014 -0.5095
 5586TIP3    H138173   0.703   5.305   1.547 -0.0551  0.4283  1.0015
 5586TIP3    H238174   0.686   5.446   1.599  1.3913  1.4699 -1.2654
 5587TIP3   OH238175   6.305   5.547   3.386  0.0413 -0.3340 -0.0363
 5587TIP3    H138176   6.233   5.565   3.325 -1.8991 -0.2649  2.1978
 5587TIP3    H238177   6.271   5.477   3.443  2.3630 -1.4575  0.0355
 5588TIP3   OH238178   1.226   0.013   3.725  0.1370  0.1815 -0.5854
 5588TIP3    H138179   1.284  -0.063   3.724  0.7026  0.6154 -1.9245
 5588TIP3    H238180   1.146  -0.018   3.683 -0.8082 -0.5518  1.6801
 5589TIP3   OH238181   1.248   2.615   5.837 -0.0351  0.7446 -0.4195
 5589TIP3    H138182   1.236   2.685   5.901 -0.7791 -0.1629  0.4366
 5589TIP3    H238183   1.242   2.534   5.888  0.5225  0.0401 -1.4483
 5590TIP3   OH238184   3.834   1.820  17.176 -0.1258 -0.0130  0.1517
 5590TIP3    H138185   3.816   1.764  17.251  0.4780  0.8453  0.9524
 5590TIP3    H238186   3.758   1.878  17.171 -0.2421 -0.1793  0.0010
 5591TIP3   OH238187   5.278   3.435   4.888 -0.1790 -0.1944 -0.0847
 5591TIP3    H138188   5.250   3.516   4.844  3.0842  0.0481 -1.9105
 5591TIP3    H238189   5.234   3.437   4.973 -4.0204  1.0170 -2.0106
 5592TIP3   OH238190   6.539   0.711  11.459  0.3914 -0.1317 -0.0218
 5592TIP3    H138191   6.566   0.766  11.385 -0.4596  0.3754  0.0348
 5592TIP3    H238192   6.545   0.769  11.534  1.6228 -0.7565  0.3754
 5593TIP3   OH238193   5.613   1.511   4.748  0.0322  0.0649  0.0571
 5593TIP3    H138194   5.672   1.576   4.709 -0.1563 -0.0501 -0.4284
 5593TIP3    H238195   5.631   1.431   4.698 -0.3220 -0.0438  0.1092
 5594TIP3   OH238196   3.590   2.887   1.606 -0.2113  0.4810  0.3959
 5594TIP3    H138197   3.649   2.811   1.605 -1.4059 -0.4890  1.3972
 5594TIP3    H238198   3.572   2.904   1.513 -1.4285 -1.6818  0.1872
 5595TIP3   OH238199   4.620   2.913   2.826 -0.3471  0.7276 -0.3996
 5595TIP3    H138200   4.661   2.959   2.753  1.7207  1.9739  1.4785
 5595TIP3    H238201   4.613   2.823   2.796  1.3402  1.0228 -1.8085
 5596TIP3   OH238202   3.550   1.248   5.374 -0.4263 -0.0521  0.4693
 5596TIP3    H138203   3.531   1.293   5.292  1.7149 -0.1823 -0.1158
 5596TIP3    H238204   3.498   1.168   5.370  0.0596 -0.3015 -0.9996
 5597TIP3   OH238205   4.662   5.741   4.598  0.1203 -0.4536 -0.2472
 5597TIP3    H138206   4.637   5.675   4.662  0.2677 -0.3415 -0.0702
 5597TIP3    H238207   4.646   5.700   4.513 -1.9859  0.1142 -0.1508
 5598TIP3   OH238208   0.782   3.915   1.307 -0.6662  0.0549  0.0477
 5598TIP3    H138209   0.840   3.839   1.316  1.4483  1.6215  0.0201
 5598TIP3    H238210   0.811   3.958   1.227 -1.4902  1.1996  0.3455
 5599TIP3   OH238211   2.790   4.312   4.229  0.2021  0.0410  0.1905
 5599TIP3    H138212   2.771   4.245   4.295 -1.4724  0.5811  0.2632
 5599TIP3    H238213   2.834   4.381   4.277  1.4909 -0.7804  0.2121
 5600TIP3   OH238214   3.703   1.894   6.430  0.3322  0.3047  0.1273
 5600TIP3    H138215   3.641   1.960   6.399 -0.3632 -0.2752  0.2535
 5600TIP3    H238216   3.777   1.900   6.370 -0.0937  0.6237 -0.3698
 5601TIP3   OH238217   5.036   1.244   4.026 -0.7886  0.1890  0.3536
 5601TIP3    H138218   5.094   1.237   3.949  1.1751  0.6485  1.7439
 5601TIP3    H238219   5.017   1.337   4.033 -1.7932  0.0311 -0.1418
 5602TIP3   OH238220   2.383   0.582  12.273  0.8489 -0.0229 -0.2269
 5602TIP3    H138221   2.472   0.560  12.300  0.3687 -0.3234  1.1860
 5602TIP3    H238222   2.335   0.592  12.355 -0.9931 -2.2784 -0.9571
 5603TIP3   OH238223   1.354   0.334   5.733 -0.2983  0.4025  0.4196
 5603TIP3    H138224   1.421   0.289   5.785 -0.0234 -1.3334 -1.3976
 5603TIP3    H238225   1.271   0.303   5.768 -0.1096 -1.0745 -0.4152
 5604TIP3   OH238226   3.632   0.990   2.790  0.1741 -1.0433 -0.4572
 5604TIP3    H138227   3.684   1.071   2.795  0.6797 -1.3538 -0.5927
 5604TIP3    H238228   3.604   0.973   2.879  0.8742 -1.2345 -0.2691
 5605TIP3   OH238229   5.536   2.888  12.831  0.1537  0.0078  0.1924
 5605TIP3    H138230   5.543   2.819  12.897 -0.4143 -0.9176 -0.7145
 5605TIP3    H238231   5.560   2.847  12.749 -0.3844  0.8328 -0.3934
 5606TIP3   OH238232   3.100   5.589  14.468  0.1231 -0.1876 -0.1418
 5606TIP3    H138233   3.140   5.637  14.395  0.8664  2.3511  1.8226
 5606TIP3    H238234   3.007   5.609  14.462  0.4018  1.4004  0.5371
 5607TIP3   OH238235   2.734   5.300   2.333  0.1038  0.1337  0.2662
 5607TIP3    H138236   2.697   5.247   2.404  0.0863 -0.2432 -0.0223
 5607TIP3    H238237   2.657   5.331   2.285  0.2064 -2.6208 -1.7609
 5608TIP3   OH238238   2.483   0.427   0.963 -0.1390 -0.4123  0.1136
 5608TIP3    H138239   2.465   0.372   1.039 -0.8405 -0.6769 -0.2364
 5608TIP3    H238240   2.447   0.513   0.986  1.9218  0.2241  1.0990
 5609TIP3   OH238241   1.829   2.239  12.018 -0.5905  0.0945 -0.0972
 5609TIP3    H138242   1.877   2.219  12.098 -1.2260 -0.5326  0.1323
 5609TIP3    H238243   1.891   2.287  11.964 -0.2214  0.7083  0.8597
 5610TIP3   OH238244   5.874   2.692   6.681  0.3001  0.9984  0.3662
 5610TIP3    H138245   5.886   2.783   6.706  1.2733  0.9385  0.1354
 5610TIP3    H238246   5.945   2.675   6.619  0.1913  0.0525  0.5004
 5611TIP3   OH238247   3.954   5.926   2.846  0.0692  0.1400 -0.1275
 5611TIP3    H138248   3.999   6.006   2.820 -0.5975  0.8052  0.7021
 5611TIP3    H238249   4.023   5.870   2.880  0.1799  1.5499  2.1109
 5612TIP3   OH238250   0.596   0.009  16.361 -0.2203 -0.7012  0.8293
 5612TIP3    H138251   0.647   0.085  16.334 -2.2249  0.2307 -0.4862
 5612TIP3    H238252   0.562  -0.027  16.279 -1.0429 -1.7414  1.6101
 5613TIP3   OH238253   4.594   6.576  12.856 -0.3646  0.0655  0.9234
 5613TIP3    H138254   4.640   6.660  12.849 -0.9982  0.3052 -0.4810
 5613TIP3    H238255   4.624   6.540  12.939  3.1026 -0.1968 -0.3325
 5614TIP3   OH238256   6.258   0.021  13.195 -0.1921 -0.3794 -0.2497
 5614TIP3    H138257   6.259   0.092  13.259 -1.2165 -1.5747  1.1213
 5614TIP3    H238258   6.336  -0.031  13.216 -1.2991 -1.5729  0.9683
 5615TIP3   OH238259   1.140   0.199  12.829  0.2651  0.1048  0.3587
 5615TIP3    H138260   1.176   0.111  12.814 -0.6993 -0.2423  0.0042
 5615TIP3    H238261   1.110   0.198  12.920  1.4207  0.4901  0.7404
 5616TIP3   OH238262   0.510   4.222  11.325 -0.4648  0.2473  0.0947
 5616TIP3    H138263   0.491   4.222  11.231 -2.2325 -0.0206  0.4409
 5616TIP3    H238264   0.430   4.256  11.365  0.2093  0.1521  1.5262
 5617TIP3   OH238265   0.386   5.703  16.541  0.2878  0.0834  0.3099
 5617TIP3    H138266   0.476   5.678  16.564  1.6521  1.4286 -3.2300
 5617TIP3    H238267   0.396   5.780  16.485 -3.1738  1.0350  0.8759
 5618TIP3   OH238268   5.530   0.642  11.951  0.0713 -0.2695  0.6290
 5618TIP3    H138269   5.536   0.581  12.024 -0.8337 -2.0027 -0.7000
 5618TIP3    H238270   5.621   0.668  11.934  0.5245 -1.6467  0.9042
 5619TIP3   OH238271   4.900   2.709   5.100 -0.0373  0.2837 -0.1130
 5619TIP3    H138272   4.943   2.627   5.122 -0.0362  0.2581 -0.2092
 5619TIP3    H238273   4.912   2.718   5.005 -2.2322 -0.8808 -0.5303
 5620TIP3   OH238274   2.996   2.608  14.206  0.0774 -0.4701  0.0712
 5620TIP3    H138275   2.975   2.652  14.289  1.7563 -0.9157  0.7530
 5620TIP3    H238276   2.928   2.540  14.198  0.3789 -0.9614  1.5062
 5621TIP3   OH238277   0.317   3.547   4.932 -0.2004  0.5257 -0.0645
 5621TIP3    H138278   0.356   3.461   4.920 -1.5778 -0.1492  0.2689
 5621TIP3    H238279   0.391   3.608   4.928  0.8151 -0.6968  0.0622
 5622TIP3   OH238280   1.878   5.312  12.892  0.1283 -0.5830  0.5879
 5622TIP3    H138281   1.895   5.393  12.939 -1.1897 -1.1625  2.0958
 5622TIP3    H238282   1.904   5.331  12.801  0.1718  1.3909  0.9934
 5623TIP3   OH238283   3.906   4.958   2.899 -0.3338  0.0359 -0.0229
 5623TIP3    H138284   3.916   5.052   2.884 -1.8246  0.3292  0.7198
 5623TIP3    H238285   3.848   4.929   2.829 -0.4402 -0.2081  0.1669
 5624TIP3   OH238286   2.251   6.214  12.833 -0.2022  0.1250 -0.0604
 5624TIP3    H138287   2.159   6.239  12.827 -0.1585  0.2828 -0.0603
 5624TIP3    H238288   2.296   6.294  12.859 -0.1538 -0.1085  0.5828
 5625TIP3   OH238289   4.576   0.698  16.335  0.4196 -0.3582 -0.5540
 5625TIP3    H138290   4.641   0.724  16.400 -1.1053  1.6223  0.2154
 5625TIP3    H238291   4.627   0.679  16.256  1.9288  1.0626  0.0651
 5626TIP3   OH238292   6.111   1.180   4.130  0.6671 -0.1681  0.0217
 5626TIP3    H138293   6.104   1.141   4.043  0.2007 -1.7415  0.7577
 5626TIP3    H238294   6.123   1.106   4.190  0.6561  0.8685  1.3421
 5627TIP3   OH238295   6.067   2.551   5.264 -0.4922 -0.1349 -0.3803
 5627TIP3    H138296   6.022   2.620   5.215  0.1838  0.7271  0.2094
 5627TIP3    H238297   6.153   2.544   5.223 -0.4627 -0.4381 -0.2669
 5628TIP3   OH238298   2.265   0.573   2.649  0.5210  0.1248 -0.0654
 5628TIP3    H138299   2.327   0.507   2.617  0.4222 -0.4717  0.9587
 5628TIP3    H238300   2.277   0.647   2.590  0.3084 -0.9681 -1.5177
 5629TIP3   OH238301   6.517   4.533   1.856 -0.4980  0.2184  0.3981
 5629TIP3    H138302   6.568   4.461   1.818 -1.1457 -1.0504  1.8967
 5629TIP3    H238303   6.561   4.612   1.826  0.6528 -0.8113 -0.6834
 5630TIP3   OH238304   5.221   3.933   1.588 -0.3715 -0.6246  0.2759
 5630TIP3    H138305   5.255   3.998   1.649 -0.3993 -0.2889 -0.0609
 5630TIP3    H238306   5.128   3.954   1.579 -0.5914 -1.3179  0.9171
 5631TIP3   OH238307   1.578   2.103   0.870  0.3062 -0.4376 -0.0950
 5631TIP3    H138308   1.651   2.054   0.908  0.1740  0.3863  1.2824
 5631TIP3    H238309   1.500   2.058   0.903  0.1844  0.7884  1.3372
 5632TIP3   OH238310   2.726   0.394   0.853  0.2752 -0.1145  0.1647
 5632TIP3    H138311   2.640   0.418   0.887  0.3027  1.3775 -0.7333
 5632TIP3    H238312   2.740   0.304   0.881 -1.9198 -0.6387 -0.3373
 5633TIP3   OH238313   4.453   0.316   1.903 -0.1102 -0.5350 -0.6528
 5633TIP3    H138314   4.417   0.399   1.933  1.2704 -0.4380  0.8282
 5633TIP3    H238315   4.430   0.311   1.810  0.8827  2.0875 -1.0649
 5634TIP3   OH238316   1.054   2.089   2.674 -0.1103 -0.2878  0.1907
 5634TIP3    H138317   1.032   2.179   2.652 -3.2895 -1.3242 -1.2982
 5634TIP3    H238318   1.143   2.077   2.643  1.0628  2.8694  2.1685
 5635TIP3   OH238319   0.705   5.520  13.908 -0.0564  0.0658 -0.2395
 5635TIP3    H138320   0.743   5.433  13.902  0.2718  0.0142  2.0291
 5635TIP3    H238321   0.659   5.521  13.992 -0.2443  1.9989 -0.3261
 5636TIP3   OH238322   0.018   2.955   3.655  0.2921 -0.1406  0.0365
 5636TIP3    H138323  -0.025   2.950   3.569  1.2179  1.0514 -0.5059
 5636TIP3    H238324   0.072   2.876   3.658 -0.1699 -0.4746 -0.2395
 5637TIP3   OH238325   3.757   4.667  15.908  0.6798  0.5167 -0.0835
 5637TIP3    H138326   3.784   4.721  15.834 -0.0461 -1.5972 -1.9689
 5637TIP3    H238327   3.797   4.581  15.891 -0.0423 -0.1913  1.6279
 5638TIP3   OH238328   2.583   2.107  16.337  0.1331 -0.7433 -0.6338
 5638TIP3    H138329   2.642   2.165  16.288 -0.5596 -1.5416 -2.4726
 5638TIP3    H238330   2.641   2.053  16.390  0.7393  2.3764  2.0150
 5639TIP3   OH238331   2.300   5.153   1.199  0.2650  0.7394  0.1725
 5639TIP3    H138332   2.281   5.068   1.159  2.0753  0.3084  0.1893
 5639TIP3    H238333   2.393   5.168   1.181  0.8833  1.0464  3.2492
 5640TIP3   OH238334   5.330   2.120  16.051 -0.0661 -0.4858  0.4614
 5640TIP3    H138335   5.270   2.153  16.119  0.4027  1.9149 -0.2576
 5640TIP3    H238336   5.288   2.145  15.969  0.2375 -1.8514 -0.1167
 5641TIP3   OH238337   4.797   2.521   6.464  0.0767  0.1926  0.2293
 5641TIP3    H138338   4.741   2.446   6.447  1.3455 -0.5657 -0.7608
 5641TIP3    H238339   4.824   2.511   6.556  1.6456 -1.5679 -0.3834
 5642TIP3   OH238340   3.094   1.464  12.851  0.3962  0.0607  0.0053
 5642TIP3    H138341   3.053   1.442  12.767  1.5391 -0.4542 -0.4225
 5642TIP3    H238342   3.048   1.544  12.879 -0.7039 -0.3451 -0.6009
 5643TIP3   OH238343   6.478   3.180  12.458 -0.6987  0.8412 -0.4849
 5643TIP3    H138344   6.569   3.209  12.452 -0.4979  0.2422 -0.3895
 5643TIP3    H238345   6.438   3.236  12.524  0.3736 -0.8155  1.6108
 5644TIP3   OH238346   1.545   3.628  11.860  0.9065 -0.5975 -0.2579
 5644TIP3    H138347   1.608   3.648  11.929 -1.2012  0.2078  1.4763
 5644TIP3    H238348   1.557   3.535  11.843  1.0743 -0.9228  1.5757
 5645TIP3   OH238349   6.179   5.546  11.479  0.6522  0.3264  0.1196
 5645TIP3    H138350   6.220   5.517  11.398 -1.3535 -0.2766 -0.7095
 5645TIP3    H238351   6.252   5.557  11.540  1.9471 -1.6800 -1.0001
 5646TIP3   OH238352   4.982   3.833   5.600 -0.7342 -0.0368  0.0573
 5646TIP3    H138353   4.957   3.865   5.514  1.2461 -1.2858 -1.0048
 5646TIP3    H238354   4.924   3.758   5.616 -0.3542 -0.4994 -0.6935
 5647TIP3   OH238355   1.123   2.740  12.150  0.5737  0.6494 -0.4873
 5647TIP3    H138356   1.160   2.685  12.219 -3.3719 -0.4954  0.8532
 5647TIP3    H238357   1.173   2.716  12.072  1.0164 -2.6434  0.7101
 5648TIP3   OH238358   3.032   5.225  12.956 -0.3338 -0.3136 -0.2911
 5648TIP3    H138359   2.955   5.219  12.900 -0.2008 -0.2433 -0.4844
 5648TIP3    H238360   3.023   5.309  13.002 -0.5011 -0.4250 -0.1190
 5649TIP3   OH238361   5.720   2.150   0.243 -0.1193 -0.1574 -0.3819
 5649TIP3    H138362   5.720   2.055   0.258 -0.2653 -0.2728 -1.0813
 5649TIP3    H238363   5.642   2.182   0.288  1.1004 -0.0549  1.7329
 5650TIP3   OH238364   0.901   3.644   1.282 -0.4165  0.4784  0.2446
 5650TIP3    H138365   0.918   3.663   1.190 -0.3185  1.0041  0.3688
 5650TIP3    H238366   0.824   3.588   1.281 -0.7061  0.8794 -0.1348
 5651TIP3   OH238367   1.829   2.977  14.122  0.0012  0.2408  0.2722
 5651TIP3    H138368   1.828   2.912  14.192  2.3119 -0.3619 -0.1972
 5651TIP3    H238369   1.919   3.010  14.122  0.3710 -0.5871 -3.1147
 5652TIP3   OH238370   2.261   4.333  14.567  0.0072  0.2402 -0.0508
 5652TIP3    H138371   2.196   4.396  14.536 -1.4122 -1.0023  0.3249
 5652TIP3    H238372   2.319   4.320  14.492 -0.8297  0.5497 -0.7689
 5653TIP3   OH238373   2.513   1.023   6.017  0.3766 -0.3560 -0.5828
 5653TIP3    H138374   2.506   0.988   6.105 -0.0659  2.3488  0.5145
 5653TIP3    H238375   2.429   1.066   6.001  1.7567  2.4530 -0.7771
 5654TIP3   OH238376   0.542   2.557   1.139 -0.0740 -0.3726 -0.0326
 5654TIP3    H138377   0.468   2.530   1.085  0.0140  1.0872 -0.9162
 5654TIP3    H238378   0.580   2.632   1.092  0.9173 -0.0297  1.2827
 5655TIP3   OH238379   3.283   1.592   4.751 -0.1693 -0.5595  0.3443
 5655TIP3    H138380   3.367   1.547   4.740  0.5807  1.0148 -0.5513
 5655TIP3    H238381   3.232   1.566   4.674 -0.0267 -0.5178  0.2351
 5656TIP3   OH238382   6.203   5.124   1.799 -0.5644  0.2404 -0.3242
 5656TIP3    H138383   6.114   5.151   1.825 -0.2847  1.4859 -0.6473
 5656TIP3    H238384   6.260   5.183   1.848  0.1393 -1.3574  0.8278
 5657TIP3   OH238385   2.523   1.243   3.193  0.0776  0.1718 -0.3899
 5657TIP3    H138386   2.576   1.310   3.236  1.1824 -0.2781 -1.0077
 5657TIP3    H238387   2.577   1.213   3.120 -1.1968 -0.0507 -1.2577
 5658TIP3   OH238388   2.690   4.000   3.629  0.6248  0.4581  0.0157
 5658TIP3    H138389   2.688   4.094   3.610  0.3466  0.2831 -0.8148
 5658TIP3    H238390   2.729   3.995   3.716  2.0347  1.2494 -0.5467
 5659TIP3   OH238391   5.541   4.690   2.066  0.0811 -0.3544  0.5404
 5659TIP3    H138392   5.613   4.754   2.068  0.7985 -1.1717  1.3707
 5659TIP3    H238393   5.502   4.695   2.153 -1.5750  0.8523 -0.2517
 5660TIP3   OH238394   0.017   5.828   3.193 -0.2902  0.1136 -0.1434
 5660TIP3    H138395  -0.014   5.753   3.245 -0.8410  0.1546 -0.4058
 5660TIP3    H238396   0.031   5.792   3.105  1.3662 -0.1271  0.2005
 5661TIP3   OH238397   6.604   1.351  16.481  0.0600  0.3905  0.3310
 5661TIP3    H138398   6.666   1.406  16.530  1.3924 -0.2728 -0.5814
 5661TIP3    H238399   6.577   1.405  16.407  0.2389  0.3628  0.2428
 5662TIP3   OH238400   4.471   4.158  16.562  0.2860  0.1817  0.3362
 5662TIP3    H138401   4.457   4.110  16.480  0.6882  1.1517 -0.3093
 5662TIP3    H238402   4.411   4.118  16.624  0.7014 -1.2406 -0.1580
 5663TIP3   OH238403   5.652   1.197   4.819  1.3305 -0.7480  0.0962
 5663TIP3    H138404   5.589   1.124   4.813  0.2690  0.1645 -0.0668
 5663TIP3    H238405   5.624   1.246   4.896  1.1298  0.3078 -0.6323
 5664TIP3   OH238406   2.540   5.925   0.129 -0.4217 -0.5350  0.7271
 5664TIP3    H138407   2.519   5.870   0.054 -0.3487 -0.0391  0.3452
 5664TIP3    H238408   2.635   5.937   0.125 -0.5258  0.1728  0.4340
 5665TIP3   OH238409   5.278   4.063  11.861 -0.2346  0.0442 -0.1479
 5665TIP3    H138410   5.242   3.978  11.888  2.2143 -0.5020  1.5094
 5665TIP3    H238411   5.296   4.053  11.767 -1.3510 -0.7329 -0.2954
 5666TIP3   OH238412   4.955   1.298  17.121 -0.2191  0.3240  0.3518
 5666TIP3    H138413   4.885   1.361  17.134 -0.2558  0.0132  1.7131
 5666TIP3    H238414   4.982   1.273  17.209 -0.0490 -1.3900 -0.1697
 5667TIP3   OH238415   2.929   6.301  14.443  0.0536 -0.1507 -0.3025
 5667TIP3    H138416   2.958   6.222  14.398  0.9544  0.5605 -0.9939
 5667TIP3    H238417   3.008   6.338  14.481 -0.1751  0.9766 -0.8823
 5668TIP3   OH238418   0.573   5.786  16.298  0.1639  0.2058  0.0786
 5668TIP3    H138419   0.639   5.720  16.316 -2.4415 -2.7659 -0.8043
 5668TIP3    H238420   0.614   5.844  16.233  1.1986 -2.8159 -2.0757
 5669TIP3   OH238421   2.880   5.000  10.793 -0.4688  0.2765 -0.1435
 5669TIP3    H138422   2.887   5.095  10.803  2.2083  0.2249 -1.2487
 5669TIP3    H238423   2.942   4.965  10.858  0.4102 -0.6432 -1.4702
 5670TIP3   OH238424   1.076   3.205   4.651 -0.1607 -0.1711  0.4191
 5670TIP3    H138425   1.038   3.218   4.564  0.5990 -1.8940 -0.1923
 5670TIP3    H238426   1.075   3.110   4.665  1.6245 -0.0871  1.4062
 5671TIP3   OH238427   3.407   0.009   0.356 -0.1746 -0.0002  0.0124
 5671TIP3    H138428   3.498   0.026   0.330  0.7942 -0.1892  2.9946
 5671TIP3    H238429   3.374   0.094   0.383 -0.6994 -0.0321 -0.5377
 5672TIP3   OH238430   1.602   6.536  15.868  0.6710 -0.3536  0.3000
 5672TIP3    H138431   1.557   6.559  15.950  2.4745 -2.2885  1.8842
 5672TIP3    H238432   1.531   6.523  15.805 -0.7814  0.6148  1.6670
 5673TIP3   OH238433   0.670   2.618   2.158 -0.4528  0.3586 -0.0330
 5673TIP3    H138434   0.693   2.552   2.092 -0.7104  0.5297 -0.2969
 5673TIP3    H238435   0.609   2.676   2.112  0.1321  1.0472  0.0637
 5674TIP3   OH238436   1.122   6.046   3.430 -0.2939  0.0560  0.3169
 5674TIP3    H138437   1.037   6.003   3.445  0.2098 -0.6760  1.0824
 5674TIP3    H238438   1.150   6.012   3.345 -0.5143 -0.1199  0.3108
 5675TIP3   OH238439   6.642   5.218  11.317 -0.2328 -0.0883 -0.4340
 5675TIP3    H138440   6.559   5.189  11.278  0.7218 -0.6355 -2.1051
 5675TIP3    H238441   6.681   5.139  11.352  0.1018 -0.0221 -0.6558
 5676TIP3   OH238442   4.662   6.300   6.450 -0.0711 -1.0783  0.2742
 5676TIP3    H138443   4.666   6.249   6.531  0.1289 -2.0775 -0.3594
 5676TIP3    H238444   4.600   6.254   6.395 -2.2029  1.0282  0.7992
 5677TIP3   OH238445   0.540   2.377   0.101  0.4202 -0.5441 -0.3682
 5677TIP3    H138446   0.447   2.356   0.087 -0.0539  0.9287  0.4487
 5677TIP3    H238447   0.578   2.294   0.131 -0.5246 -1.2861 -1.1590
 5678TIP3   OH238448   5.058   0.269  12.025 -0.1080  0.4353 -0.6611
 5678TIP3    H138449   5.142   0.314  12.026 -0.2862  0.7611 -0.3945
 5678TIP3    H238450   5.012   0.302  12.102  0.9746 -2.4882  1.3060
 5679TIP3   OH238451   1.357   5.475   4.824  0.5049 -0.0842 -0.4103
 5679TIP3    H138452   1.298   5.400   4.815  0.8664 -0.2898 -1.0710
 5679TIP3    H238453   1.393   5.466   4.912  0.3114 -0.5120 -0.3713
 5680TIP3   OH238454   1.822   3.081   2.624  0.1362  0.7497 -0.3398
 5680TIP3    H138455   1.730   3.060   2.638 -0.4686  2.6837 -1.1925
 5680TIP3    H238456   1.821   3.143   2.551  2.2097 -0.0885 -1.1023
 5681TIP3   OH238457   3.538   0.596   5.183  0.0379  0.6960  0.4662
 5681TIP3    H138458   3.447   0.581   5.160 -0.1141 -1.9544  2.6028
 5681TIP3    H238459   3.588   0.558   5.111 -0.5291 -1.2068  1.0457
 5682TIP3   OH238460   4.238   5.488  16.402  0.5026  0.2134  0.8937
 5682TIP3    H138461   4.199   5.420  16.458 -0.7513 -0.9728 -1.3428
 5682TIP3    H238462   4.163   5.540  16.372  0.7194 -1.2549 -2.3645
 5683TIP3   OH238463   6.057   3.772  16.582 -0.3373 -0.0772 -0.2714
 5683TIP3    H138464   6.017   3.859  16.575 -1.3027 -0.5920 -1.3762
 5683TIP3    H238465   5.983   3.713  16.595  0.4351 -0.5947  1.8833
 5684TIP3   OH238466   5.153   4.417   6.128  0.5298  0.1529 -0.1276
 5684TIP3    H138467   5.196   4.362   6.062 -0.9208 -2.5395  1.0793
 5684TIP3    H238468   5.071   4.444   6.088  0.8918  0.7961 -0.4350
 5685TIP3   OH238469   3.279   4.002  14.370  0.3950 -0.1926 -0.0996
 5685TIP3    H138470   3.373   4.007  14.352  0.2665 -1.4763 -1.2198
 5685TIP3    H238471   3.251   4.093  14.380  2.0518  0.1370  1.8893
 5686TIP3   OH238472   1.383   0.384   4.967 -0.1176 -0.2740 -0.3904
 5686TIP3    H138473   1.439   0.339   4.904  0.6962  1.3933 -0.8917
 5686TIP3    H238474   1.432   0.463   4.991  0.3787 -1.6778  3.6400
 5687TIP3   OH238475   2.597   2.874   3.165 -0.0691  0.6902  0.1241
 5687TIP3    H138476   2.518   2.897   3.214 -0.5307 -1.6345  0.5448
 5687TIP3    H238477   2.564   2.844   3.080  0.3797 -0.0431  0.2106
 5688TIP3   OH238478   1.336   0.808  13.687 -0.7565 -0.0441 -0.1686
 5688TIP3    H138479   1.369   0.824  13.598  0.4073  1.9721  0.5953
 5688TIP3    H238480   1.386   0.731  13.716 -1.6176 -1.1293 -1.4714
 5689TIP3   OH238481   4.933   5.012  16.257  0.0186 -0.2579  0.0215
 5689TIP3    H138482   4.840   5.036  16.249 -0.0413 -1.1836 -2.3795
 5689TIP3    H238483   4.969   5.080  16.314 -2.0081  0.4369  0.5487
 5690TIP3   OH238484   6.694   5.992  15.094 -0.0533  0.3922 -0.5023
 5690TIP3    H138485   6.747   5.912  15.100 -0.6385  0.0120 -0.2847
 5690TIP3    H238486   6.613   5.970  15.141 -0.8078  0.6167 -1.6781
 5691TIP3   OH238487   2.685   3.168   0.284 -0.3217  0.0427 -0.4118
 5691TIP3    H138488   2.727   3.082   0.283 -3.1365 -1.4036  0.1445
 5691TIP3    H238489   2.591   3.149   0.290 -1.0054  3.1566 -0.2930
 5692TIP3   OH238490   3.372   0.370   5.700 -0.0254  0.6104 -0.0277
 5692TIP3    H138491   3.430   0.329   5.636 -1.0733 -1.7125  0.4549
 5692TIP3    H238492   3.431   0.397   5.771  0.7733  0.5528 -0.6565
 5693TIP3   OH238493   3.211   4.476  12.719 -0.2095  0.1617  0.0364
 5693TIP3    H138494   3.253   4.541  12.662  0.5033 -1.1748 -0.9731
 5693TIP3    H238495   3.273   4.466  12.792  1.0992 -1.5220 -1.2595
 5694TIP3   OH238496   5.460   2.646   3.635  0.1853 -0.3620  0.3138
 5694TIP3    H138497   5.455   2.577   3.701  1.0982 -0.5726  0.1702
 5694TIP3    H238498   5.543   2.631   3.590 -0.5440 -0.3683 -1.0566
 5695TIP3   OH238499   1.904   1.297  10.422  0.7243 -0.1899  0.4945
 5695TIP3    H138500   1.908   1.272  10.514 -0.6877 -0.2105  0.5673
 5695TIP3    H238501   1.811   1.294  10.401  1.1601 -1.6066 -1.3374
 5696TIP3   OH238502   2.950   3.914  14.376 -0.1530  0.0410  0.4969
 5696TIP3    H138503   2.882   3.972  14.411 -0.6032  0.0164 -0.3171
 5696TIP3    H238504   3.004   3.893  14.451 -1.1404 -0.0608  1.1977
 5697TIP3   OH238505   6.722   3.226   2.565  0.3944  0.2749  0.8482
 5697TIP3    H138506   6.731   3.291   2.634 -0.0428  0.2048  0.9674
 5697TIP3    H238507   6.632   3.236   2.534  0.3592 -0.2066  0.7992
 5698TIP3   OH238508   3.513   2.517  12.683  0.1231  0.3511  0.1633
 5698TIP3    H138509   3.474   2.445  12.634  0.0100  1.0084 -0.7264
 5698TIP3    H238510   3.442   2.581  12.692  0.5739  0.8944 -0.1406
 5699TIP3   OH238511   5.830   5.826  13.034  0.1782  0.1460 -0.1923
 5699TIP3    H138512   5.919   5.809  13.064 -0.4654  0.7348  2.1025
 5699TIP3    H238513   5.774   5.785  13.100 -1.2704  1.9583 -0.2714
 5700TIP3   OH238514   0.992   3.613  16.422  0.2548 -0.4945  0.2897
 5700TIP3    H138515   0.908   3.586  16.385  0.2452 -0.6243  0.4068
 5700TIP3    H238516   0.993   3.708  16.411 -1.3236 -0.0776  3.2059
 5701TIP3   OH238517   6.326   1.242   5.814  0.4114  0.0584 -0.0835
 5701TIP3    H138518   6.238   1.220   5.844  0.7789  1.2900  2.0411
 5701TIP3    H238519   6.315   1.322   5.763  0.2000 -0.1559 -0.3713
 5702TIP3   OH238520   1.123   1.996   3.652  0.1923 -0.0346 -0.1553
 5702TIP3    H138521   1.182   1.980   3.579  0.6745 -0.6769  0.3603
 5702TIP3    H238522   1.162   2.069   3.700  0.5219 -0.3902  0.1253
 5703TIP3   OH238523   5.115   6.706  12.121  0.4658  0.8259  0.0110
 5703TIP3    H138524   5.138   6.642  12.189  0.8287  1.8186  0.8308
 5703TIP3    H238525   5.188   6.767  12.120 -0.4797  1.9706  0.1453
 5704TIP3   OH238526   5.611   2.121  12.903  0.3526  0.1311  0.0305
 5704TIP3    H138527   5.686   2.093  12.956  0.0233  0.8666  0.8895
 5704TIP3    H238528   5.650   2.171  12.831  0.6923  0.5399  0.4917
 5705TIP3   OH238529   0.737   5.037  10.581  0.4244 -0.3731  0.3466
 5705TIP3    H138530   0.818   5.026  10.531  0.6903 -1.1031  0.9222
 5705TIP3    H238531   0.727   4.955  10.629 -0.4961 -0.1717  0.5248
 5706TIP3   OH238532   5.948   6.733  11.817  0.0265  0.0541  0.0528
 5706TIP3    H138533   5.940   6.647  11.859 -0.4601 -0.3773 -0.9245
 5706TIP3    H238534   5.923   6.718  11.726  0.6961  1.0735 -0.3095
 5707TIP3   OH238535   2.329   0.723  17.223  0.6191 -0.2801  0.2560
 5707TIP3    H138536   2.389   0.656  17.188  1.3853  0.4752  0.1204
 5707TIP3    H238537   2.330   0.793  17.157 -0.3763 -0.2339  0.2785
 5708TIP3   OH238538   0.939   6.064   0.604  0.0268 -0.3244  0.2678
 5708TIP3    H138539   0.940   6.143   0.550  1.8080 -0.4991  0.0323
 5708TIP3    H238540   0.949   6.095   0.694 -1.2207 -0.1626  0.3667
 5709TIP3   OH238541   0.618   5.839   0.470 -0.2816  0.1112  0.3228
 5709TIP3    H138542   0.662   5.869   0.391  0.1761 -0.2046  0.4575
 5709TIP3    H238543   0.611   5.918   0.524  2.0013 -0.2334  1.1834
 5710TIP3   OH238544   1.995   6.061   4.227  0.6669  0.0861  0.7074
 5710TIP3    H138545   2.010   6.099   4.314  0.1298  2.4418 -0.2005
 5710TIP3    H238546   1.900   6.057   4.219  0.7092 -1.8471  0.9253
 5711TIP3   OH238547   3.575   3.214   1.220  0.0814 -0.4835 -0.0770
 5711TIP3    H138548   3.543   3.161   1.147  1.8019 -1.7988  0.1092
 5711TIP3    H238549   3.508   3.282   1.232 -0.8075 -0.9988 -2.0662
 5712TIP3   OH238550   4.616   4.356   6.152 -0.2376 -0.0613 -0.3546
 5712TIP3    H138551   4.521   4.362   6.166  0.0043  1.3254  0.7173
 5712TIP3    H238552   4.638   4.433   6.100  0.2256 -0.6979 -1.1246
 5713TIP3   OH238553   6.322   3.411  11.178 -0.1033  0.4369 -0.8296
 5713TIP3    H138554   6.352   3.328  11.139  0.8822  0.2292  0.3439
 5713TIP3    H238555   6.254   3.442  11.117 -0.3830 -1.1478 -1.3750
 5714TIP3   OH238556   5.344   5.927  10.722 -0.0735  0.4238 -0.9955
 5714TIP3    H138557   5.375   5.979  10.796 -0.5317  0.6103 -0.9321
 5714TIP3    H238558   5.384   5.841  10.734  0.3697  0.6415 -0.8824
 5715TIP3   OH238559   5.349   5.677  14.106 -0.3395  0.4933 -0.2675
 5715TIP3    H138560   5.304   5.740  14.050  0.0116  0.1933 -0.8922
 5715TIP3    H238561   5.286   5.606  14.119  0.0482 -0.0895 -1.4242
 5716TIP3   OH238562   6.684   3.877  13.874  0.6479 -0.3508  0.1051
 5716TIP3    H138563   6.612   3.915  13.823  0.6204  0.8572  1.0286
 5716TIP3    H238564   6.642   3.842  13.952  0.9246 -0.6047  0.1399
 5717TIP3   OH238565   1.274   1.866  14.459 -0.1554  0.1593 -0.1772
 5717TIP3    H138566   1.331   1.799  14.419 -0.7304  0.1537 -1.0059
 5717TIP3    H238567   1.310   1.949  14.427 -0.2884  0.1797 -0.2743
 5718TIP3   OH238568   0.088   6.691   2.187  0.3430  0.1455  0.1853
 5718TIP3    H138569   0.015   6.710   2.127 -0.6807 -1.3070  0.9231
 5718TIP3    H238570   0.078   6.756   2.257 -0.5983 -0.3891  0.5662
 5719TIP3   OH238571   0.520   6.698  15.436 -0.3940  0.0252 -0.2658
 5719TIP3    H138572   0.569   6.780  15.445  0.3932 -0.5333  0.5667
 5719TIP3    H238573   0.572   6.646  15.374 -0.6952  0.0058 -0.5029
 5720TIP3   OH238574   2.838   3.278  14.206  0.0156 -0.4258  0.1270
 5720TIP3    H138575   2.846   3.373  14.208 -0.5632 -0.3513 -0.7063
 5720TIP3    H238576   2.898   3.251  14.136 -0.9719 -0.5410 -0.6796
 5721TIP3   OH238577   4.866   3.460   5.293  0.2046 -0.4733 -0.0198
 5721TIP3    H138578   4.851   3.440   5.386  0.9063  0.5580  0.3234
 5721TIP3    H238579   4.835   3.382   5.247  0.5010 -1.2855  1.1247
 5722TIP3   OH238580   5.978   0.435   2.234 -0.3334  0.6667 -0.2012
 5722TIP3    H138581   5.882   0.440   2.239 -0.4454 -1.2846 -0.2105
 5722TIP3    H238582   5.995   0.400   2.147  0.5764  4.8523 -1.8513
 5723TIP3   OH238583   6.575   3.766   0.962  0.0578  0.2802 -0.4583
 5723TIP3    H138584   6.520   3.843   0.947 -0.1418  0.2984  0.3507
 5723TIP3    H238585   6.660   3.790   0.925 -0.1978  0.6324 -0.8185
 5724TIP3   OH238586   0.064   4.354  13.220  0.6280  0.2169 -0.0605
 5724TIP3    H138587  -0.014   4.334  13.271  1.0877 -0.6543  0.2998
 5724TIP3    H238588   0.034   4.418  13.155 -0.3595 -0.0358  0.1435
 5725TIP3   OH238589   2.563   0.417  12.630  0.0668  0.2561  0.0634
 5725TIP3    H138590   2.635   0.456  12.681  0.3945  0.4965 -0.5802
 5725TIP3    H238591   2.586   0.434  12.539  2.0223 -4.5818 -0.4754
 5726TIP3   OH238592   5.279   5.872   6.145  0.1606  0.4092 -0.2121
 5726TIP3    H138593   5.240   5.810   6.207  0.8170  1.4388  1.2623
 5726TIP3    H238594   5.285   5.823   6.063 -1.8731 -0.5869  0.1949
 5727TIP3   OH238595   2.563   2.289  16.911 -0.5679 -0.1864  0.3533
 5727TIP3    H138596   2.507   2.367  16.906  0.7715  0.7011 -1.5643
 5727TIP3    H238597   2.550   2.245  16.827  0.1631 -0.9923  0.6586
 5728TIP3   OH238598   5.004   1.348   1.292 -0.0775  0.0488 -0.3717
 5728TIP3    H138599   4.964   1.431   1.267  1.0129  0.4614 -0.7939
 5728TIP3    H238600   5.009   1.352   1.388 -1.6932 -0.3287 -0.2612
 5729TIP3   OH238601   6.032   2.860  15.552  0.0324  0.3346 -0.3592
 5729TIP3    H138602   5.946   2.834  15.519 -1.1389  2.7703  0.6359
 5729TIP3    H238603   6.071   2.910  15.480 -0.7205  1.9507  0.3484
 5730TIP3   OH238604   4.970   2.614   5.625  0.0376  0.4528  0.3466
 5730TIP3    H138605   5.007   2.530   5.596 -0.3811 -0.3575  2.0551
 5730TIP3    H238606   4.955   2.601   5.719 -1.3068  1.9805  0.3469
 5731TIP3   OH238607   1.639   3.443  12.259 -0.3523 -0.3972  0.3557
 5731TIP3    H138608   1.571   3.480  12.315 -1.6234 -0.2388 -1.2392
 5731TIP3    H238609   1.624   3.349  12.261 -0.8820 -0.3333 -0.2983
 5732TIP3   OH238610   1.332   3.095   2.016  0.3766  0.3100 -0.2031
 5732TIP3    H138611   1.305   3.036   1.946  1.5472  0.0496 -0.4399
 5732TIP3    H238612   1.360   3.036   2.087  1.4964  0.5756 -0.4217
 5733TIP3   OH238613   0.637   6.259  15.266 -0.1429  0.1145  0.3541
 5733TIP3    H138614   0.640   6.291  15.356  0.3038  0.0653  0.3578
 5733TIP3    H238615   0.593   6.174  15.272  0.2103 -0.0519  0.5740
 5734TIP3   OH238616   1.228   4.375  11.433  0.6433 -0.5494 -0.3583
 5734TIP3    H138617   1.247   4.296  11.484  1.2300 -0.0378  0.2330
 5734TIP3    H238618   1.309   4.426  11.439 -0.4256  1.0427  1.0170
 5735TIP3   OH238619   2.222   2.575   5.328  0.1519  0.4439 -0.2308
 5735TIP3    H138620   2.147   2.629   5.353  0.9700  0.8834  1.3966
 5735TIP3    H238621   2.263   2.622   5.255 -0.8946  0.4342 -0.8200
 5736TIP3   OH238622   1.932   4.895  16.877 -0.0078  0.1139 -0.4697
 5736TIP3    H138623   2.013   4.870  16.832  0.5287  0.6341  0.1809
 5736TIP3    H238624   1.892   4.812  16.902 -0.2039 -0.1750 -1.6989
 5737TIP3   OH238625   3.703   5.912   0.290  0.4551  0.9584  0.1245
 5737TIP3    H138626   3.665   5.851   0.227 -1.6726  1.3228  1.0015
 5737TIP3    H238627   3.790   5.876   0.309 -0.7722 -1.8676  0.6876
 5738TIP3   OH238628   6.640   5.585   4.007 -0.4148  0.5005 -0.3714
 5738TIP3    H138629   6.592   5.504   4.023 -1.2843  0.7011 -1.8720
 5738TIP3    H238630   6.730   5.566   4.031 -1.1234 -0.0441  2.0445
 5739TIP3   OH238631   2.293   4.365   4.963  0.3194 -0.3120 -0.1791
 5739TIP3    H138632   2.377   4.336   4.999  0.5938  1.1020  0.3470
 5739TIP3    H238633   2.255   4.418   5.032 -1.4048 -1.6200 -0.0973
 5740TIP3   OH238634   0.981   1.414  12.628 -0.1187 -0.0428  0.4858
 5740TIP3    H138635   0.972   1.425  12.533  0.9326 -0.5442  0.3124
 5740TIP3    H238636   0.917   1.474  12.666  0.3208  1.0874 -0.5304
 5741TIP3   OH238637   0.354   0.055   4.833 -0.3245  0.3745 -0.0717
 5741TIP3    H138638   0.339  -0.013   4.899 -0.3547 -0.5805 -1.0568
 5741TIP3    H238639   0.444   0.084   4.850 -0.7032  0.9134  1.0862
 5742TIP3   OH238640   3.137   4.548  14.744 -0.5619  0.2161  0.2476
 5742TIP3    H138641   3.150   4.641  14.763  0.6608 -0.1837  1.4334
 5742TIP3    H238642   3.203   4.503  14.796  0.2941 -1.1998 -1.9898
 5743TIP3   OH238643   2.468   0.801  10.730  0.0642 -0.4282  0.0589
 5743TIP3    H138644   2.468   0.788  10.636 -0.2437  2.5156 -0.3841
 5743TIP3    H238645   2.375   0.812  10.753  0.2244  0.0096  0.5254
 5744TIP3   OH238646   0.781   2.923  15.153 -0.4745  0.3505 -0.2638
 5744TIP3    H138647   0.862   2.901  15.109 -0.2607  0.0653  0.2627
 5744TIP3    H238648   0.738   2.839  15.168 -0.8944  0.5040 -0.5916
 5745TIP3   OH238649   6.628   2.100  15.102 -0.3517 -0.0227 -0.2200
 5745TIP3    H138650   6.720   2.106  15.076  0.5867  0.5618  3.0766
 5745TIP3    H238651   6.596   2.190  15.098 -0.5682 -0.1145 -0.5836
 5746TIP3   OH238652   4.752   1.478  11.777 -0.6732  0.4206 -0.3771
 5746TIP3    H138653   4.814   1.411  11.806 -1.4553  0.0215  0.4110
 5746TIP3    H238654   4.806   1.548  11.742  0.1878 -0.2810 -0.4502
 5747TIP3   OH238655   5.192   5.059  12.852 -0.0911 -0.3171  0.1592
 5747TIP3    H138656   5.219   5.064  12.761 -0.4009 -1.6806 -0.0317
 5747TIP3    H238657   5.127   5.128  12.862  1.7835  1.5093  0.0361
 5748TIP3   OH238658   5.876   0.588   0.817 -0.1681 -0.0684 -0.5810
 5748TIP3    H138659   5.943   0.535   0.774  0.3837 -0.6754  1.0185
 5748TIP3    H238660   5.925   0.659   0.859 -0.5646 -0.2363  0.1726
 5749TIP3   OH238661   0.274   3.284  14.493 -0.3341 -0.3271 -0.0961
 5749TIP3    H138662   0.239   3.349  14.433 -0.6361 -0.9514 -0.6000
 5749TIP3    H238663   0.249   3.200  14.455 -1.2199 -0.7151  1.3216
 5750TIP3   OH238664   4.261   5.309   5.370 -0.5020 -0.0580 -0.2608
 5750TIP3    H138665   4.278   5.221   5.403  3.7120  0.0704 -1.7869
 5750TIP3    H238666   4.254   5.299   5.276  1.3737  1.3853 -0.5845
 5751TIP3   OH238667   4.712   3.581   0.527  0.5472  0.3553 -0.3013
 5751TIP3    H138668   4.790   3.600   0.578  0.7068 -0.9423 -0.0453
 5751TIP3    H238669   4.639   3.595   0.588  0.7433 -1.3210  0.3522
 5752TIP3   OH238670   5.426   2.861   0.343  0.0285 -0.3286  0.0770
 5752TIP3    H138671   5.428   2.880   0.437 -1.5756 -0.4898  0.1710
 5752TIP3    H238672   5.507   2.898   0.308  0.0295  0.8607  1.3105
 5753TIP3   OH238673   4.758   4.556   2.513 -0.6657 -0.0361 -0.4323
 5753TIP3    H138674   4.719   4.475   2.546  0.2905 -1.1918 -2.0633
 5753TIP3    H238675   4.839   4.565   2.563 -1.3630  0.5802  0.6058
 5754TIP3   OH238676   1.288   4.872  15.844 -0.2563 -0.5376 -0.6487
 5754TIP3    H138677   1.352   4.942  15.839 -0.0773 -0.6969 -0.5797
 5754TIP3    H238678   1.203   4.917  15.838 -0.1592 -0.2476  0.0377
 5755TIP3   OH238679   3.893   3.063  17.023 -0.0551 -0.3739 -0.5766
 5755TIP3    H138680   3.981   3.097  17.042 -0.8786 -0.0894  3.2582
 5755TIP3    H238681   3.907   2.993  16.960  2.7868  0.5266 -1.0044
 5756TIP3   OH238682   2.692   1.385  14.556  0.0784  0.6181 -0.0732
 5756TIP3    H138683   2.693   1.290  14.571 -1.4709  0.7237  0.7574
 5756TIP3    H238684   2.759   1.420  14.614  0.7225  0.0196 -0.4554
 5757TIP3   OH238685   6.124   0.596   6.132 -0.5392 -0.1219 -0.2743
 5757TIP3    H138686   6.072   0.676   6.144  0.4899  0.6355 -0.8097
 5757TIP3    H238687   6.060   0.530   6.105 -1.6226  0.1621  1.4840
 5758TIP3   OH238688   4.679   6.731   4.398 -0.4480  0.0745  0.1350
 5758TIP3    H138689   4.770   6.747   4.422 -0.6412 -0.6512  1.4012
 5758TIP3    H238690   4.675   6.749   4.304  0.8658  0.6693  0.1875
 5759TIP3   OH238691   3.165   4.109   5.976 -0.4014  0.2045  0.4112
 5759TIP3    H138692   3.121   4.141   5.897 -2.3373  0.4682  1.5597
 5759TIP3    H238693   3.174   4.015   5.961  0.3489  0.4337 -0.6383
 5760TIP3   OH238694   1.980   2.416  13.862  0.4648 -0.8131  0.1280
 5760TIP3    H138695   1.932   2.347  13.816  0.7365 -1.0571  0.2107
 5760TIP3    H238696   1.913   2.462  13.912  0.2652 -0.9452 -0.0144
 5761TIP3   OH238697   1.442   4.679   0.353 -0.1200 -0.4429  0.1665
 5761TIP3    H138698   1.492   4.664   0.433  0.7967  1.7993  0.0473
 5761TIP3    H238699   1.504   4.661   0.282  0.0811  0.8705  0.0022
 5762TIP3   OH238700   4.489   0.598  13.622  0.1799 -0.4149 -0.2037
 5762TIP3    H138701   4.423   0.657  13.658  0.2384 -0.8465  0.6227
 5762TIP3    H238702   4.551   0.585  13.694  0.8058 -0.5410 -0.7621
 5763TIP3   OH238703   6.704   3.575  12.710 -0.2306  0.0667 -0.1742
 5763TIP3    H138704   6.637   3.519  12.672 -0.0114 -1.3306  1.4201
 5763TIP3    H238705   6.754   3.516  12.767 -0.7410  2.0923  2.4827
 5764TIP3   OH238706   6.469   1.991   6.557 -0.3146  0.3628  0.0108
 5764TIP3    H138707   6.527   1.938   6.612 -1.3017 -1.2453 -0.4702
 5764TIP3    H238708   6.395   2.012   6.614 -0.7006 -0.1696 -0.2910
 5765TIP3   OH238709   3.573   4.841  14.152 -0.8397 -0.0371  0.0160
 5765TIP3    H138710   3.664   4.812  14.139 -0.8362 -0.0082 -0.0228
 5765TIP3    H238711   3.580   4.935  14.166 -0.6837 -0.3079  1.8762
 5766TIP3   OH238712   0.096   0.766   4.696  0.4946  0.3182 -0.0273
 5766TIP3    H138713   0.087   0.697   4.630 -2.0125  0.6084 -0.0389
 5766TIP3    H238714   0.120   0.719   4.776 -1.0753 -0.6051 -0.0662
 5767TIP3   OH238715   1.922   6.430  15.625  0.2516 -0.2472  0.2120
 5767TIP3    H138716   1.858   6.387  15.568  0.3037  1.5631 -1.2423
 5767TIP3    H238717   1.963   6.358  15.673  0.0935 -1.7955 -1.9024
 5768TIP3   OH238718   4.698   4.294   2.561 -0.5032 -0.2813  0.1638
 5768TIP3    H138719   4.614   4.254   2.538  0.3150 -1.2085 -1.2869
 5768TIP3    H238720   4.733   4.238   2.630 -0.2505 -0.9720 -0.5151
 5769TIP3   OH238721   0.592   2.115   4.454  0.0092  0.3868 -0.3993
 5769TIP3    H138722   0.600   2.200   4.496  2.7212 -0.4861  0.9324
 5769TIP3    H238723   0.600   2.133   4.360  0.2774  1.6137 -0.1426
 5770TIP3   OH238724   3.475   1.126  13.580  0.0626  0.1394  0.0820
 5770TIP3    H138725   3.440   1.081  13.503  1.2682  0.6684 -0.7713
 5770TIP3    H238726   3.398   1.141  13.635 -0.8039 -0.2511 -1.0046
 5771TIP3   OH238727   5.507   6.354   0.945 -0.4822 -0.5144  0.2511
 5771TIP3    H138728   5.461   6.389   0.868  0.4812 -0.3883 -0.2860
 5771TIP3    H238729   5.446   6.367   1.018 -2.2388 -2.4613 -0.8132
 5772TIP3   OH238730   6.677   2.641   1.562 -0.2106 -0.3615 -0.3914
 5772TIP3    H138731   6.704   2.719   1.513 -0.0696 -1.7928 -2.6720
 5772TIP3    H238732   6.752   2.581   1.556 -1.4737 -1.8884 -1.3752
 5773TIP3   OH238733   0.207   3.338  11.433  0.4836  0.5684 -0.0529
 5773TIP3    H138734   0.119   3.353  11.469  0.2198  2.8592 -1.5142
 5773TIP3    H238735   0.265   3.389  11.489  0.8377 -0.6374  0.6830
 5774TIP3   OH238736   3.875   0.942  15.026 -0.0251  0.2589  0.2740
 5774TIP3    H138737   3.942   1.010  15.030  0.7219 -0.5301  1.3899
 5774TIP3    H238738   3.889   0.899  14.942  0.9723 -0.0037  0.5718
 5775TIP3   OH238739   1.684   2.741  14.952  0.1344  0.2619  0.0133
 5775TIP3    H138740   1.670   2.778  14.865 -1.1685  0.8684  0.4564
 5775TIP3    H238741   1.613   2.677  14.962 -0.4764  1.0819  1.0863
 5776TIP3   OH238742   1.908   2.508   0.106 -0.2661 -0.2993 -0.4651
 5776TIP3    H138743   1.904   2.475   0.196  1.3196  0.6436 -0.0267
 5776TIP3    H238744   1.817   2.528   0.083 -0.5751  0.4146  1.3117
 5777TIP3   OH238745   1.314   6.396   3.006 -0.4303 -0.2442 -0.5563
 5777TIP3    H138746   1.342   6.310   2.974  1.2557 -0.4518  1.3801
 5777TIP3    H238747   1.358   6.458   2.948  2.0404 -0.6346  0.8207
 5778TIP3   OH238748   5.588   3.154  17.100  0.6938  0.1784 -0.2179
 5778TIP3    H138749   5.624   3.143  17.013  0.1370 -1.6954 -0.2457
 5778TIP3    H238750   5.561   3.246  17.104  1.5077  0.4936 -1.7013
 5779TIP3   OH238751   4.382   3.476  12.132  0.6822 -0.3638 -0.5982
 5779TIP3    H138752   4.470   3.510  12.147  0.2444 -0.0234  1.3651
 5779TIP3    H238753   4.390   3.382  12.146  0.0902  0.0470  3.0587
 5780TIP3   OH238754   2.251   0.998  13.412  0.3025  0.2610 -0.2055
 5780TIP3    H138755   2.326   1.056  13.426  0.8415 -0.4875 -0.0195
 5780TIP3    H238756   2.176   1.049  13.446  1.0602  0.0270  1.8948
 5781TIP3   OH238757   6.709   4.041   1.336  0.3606 -0.0433  0.1421
 5781TIP3    H138758   6.657   4.111   1.298 -0.6847 -0.5661  0.5773
 5781TIP3    H238759   6.671   3.960   1.301  1.7130 -0.3980 -0.5549
 5782TIP3   OH238760   4.180   0.454  12.880 -0.0401  0.4660 -0.0927
 5782TIP3    H138761   4.136   0.519  12.934 -1.8404  0.2559 -1.2618
 5782TIP3    H238762   4.111   0.394  12.853  1.3957 -1.2834  0.0050
 5783TIP3   OH238763   4.471   5.836   3.639  0.0616  0.0016 -0.1578
 5783TIP3    H138764   4.400   5.847   3.576  0.5731 -0.8092 -0.8942
 5783TIP3    H238765   4.445   5.888   3.714 -1.2418 -0.1602 -0.4835
 5784TIP3   OH238766   1.959   0.956   0.238  0.8491  0.3543  0.0662
 5784TIP3    H138767   1.864   0.958   0.236  0.8044  0.8404  1.7380
 5784TIP3    H238768   1.985   1.047   0.223  1.1377 -0.1558 -2.7519
 5785TIP3   OH238769   2.599   2.709  13.208 -0.0791  0.1815  0.3741
 5785TIP3    H138770   2.538   2.712  13.282 -1.0108  0.3049 -0.3919
 5785TIP3    H238771   2.614   2.801  13.187  2.1354  0.2306  1.9752
 5786TIP3   OH238772   6.260   4.306  14.216  0.2966 -0.0498 -0.3925
 5786TIP3    H138773   6.238   4.277  14.128  2.4193 -0.9071 -0.6664
 5786TIP3    H238774   6.317   4.382  14.203 -0.9390  1.0318  0.2859
 5787TIP3   OH238775   3.798   1.426  15.710 -0.0046 -0.1935  0.0290
 5787TIP3    H138776   3.801   1.456  15.801 -1.5728 -0.1929  0.0967
 5787TIP3    H238777   3.825   1.503  15.658 -0.4079  0.2036  0.4113
 5788TIP3   OH238778   4.714   2.057   0.923 -0.5820 -0.0116  0.4379
 5788TIP3    H138779   4.675   2.083   1.006  0.0449  3.3252 -0.2228
 5788TIP3    H238780   4.677   2.119   0.859  0.0442 -1.5834 -1.5130
 5789TIP3   OH238781   5.344   5.504   6.107  0.4477 -0.0919 -0.2552
 5789TIP3    H138782   5.422   5.449   6.107 -0.8518 -1.9734  0.1899
 5789TIP3    H238783   5.298   5.480   6.026  0.9544  1.9852 -1.2162
 5790TIP3   OH238784   2.714   1.898   5.649  0.6732 -0.0554 -0.1780
 5790TIP3    H138785   2.799   1.859   5.626  0.9441  1.1949 -1.3647
 5790TIP3    H238786   2.737   1.978   5.696  0.1497  0.0831 -0.1550
 5791TIP3   OH238787   4.979   4.853   1.712  0.7084 -0.2281  0.5964
 5791TIP3    H138788   5.066   4.876   1.680  1.0794 -1.8044  0.4176
 5791TIP3    H238789   4.920   4.881   1.642  1.3119 -1.4446 -0.4329
 5792TIP3   OH238790   1.911   0.853   2.419 -0.0477  0.2211  0.5835
 5792TIP3    H138791   1.855   0.930   2.413  0.8711  0.9184  0.8063
 5792TIP3    H238792   1.856   0.786   2.459 -0.6013  1.0050  1.1445
 5793TIP3   OH238793   5.604   5.414  12.806 -0.4352  0.7875  0.5307
 5793TIP3    H138794   5.569   5.498  12.835 -0.1205  1.2680 -0.4521
 5793TIP3    H238795   5.563   5.399  12.720 -0.6993 -0.1934  0.8218
 5794TIP3   OH238796   2.791   4.474   3.723  0.1939  0.0792  0.4432
 5794TIP3    H138797   2.816   4.448   3.812  0.7451  0.2836  0.3475
 5794TIP3    H238798   2.701   4.505   3.732  0.7400  1.4560  1.1872
 5795TIP3   OH238799   0.053   2.282   3.644  0.1252  0.1475 -0.3738
 5795TIP3    H138800  -0.021   2.341   3.659  0.1106 -0.2163  1.0041
 5795TIP3    H238801   0.125   2.339   3.620  0.4119  0.8346  2.0602
 5796TIP3   OH238802   1.919   3.858  13.403  0.4266 -0.2096 -0.4060
 5796TIP3    H138803   1.832   3.830  13.431  0.2896  0.9931  0.3814
 5796TIP3    H238804   1.979   3.812  13.462  0.3253 -0.8092 -0.7597
 5797TIP3   OH238805   0.623   6.734  12.062  0.2535 -0.7809 -0.4421
 5797TIP3    H138806   0.575   6.732  11.979  0.6671  0.6887 -0.7281
 5797TIP3    H238807   0.637   6.827  12.080  3.0131 -1.1710 -0.3855
 5798TIP3   OH238808   2.753   4.079  13.734  0.7174 -0.2956 -0.5307
 5798TIP3    H138809   2.679   4.040  13.687  1.7219 -1.3786 -1.2570
 5798TIP3    H238810   2.797   4.004  13.774  1.6140  0.3051 -0.3832
 5799TIP3   OH238811   2.667   2.132   0.490 -0.5816  0.0041 -0.2026
 5799TIP3    H138812   2.762   2.135   0.502 -0.6207  0.8430 -0.0432
 5799TIP3    H238813   2.632   2.106   0.576 -0.5150  0.0225 -0.1703
 5800TIP3   OH238814   0.586   3.593  11.727 -0.0244  0.5935 -0.6006
 5800TIP3    H138815   0.630   3.651  11.665  0.4168  0.5713 -0.3107
 5800TIP3    H238816   0.538   3.651  11.785  1.7975  0.7748  0.7580
 5801TIP3   OH238817   0.850   6.390   2.548  0.1773 -0.1740 -0.0711
 5801TIP3    H138818   0.917   6.443   2.591  1.8205 -0.2813 -2.3794
 5801TIP3    H238819   0.856   6.415   2.456 -1.9544 -1.2927 -0.5319
 5802TIP3   OH238820   1.843   1.928  15.331  0.6224  0.3538 -0.1907
 5802TIP3    H138821   1.770   1.902  15.274  2.3606  2.2736 -3.4470
 5802TIP3    H238822   1.802   1.952  15.414 -2.0115 -2.5301 -0.5532
 5803TIP3   OH238823   2.092   5.581  14.447 -0.0313  0.4149  0.3856
 5803TIP3    H138824   2.097   5.606  14.539 -0.3490  0.9194  0.2692
 5803TIP3    H238825   2.085   5.664  14.400 -0.6344  0.1295 -0.0354
 5804TIP3   OH238826   6.096   0.390  14.080 -0.3884 -0.4603  0.1954
 5804TIP3    H138827   6.038   0.323  14.116 -0.0790 -0.7183  0.2182
 5804TIP3    H238828   6.093   0.461  14.144 -0.0697 -0.7968  0.5849
 5805TIP3   OH238829   6.497   3.098   0.276 -0.8847 -0.1633  0.2201
 5805TIP3    H138830   6.477   3.129   0.187 -0.1902 -0.8959 -0.2012
 5805TIP3    H238831   6.445   3.019   0.286 -0.0033 -0.7690 -0.0003
 5806TIP3   OH238832   1.243   4.995   3.674 -0.2146 -0.0379 -0.3332
 5806TIP3    H138833   1.160   5.006   3.721 -0.1177  0.8379 -0.3611
 5806TIP3    H238834   1.287   4.922   3.720 -0.7727 -0.1707 -0.0045
 5807TIP3   OH238835   3.498   1.511   3.014 -0.0428 -0.3342 -0.3009
 5807TIP3    H138836   3.486   1.603   3.034 -0.3884  0.0334 -2.0920
 5807TIP3    H238837   3.477   1.465   3.095 -0.9125  1.0910  0.2930
 5808TIP3   OH238838   0.861   6.459  11.921  0.0394 -0.3515 -0.1098
 5808TIP3    H138839   0.926   6.505  11.974  0.0759 -0.6913  0.1454
 5808TIP3    H238840   0.821   6.396  11.982 -0.8752  0.1986 -0.1304
 5809TIP3   OH238841   2.782   0.185   1.003  0.7901 -0.4943 -0.3239
 5809TIP3    H138842   2.791   0.257   1.065 -1.1189 -0.7852  0.3113
 5809TIP3    H238843   2.850   0.123   1.028 -1.6135 -1.8506  3.2035
 5810TIP3   OH238844   3.902   5.708   4.435  0.1161 -0.0589 -0.0846
 5810TIP3    H138845   3.847   5.685   4.360  1.4912  0.2228 -1.2058
 5810TIP3    H238846   3.884   5.801   4.451  0.9209  0.2705 -1.0321
 5811TIP3   OH238847   5.178   2.809   3.942 -0.6756 -0.3052  0.6279
 5811TIP3    H138848   5.090   2.780   3.965  0.0221 -1.8808  1.4062
 5811TIP3    H238849   5.217   2.837   4.025 -0.1537 -0.4519  0.4341
 5812TIP3   OH238850   1.370   6.328  11.467 -0.1329  0.9445  0.9029
 5812TIP3    H138851   1.312   6.252  11.462  0.4912  0.5029  0.2406
 5812TIP3    H238852   1.313   6.403  11.450 -0.1885  0.3701 -1.6707
 5813TIP3   OH238853   3.377   0.647  16.275 -0.1078  0.1612  0.2408
 5813TIP3    H138854   3.458   0.660  16.323 -0.2830  0.4263  0.4661
 5813TIP3    H238855   3.404   0.611  16.191  0.2735  0.6230  0.1640
 5814TIP3   OH238856   1.999   0.754  16.505  0.3472  0.1879  0.5268
 5814TIP3    H138857   1.962   0.765  16.592  2.3654 -2.8063  1.8229
 5814TIP3    H238858   2.090   0.782  16.513  0.0880  1.6312 -1.1127
 5815TIP3   OH238859   4.662   6.474  14.206 -0.3598 -0.2149 -0.3684
 5815TIP3    H138860   4.679   6.509  14.294 -1.4709 -0.4374 -0.0532
 5815TIP3    H238861   4.730   6.409  14.192 -2.9372 -3.6625  2.3067
 5816TIP3   OH238862   1.732   4.652   3.223 -0.1609 -0.4524 -0.1974
 5816TIP3    H138863   1.707   4.737   3.259  0.9569  0.2698 -1.0794
 5816TIP3    H238864   1.659   4.595   3.243 -1.5123  1.0504 -0.7560
 5817TIP3   OH238865   0.485   1.847  15.239  0.2117 -0.3927 -0.2474
 5817TIP3    H138866   0.463   1.862  15.331  1.7629 -0.4998  0.1562
 5817TIP3    H238867   0.434   1.770  15.213  2.2792 -2.4157  1.4954
 5818TIP3   OH238868   1.263   3.281  17.199 -0.1523 -0.0844  0.8718
 5818TIP3    H138869   1.220   3.366  17.201 -0.0482 -0.0269  0.5856
 5818TIP3    H238870   1.295   3.269  17.289 -1.5643 -0.5443  1.3177
 5819TIP3   OH238871   2.940   2.382  14.432  0.2084  0.1657 -0.1856
 5819TIP3    H138872   2.880   2.437  14.482 -0.7655 -1.4639  0.4479
 5819TIP3    H238873   2.889   2.304  14.410  1.4358 -0.2989 -1.4723
 5820TIP3   OH238874   4.287   1.275   3.129  0.1509  0.0330 -0.4835
 5820TIP3    H138875   4.377   1.243   3.125 -0.1735 -0.7362 -2.2876
 5820TIP3    H238876   4.283   1.327   3.209  2.9798  2.3643 -1.7557
 5821TIP3   OH238877   5.964   2.078   1.617 -0.0956 -0.1832  0.2589
 5821TIP3    H138878   6.033   2.141   1.638 -1.1468  0.9334  0.3831
 5821TIP3    H238879   6.011   1.998   1.594  1.2252  0.3325  1.1094
 5822TIP3   OH238880   2.680   1.925   0.719 -0.8661 -0.6253  0.3406
 5822TIP3    H138881   2.594   1.912   0.759 -1.0472  0.7683  0.4475
 5822TIP3    H238882   2.708   1.838   0.692 -2.1929 -1.1230  0.5499
 5823TIP3   OH238883   6.390   5.286  13.643  0.6190 -0.0701  0.9117
 5823TIP3    H138884   6.429   5.352  13.701 -1.4109  1.3691  0.6735
 5823TIP3    H238885   6.339   5.230  13.702  3.7450 -2.6140  1.3816
 5824TIP3   OH238886   4.426   1.873   1.987  0.3045  0.2778 -0.4648
 5824TIP3    H138887   4.431   1.850   2.080  0.6495  1.7239 -0.1084
 5824TIP3    H238888   4.430   1.969   1.986 -0.4272  0.3093 -1.9226
 5825TIP3   OH238889   4.521   6.402   0.919 -0.6803  0.0187 -0.2136
 5825TIP3    H138890   4.592   6.466   0.919 -0.1588 -0.5388 -1.5474
 5825TIP3    H238891   4.544   6.341   0.990 -0.4707  0.5256  0.1587
 5826TIP3   OH238892   0.580   1.017  11.308 -0.0282  0.5117 -0.4359
 5826TIP3    H138893   0.571   1.026  11.213 -0.9478  0.1500 -0.3889
 5826TIP3    H238894   0.651   0.953  11.319  0.5843  1.1081 -0.8658
 5827TIP3   OH238895   1.461   3.781  11.022 -0.2690  0.1971 -0.4266
 5827TIP3    H138896   1.515   3.761  10.945  1.5128 -0.4807  0.9728
 5827TIP3    H238897   1.444   3.875  11.016  3.0733  0.8989  0.3374
 5828TIP3   OH238898   2.873   0.953  13.772 -0.0071 -0.4575 -0.5377
 5828TIP3    H138899   2.923   0.917  13.845 -1.3083  1.0475  1.1213
 5828TIP3    H238900   2.934   0.952  13.699  2.3043  0.8643  1.3079
 5829TIP3   OH238901   1.440   2.435   2.430  0.5231 -0.0542 -0.2189
 5829TIP3    H138902   1.461   2.395   2.515 -1.5288 -0.7288  0.0094
 5829TIP3    H238903   1.345   2.424   2.422  0.3327  2.1986 -1.4976
 5830TIP3   OH238904   6.536   1.936  16.874 -0.1800 -0.3175  0.0238
 5830TIP3    H138905   6.547   2.012  16.817 -1.5279  0.1386  0.3577
 5830TIP3    H238906   6.519   1.863  16.815 -0.2313 -0.1059 -0.2217
 5831TIP3   OH238907   3.880   6.735  13.604  0.2605 -0.1979 -0.2297
 5831TIP3    H138908   3.948   6.688  13.651 -0.6116  0.2388  1.5189
 5831TIP3    H238909   3.906   6.827  13.610  0.2692 -0.1605 -0.8116
 5832TIP3   OH238910   2.473   4.787   4.710 -0.1134 -0.1214  0.5250
 5832TIP3    H138911   2.485   4.818   4.799  0.1088  0.0925  0.4217
 5832TIP3    H238912   2.487   4.864   4.655  1.2404 -0.5626  0.2207
 5833TIP3   OH238913   1.171   6.021  11.124 -0.0171  0.2481  0.0503
 5833TIP3    H138914   1.084   6.037  11.088 -0.4087  0.2010  0.9815
 5833TIP3    H238915   1.230   6.072  11.068 -0.6082  0.0951 -0.7249
 5834TIP3   OH238916   1.925   5.370  14.227  0.4579 -0.0445  0.0162
 5834TIP3    H138917   1.899   5.462  14.217  0.8857  0.0574 -0.1583
 5834TIP3    H238918   1.915   5.333  14.139 -1.1918 -0.5529  0.3868
 5835TIP3   OH238919   1.161   2.785  11.751 -0.6395 -0.1067 -0.0204
 5835TIP3    H138920   1.153   2.690  11.745  2.9985 -0.4413 -1.5011
 5835TIP3    H238921   1.161   2.814  11.660 -1.2371  1.2587  0.4081
 5836TIP3   OH238922   6.301   0.045  16.997 -0.4484 -0.2196  0.3193
 5836TIP3    H138923   6.328  -0.047  16.996  0.9079  0.1591 -1.5778
 5836TIP3    H238924   6.383   0.093  17.010 -0.8453  0.7790 -0.8045
 5837TIP3   OH238925   3.825   3.782   4.498 -0.4400 -0.0797  0.3673
 5837TIP3    H138926   3.741   3.736   4.497 -0.3322 -0.2840  0.5230
 5837TIP3    H238927   3.889   3.716   4.473 -0.5933  0.6806 -2.1670
 5838TIP3   OH238928   3.403   1.101  12.435  0.0825  0.2348 -0.7393
 5838TIP3    H138929   3.332   1.050  12.394 -0.4392 -0.2020  0.6662
 5838TIP3    H238930   3.451   1.037  12.487  0.1510  0.9460  0.0918
 5839TIP3   OH238931   4.573   0.225   4.635  0.1224  0.8220  0.5035
 5839TIP3    H138932   4.658   0.269   4.638  0.1027  0.8051  2.6597
 5839TIP3    H238933   4.591   0.140   4.596  1.0317  0.9515  0.6232
 5840TIP3   OH238934   6.091   2.778   1.385  0.2631 -0.1370 -0.6382
 5840TIP3    H138935   6.040   2.745   1.312  0.3261  2.8675 -2.1376
 5840TIP3    H238936   6.180   2.787   1.351  0.8412 -1.0615  0.5856
 5841TIP3   OH238937   4.345   4.678  11.524 -0.2372 -0.8318 -0.5737
 5841TIP3    H138938   4.288   4.725  11.584  0.0376  0.0443 -0.9871
 5841TIP3    H238939   4.417   4.646  11.580 -0.4897 -0.8649 -0.2685
 5842TIP3   OH238940   2.352   2.465  13.475  0.3989 -0.3378 -0.1963
 5842TIP3    H138941   2.313   2.484  13.390 -1.6814  0.0449  0.8181
 5842TIP3    H238942   2.306   2.387  13.506 -0.9517  1.2227  1.8578
 5843TIP3   OH238943   6.725   2.975   2.785  0.3661  0.0086  0.1492
 5843TIP3    H138944   6.670   3.000   2.711  1.0271 -1.1857 -0.7778
 5843TIP3    H238945   6.675   3.000   2.862  0.1597  2.3116 -0.7065
 5844TIP3   OH238946   5.382   6.647  12.982 -0.0808  0.1478  0.2240
 5844TIP3    H138947   5.310   6.584  12.977 -0.7502  1.0052 -1.0218
 5844TIP3    H238948   5.363   6.711  12.915  1.6368  0.6313  0.1737
 5845TIP3   OH238949   4.016   2.778  14.060 -0.3392 -0.1482 -0.2161
 5845TIP3    H138950   4.061   2.729  14.129 -0.4604 -0.5580 -0.4292
 5845TIP3    H238951   4.085   2.807  14.001 -0.4812 -1.8765 -1.2451
 5846TIP3   OH238952   6.297   0.642   2.857 -0.8723 -0.1493 -0.3015
 5846TIP3    H138953   6.228   0.692   2.902  0.4636  1.4284  0.0139
 5846TIP3    H238954   6.264   0.631   2.768 -1.8762 -0.0918  0.0517
 5847TIP3   OH238955   0.900   0.180   0.685 -0.5169  0.1368  0.0938
 5847TIP3    H138956   0.809   0.183   0.712 -0.4268  0.1207  0.3976
 5847TIP3    H238957   0.914   0.263   0.639 -1.0365 -0.4129 -1.0891
 5848TIP3   OH238958   0.190   1.279   3.423 -0.4728  0.7030  0.0890
 5848TIP3    H138959   0.227   1.211   3.366  0.1740  0.6076  0.6178
 5848TIP3    H238960   0.239   1.358   3.401 -1.3107  1.0314 -0.6142
 5849TIP3   OH238961   3.566   6.143  12.439 -0.3230  0.0444  0.2178
 5849TIP3    H138962   3.518   6.227  12.442 -2.3484 -1.1115  2.4143
 5849TIP3    H238963   3.658   6.168  12.441 -0.8912  2.2479  0.9808
 5850TIP3   OH238964   2.410   3.013   4.496 -0.5215  0.3633  0.3241
 5850TIP3    H138965   2.357   2.961   4.435 -0.3468 -0.1928  0.6491
 5850TIP3    H238966   2.407   3.102   4.460 -0.7094  0.1048 -0.3066
 5851TIP3   OH238967   0.497   1.178  13.785 -0.5197  0.3770  1.2793
 5851TIP3    H138968   0.437   1.186  13.859 -0.6360  0.3052  1.1926
 5851TIP3    H238969   0.445   1.135  13.717  0.0625 -1.0346  1.7079
 5852TIP3   OH238970   0.031   4.464  11.177  0.2309  0.3861 -0.3497
 5852TIP3    H138971   0.078   4.437  11.099  0.7334 -1.8545  0.6883
 5852TIP3    H238972   0.086   4.435  11.250 -1.0032  0.9638  0.8443
 5853TIP3   OH238973   5.897   5.712  15.748  0.2525 -0.0215 -0.1942
 5853TIP3    H138974   5.865   5.736  15.661  1.8216  0.4888 -0.6437
 5853TIP3    H238975   5.950   5.786  15.776  0.9257 -0.7836  0.5925
 5854TIP3   OH238976   1.912   6.328  10.912 -0.2023  0.3597 -0.0296
 5854TIP3    H138977   1.827   6.367  10.928 -1.5828 -2.6392  0.3116
 5854TIP3    H238978   1.931   6.277  10.990  3.2578  3.1517  1.0947
 5855TIP3   OH238979   5.070   0.919  16.323 -0.2146  0.2848 -0.5068
 5855TIP3    H138980   5.143   0.878  16.370  0.5327  0.4084 -1.5166
 5855TIP3    H238981   4.994   0.905  16.378  0.1002 -2.0564 -0.6021
 5856TIP3   OH238982   6.651   4.396  12.853 -0.0832 -0.5090 -0.6393
 5856TIP3    H138983   6.557   4.381  12.859 -0.4318  1.2025 -1.5004
 5856TIP3    H238984   6.667   4.410  12.760  0.9926 -0.6088 -0.4694
 5857TIP3   OH238985   6.074   5.185  16.610 -0.4888  0.1789  0.5682
 5857TIP3    H138986   5.984   5.152  16.616 -0.2928 -0.2145  1.4308
 5857TIP3    H238987   6.071   5.250  16.540 -1.6076  0.7215  1.1019
 5858TIP3   OH238988   4.812   1.301   0.503 -0.1911 -0.2223 -0.0893
 5858TIP3    H138989   4.845   1.372   0.448 -1.5931  1.2963  0.9963
 5858TIP3    H238990   4.889   1.272   0.553  0.2227  1.0444  0.0236
 5859TIP3   OH238991   6.070   2.551  16.125 -0.3366 -0.4672 -0.1249
 5859TIP3    H138992   5.982   2.530  16.094 -0.3616  0.7677 -0.9273
 5859TIP3    H238993   6.060   2.633  16.174  0.4222 -0.0661 -0.6151
 5860TIP3   OH238994   2.184   6.516  15.167  0.0676  0.2910  0.5472
 5860TIP3    H138995   2.136   6.446  15.212  0.3011  0.2818  0.7875
 5860TIP3    H238996   2.211   6.478  15.084 -0.5230  0.3661  0.3198
 5861TIP3   OH238997   5.290   4.837   3.712 -0.8521  0.3133 -0.0893
 5861TIP3    H138998   5.232   4.779   3.762 -0.6904 -0.5878 -0.9321
 5861TIP3    H238999   5.292   4.799   3.624  1.1007  0.2805 -0.0417
 5862TIP3   OH239000   4.506   4.161  15.075  0.1415 -0.0169  0.0120
 5862TIP3    H139001   4.554   4.151  15.157  0.5705 -2.3144 -0.4790
 5862TIP3    H239002   4.549   4.101  15.014 -0.3872  1.3904 -1.8089
 5863TIP3   OH239003   4.225   6.567   2.659 -0.5420  0.6264  0.0711
 5863TIP3    H139004   4.261   6.650   2.630  0.6283  0.1820  0.2470
 5863TIP3    H239005   4.212   6.516   2.579 -1.1794  0.9397 -0.0281
 5864TIP3   OH239006   5.314   1.958  16.658 -0.0153 -0.3911 -0.7838
 5864TIP3    H139007   5.374   2.025  16.625 -1.8987  0.9954 -1.4511
 5864TIP3    H239008   5.326   1.960  16.753  1.1778 -0.3339 -0.9194
 5865TIP3   OH239009   4.019   0.827  16.034 -0.2794 -0.5212 -0.1076
 5865TIP3    H139010   3.950   0.876  15.989  0.5490 -1.1652 -2.1485
 5865TIP3    H239011   4.095   0.885  16.029 -0.3826 -0.2620  1.2008
 5866TIP3   OH239012   3.810   4.826   2.160  0.2550  0.3626 -0.4136
 5866TIP3    H139013   3.823   4.746   2.109  1.4138  0.2171  0.0911
 5866TIP3    H239014   3.813   4.797   2.251  2.9040  1.2838 -0.1820
 5867TIP3   OH239015   0.814   1.155   4.776 -0.1689  0.5543 -0.2098
 5867TIP3    H139016   0.874   1.129   4.706  0.1419 -0.0497  0.2783
 5867TIP3    H239017   0.730   1.168   4.732  0.1835  0.8184 -0.8014
 5868TIP3   OH239018   3.481   0.533  12.474  0.3779  0.6232  0.0426
 5868TIP3    H139019   3.497   0.601  12.539 -1.6853  1.0057  0.1997
 5868TIP3    H239020   3.522   0.455  12.510  0.1136  1.0686  1.3416
 5869TIP3   OH239021   5.263   1.209  12.551 -0.7419  0.0397  0.9259
 5869TIP3    H139022   5.337   1.238  12.605 -0.4784  0.0134  0.5777
 5869TIP3    H239023   5.186   1.247  12.594 -0.2540  2.9484 -0.6696
 5870TIP3   OH239024   0.032   2.418  14.074  0.1909  0.3087  0.3887
 5870TIP3    H139025   0.067   2.382  13.993  0.0580 -0.4971  0.6917
 5870TIP3    H239026   0.003   2.506  14.050  3.6758  1.5524  0.4135
 5871TIP3   OH239027   4.469   1.562  14.339 -0.0827  0.0512  0.2463
 5871TIP3    H139028   4.399   1.621  14.312  0.1366  1.1766  2.0631
 5871TIP3    H239029   4.545   1.619  14.351  0.3827 -0.7381  1.0869
 5872TIP3   OH239030   0.225   1.176  14.644 -0.1041  0.0809 -0.4080
 5872TIP3    H139031   0.254   1.090  14.675 -0.1793  0.7823  1.6981
 5872TIP3    H239032   0.167   1.156  14.570  2.6435 -1.5002 -2.2566
 5873TIP3   OH239033   4.937   3.188  14.930  0.0989  0.5672  0.3323
 5873TIP3    H139034   4.908   3.113  14.983  0.2724  0.8163  0.7817
 5873TIP3    H239035   4.952   3.151  14.843  2.4489 -0.4290  1.1180
 5874TIP3   OH239036   6.167   2.822  10.779  0.3716 -0.7228 -0.1070
 5874TIP3    H139037   6.255   2.804  10.809  0.6551 -0.1234 -0.5644
 5874TIP3    H239038   6.149   2.911  10.809  1.1010  0.3335 -2.6877
 5875TIP3   OH239039   3.755   4.862   3.111  0.2211  0.2735  0.0644
 5875TIP3    H139040   3.821   4.901   3.054 -0.9216  2.0377 -0.0774
 5875TIP3    H239041   3.676   4.911   3.094 -0.7893 -0.8666  1.3112
 5876TIP3   OH239042   2.275   2.619   6.449  0.1912 -0.0074 -0.3168
 5876TIP3    H139043   2.370   2.629   6.438  0.0741  0.4386 -0.9747
 5876TIP3    H239044   2.260   2.525   6.442  0.4875 -0.0027 -1.1021
 5877TIP3   OH239045   5.902   6.385  12.629 -0.2808  0.2897 -0.0276
 5877TIP3    H139046   5.966   6.321  12.660 -0.7112  0.7696  1.8769
 5877TIP3    H239047   5.897   6.450  12.698 -2.2454  0.6882 -0.5101
 5878TIP3   OH239048   3.894   3.713  16.734  0.0660  0.0446  0.4225
 5878TIP3    H139049   3.876   3.629  16.690 -2.0254  0.7683 -0.1903
 5878TIP3    H239050   3.895   3.691  16.827  1.2751 -0.9574  0.1851
 5879TIP3   OH239051   4.239   2.880  16.530 -0.4846  0.3550  0.1628
 5879TIP3    H139052   4.244   2.885  16.435  0.3655  2.1580  0.2895
 5879TIP3    H239053   4.300   2.811  16.554  0.5425  1.0258 -0.4887
 5880TIP3   OH239054   5.828   3.516   2.578  0.1251  0.4463  0.0333
 5880TIP3    H139055   5.828   3.579   2.649  1.1523  0.8648 -0.3263
 5880TIP3    H239056   5.880   3.557   2.509  0.0272 -0.3989 -0.5579
 5881TIP3   OH239057   4.319   1.946  12.258 -0.2244 -0.1427  0.2707
 5881TIP3    H139058   4.413   1.952  12.242 -0.5104  0.6659 -1.2163
 5881TIP3    H239059   4.288   1.880  12.196 -0.9132  0.9494 -0.5711
 5882TIP3   OH239060   3.348   5.598  16.886  0.3976  0.1160 -0.3914
 5882TIP3    H139061   3.427   5.550  16.909 -0.1146 -0.8802 -0.6894
 5882TIP3    H239062   3.379   5.674  16.836  1.1522 -0.2757 -0.5150
 5883TIP3   OH239063   2.634   1.301   4.138 -0.3545  0.3724  0.3330
 5883TIP3    H139064   2.693   1.356   4.190 -0.8859  3.9329 -2.6107
 5883TIP3    H239065   2.548   1.340   4.153 -1.1469 -1.2976  0.1624
 5884TIP3   OH239066   4.301   4.658  14.824 -0.5654 -0.2786 -0.2880
 5884TIP3    H139067   4.305   4.612  14.908 -1.5920 -0.2551 -0.2154
 5884TIP3    H239068   4.293   4.750  14.848 -0.5090 -0.2421 -0.4135
 5885TIP3   OH239069   4.854   2.107  11.150  0.3847 -0.0355  0.0384
 5885TIP3    H139070   4.828   2.130  11.240 -0.7369 -1.2089  0.0265
 5885TIP3    H239071   4.814   2.021  11.135 -1.4172  1.1533 -2.3854
 5886TIP3   OH239072   3.208   1.812   1.259  0.2388 -0.1376  0.0343
 5886TIP3    H139073   3.115   1.818   1.239  0.2226  0.7506  0.3392
 5886TIP3    H239074   3.233   1.722   1.235 -0.7321 -0.4346  0.1339
 5887TIP3   OH239075   5.439   3.208   3.688 -0.1903  0.7801  0.3796
 5887TIP3    H139076   5.375   3.186   3.756  1.8517  1.1144  2.4824
 5887TIP3    H239077   5.439   3.133   3.630 -0.5927 -0.3693  1.8305
 5888TIP3   OH239078   2.196   5.744  15.314 -0.0975  0.5001 -0.6971
 5888TIP3    H139079   2.279   5.707  15.343  0.3183  1.3482 -0.7937
 5888TIP3    H239080   2.160   5.679  15.254  0.1005 -0.2443 -0.0143
 5889TIP3   OH239081   6.003   1.002  10.945  0.2600  0.1126  0.0327
 5889TIP3    H139082   5.941   0.940  10.906  1.0803 -1.2111  0.8130
 5889TIP3    H239083   6.048   1.041  10.870  1.2082 -1.7660 -0.3891
 5890TIP3   OH239084   3.573   0.259  12.956 -0.2510 -0.1278  0.5459
 5890TIP3    H139085   3.585   0.250  12.862 -2.6468  1.4082  0.0660
 5890TIP3    H239086   3.525   0.181  12.982  0.3070 -0.4942  0.4851
 5891TIP3   OH239087   0.885   4.229   4.716  0.3835 -0.3066 -0.5403
 5891TIP3    H139088   0.915   4.226   4.626 -1.0548 -0.4492 -1.0359
 5891TIP3    H239089   0.938   4.165   4.763 -0.2321 -1.6980 -1.7186
 5892TIP3   OH239090   1.854   6.370   4.203 -0.1860  0.6306 -0.4058
 5892TIP3    H139091   1.797   6.334   4.135  2.2549 -1.7300 -1.2931
 5892TIP3    H239092   1.866   6.462   4.177 -0.5053  0.1641 -2.3069
 5893TIP3   OH239093   0.592   4.194  16.308 -0.1093 -0.1899 -0.5433
 5893TIP3    H139094   0.565   4.260  16.371 -1.6721 -1.1192 -0.2139
 5893TIP3    H239095   0.673   4.228  16.270 -0.0126  1.1193  0.8108
 5894TIP3   OH239096   3.319   4.014   0.697  0.0430 -0.0742  0.3205
 5894TIP3    H139097   3.360   4.067   0.628  2.2845 -1.2080  0.7516
 5894TIP3    H239098   3.277   3.942   0.649 -0.3162  0.3511 -0.0159
 5895TIP3   OH239099   0.190   4.738  15.500  0.4331  0.1915 -0.3645
 5895TIP3    H139100   0.166   4.685  15.576  2.3579 -0.0217  0.1236
 5895TIP3    H239101   0.200   4.826  15.534 -1.3539  0.6382 -0.9094
 5896TIP3   OH239102   2.781   5.581   4.151 -0.2751  0.4767  0.3903
 5896TIP3    H139103   2.764   5.674   4.136 -1.3680  0.4576  1.4231
 5896TIP3    H239104   2.875   5.571   4.141 -0.4369  1.2494 -2.1489
 5897TIP3   OH239105   1.749   6.068  13.199  0.4269 -0.3422 -0.0709
 5897TIP3    H139106   1.772   6.004  13.132  0.6668  0.1700 -0.4819
 5897TIP3    H239107   1.660   6.095  13.177  1.0401  0.9224 -1.0645
 5898TIP3   OH239108   0.989   2.033   2.137 -0.1160  0.6364 -0.3087
 5898TIP3    H139109   1.039   1.963   2.181  0.9407  1.6656  0.1551
 5898TIP3    H239110   1.048   2.063   2.068 -0.6413  0.9695 -0.6102
 5899TIP3   OH239111   5.407   5.016  13.182 -0.1228 -0.3598 -0.2919
 5899TIP3    H139112   5.447   5.097  13.150 -1.6488  0.4267 -0.2532
 5899TIP3    H239113   5.475   4.950  13.171  0.0203  0.2526 -3.4313
 5900TIP3   OH239114   5.826   3.462  12.582  0.1170 -0.1958 -0.2126
 5900TIP3    H139115   5.832   3.387  12.640 -1.2529  0.6540  1.0719
 5900TIP3    H239116   5.786   3.531  12.635 -1.7308  0.4230 -2.2943
 5901TIP3   OH239117   4.383   2.305  13.981 -0.6337  0.1811 -1.2433
 5901TIP3    H139118   4.424   2.391  13.993  1.4951 -0.9269 -0.2232
 5901TIP3    H239119   4.385   2.290  13.887  1.4077  0.1402 -1.2201
 5902TIP3   OH239120   2.726   2.239  10.619 -0.0458  0.4672  0.2154
 5902TIP3    H139121   2.785   2.177  10.663 -0.8041 -0.9629 -0.7700
 5902TIP3    H239122   2.678   2.282  10.690  0.1555 -0.4024  0.8755
 5903TIP3   OH239123   1.240   5.004  12.457  0.0558  0.1512 -0.0024
 5903TIP3    H139124   1.242   4.909  12.457  1.6148  0.1706 -0.1567
 5903TIP3    H239125   1.152   5.027  12.428 -0.3226 -1.2387  0.0401
 5904TIP3   OH239126   2.560   2.473  15.105  0.3986  0.0946 -0.0933
 5904TIP3    H139127   2.568   2.563  15.136 -1.1885  0.0779  0.4127
 5904TIP3    H239128   2.466   2.455  15.105  0.6991 -1.6426  0.0519
 5905TIP3   OH239129   0.410   6.154  14.992  0.0832  0.1901  0.4240
 5905TIP3    H139130   0.435   6.063  15.005  0.3467 -0.0219 -1.4310
 5905TIP3    H239131   0.317   6.151  14.970  0.1937  0.3150 -0.0797
 5906TIP3   OH239132   5.668   1.378   0.399  0.3061 -0.4305 -0.0621
 5906TIP3    H139133   5.645   1.371   0.491 -2.2217 -0.3257 -0.6610
 5906TIP3    H239134   5.703   1.467   0.390  0.0018 -0.2334  0.6865
 5907TIP3   OH239135   3.421   5.598   4.831 -0.4234  0.3825  0.1072
 5907TIP3    H139136   3.468   5.542   4.893 -2.6237 -2.4384 -0.6921
 5907TIP3    H239137   3.455   5.574   4.745 -3.7023 -2.2217 -0.5540
 5908TIP3   OH239138   4.861   2.959   4.187  0.5042  0.0811 -0.3130
 5908TIP3    H139139   4.937   2.987   4.238 -0.8512  1.1769  1.1675
 5908TIP3    H239140   4.795   2.936   4.253 -0.3643 -1.1247 -1.5711
 5909TIP3   OH239141   2.235   1.490   6.095 -0.0419 -0.1296 -0.8715
 5909TIP3    H139142   2.286   1.425   6.142 -0.0885 -0.3935 -1.1852
 5909TIP3    H239143   2.272   1.574   6.121 -0.1506 -0.2692 -0.2653
 5910TIP3   OH239144   6.623   4.137   0.048  0.2473  0.6752  0.6056
 5910TIP3    H139145   6.688   4.097  -0.010  1.0419  3.4974 -0.5323
 5910TIP3    H239146   6.652   4.115   0.136 -0.6668 -3.2178  0.0390
 5911TIP3   OH239147   1.742   3.069  11.679  0.0024 -0.0416  0.3028
 5911TIP3    H139148   1.783   3.147  11.641 -0.2815 -0.8946 -1.8806
 5911TIP3    H239149   1.804   3.037  11.744  1.5722  0.2291 -1.0302
 5912TIP3   OH239150   4.503   0.110  13.121  0.0057  0.3683  0.4576
 5912TIP3    H139151   4.552   0.069  13.192  0.8795  2.0361  0.8568
 5912TIP3    H239152   4.416   0.071  13.125  1.1952 -2.4192 -0.0622
 5913TIP3   OH239153   3.236   2.697  13.086  0.0238 -0.2187 -0.1316
 5913TIP3    H139154   3.174   2.722  13.018 -0.0706 -1.7573 -0.6385
 5913TIP3    H239155   3.194   2.721  13.168 -1.8436 -2.4282 -0.3904
 5914TIP3   OH239156   6.480   6.359   2.504  0.2919  0.3660 -0.1418
 5914TIP3    H139157   6.441   6.272   2.515 -2.6533  1.7572  0.8682
 5914TIP3    H239158   6.490   6.368   2.409 -0.0760 -0.7888 -0.3017
 5915TIP3   OH239159   2.063   5.210   5.780 -0.4120 -0.0284 -0.3225
 5915TIP3    H139160   2.088   5.198   5.688 -1.3736 -0.0292 -0.5801
 5915TIP3    H239161   2.134   5.263   5.817 -0.2373  0.3284 -1.1630
 5916TIP3   OH239162   3.188   4.213   3.414  0.0845 -0.2772  0.1250
 5916TIP3    H139163   3.130   4.150   3.456  0.2695 -1.2401 -1.0299
 5916TIP3    H239164   3.264   4.218   3.471  0.1288 -1.2052  0.1518
 5917TIP3   OH239165   5.145   2.293   2.083  0.3348 -0.1916 -0.0763
 5917TIP3    H139166   5.202   2.369   2.073 -0.4948  0.5645  0.8287
 5917TIP3    H239167   5.205   2.218   2.087  1.1512  0.3974 -1.0598
 5918TIP3   OH239168   5.113   5.329  16.854 -0.4983 -0.2989  0.0075
 5918TIP3    H139169   5.027   5.301  16.822 -2.1836  3.2107  1.2181
 5918TIP3    H239170   5.123   5.288  16.939 -0.8731 -0.8860 -0.2332
 5919TIP3   OH239171   2.764   3.707  12.770 -0.1193  0.0870  0.1196
 5919TIP3    H139172   2.720   3.741  12.849 -0.1381  1.8024 -0.5991
 5919TIP3    H239173   2.750   3.613  12.773 -1.7898  0.3492  1.1566
 5920TIP3   OH239174   1.555   3.707  15.048  0.5036 -0.3881  0.2928
 5920TIP3    H139175   1.557   3.796  15.012  0.6369 -0.0386  1.1626
 5920TIP3    H239176   1.598   3.714  15.133  0.3610 -1.2514  0.4421
 5921TIP3   OH239177   2.571   6.573  11.744 -0.2976  0.4817 -0.6644
 5921TIP3    H139178   2.625   6.625  11.685 -2.3020  1.5696 -1.6033
 5921TIP3    H239179   2.625   6.562  11.822  0.7633  2.6867 -1.0375
 5922TIP3   OH239180   4.375   0.263  12.684 -0.0042  0.3508 -0.1991
 5922TIP3    H139181   4.324   0.183  12.679  0.5325 -0.0519  0.7384
 5922TIP3    H239182   4.408   0.266  12.774 -0.4791  1.9047 -0.0461
 5923TIP3   OH239183   3.192   0.754  15.640 -0.3477  0.5000 -0.0019
 5923TIP3    H139184   3.257   0.754  15.570  0.0981  0.8212  0.3999
 5923TIP3    H239185   3.243   0.743  15.720 -0.5886  2.5168  0.4741
 5924TIP3   OH239186   2.017   3.310  12.278 -0.5200  0.3463  0.4138
 5924TIP3    H139187   1.990   3.396  12.310 -1.6170 -0.0622  0.5884
 5924TIP3    H239188   1.945   3.281  12.222  0.4896  0.1698 -0.8080
 5925TIP3   OH239189   1.717   0.537  11.343  0.0960 -0.8267  0.0296
 5925TIP3    H139190   1.704   0.462  11.400 -1.7001 -0.9523 -0.5377
 5925TIP3    H239191   1.629   0.570  11.324  0.7650  0.4052 -1.0812
 5926TIP3   OH239192   1.644   2.215  15.093 -0.4375 -0.2907  0.3161
 5926TIP3    H139193   1.576   2.259  15.144 -0.7550 -0.5609  0.1255
 5926TIP3    H239194   1.654   2.270  15.015 -0.5689 -0.3572  0.2538
 5927TIP3   OH239195   5.607   6.493   0.106  0.3157  0.7157 -0.4781
 5927TIP3    H139196   5.547   6.557   0.068  0.8414  0.7527 -1.2403
 5927TIP3    H239197   5.692   6.536   0.104  0.8470 -0.3899 -1.9102
 5928TIP3   OH239198   3.346   0.062  16.722  0.3647 -0.5710  0.6800
 5928TIP3    H139199   3.271   0.031  16.772 -0.6065 -0.3297 -0.6090
 5928TIP3    H239200   3.311   0.129  16.664  1.7362  0.1815  0.6793
 5929TIP3   OH239201   0.157   3.031   2.525  0.0212 -0.0712  0.1970
 5929TIP3    H139202   0.091   3.100   2.530 -0.2433 -0.4339  2.2239
 5929TIP3    H239203   0.236   3.070   2.562  0.0791 -0.6079  0.6495
 5930TIP3   OH239204   3.746   5.573  14.387 -0.4276 -0.1646  0.2792
 5930TIP3    H139205   3.750   5.552  14.481 -2.2885 -1.0645  0.1754
 5930TIP3    H239206   3.656   5.552  14.361 -0.3381  1.3992 -1.4107
 5931TIP3   OH239207   3.478   2.869  14.332 -0.2524  0.1358 -0.2114
 5931TIP3    H139208   3.557   2.817  14.341 -1.8450 -2.0270  1.6741
 5931TIP3    H239209   3.510   2.959  14.323  2.4081 -0.6961  0.4115
 5932TIP3   OH239210   3.209   3.622   0.359 -0.0859  0.9665 -0.9521
 5932TIP3    H139211   3.114   3.615   0.367  0.1205 -0.7095  0.2341
 5932TIP3    H239212   3.237   3.537   0.326  0.9689  1.6486 -1.8775
 5933TIP3   OH239213   6.492   6.477  12.972 -0.6591  0.3074 -0.1024
 5933TIP3    H139214   6.435   6.512  12.904  2.7142  2.6222 -1.8979
 5933TIP3    H239215   6.530   6.398  12.934  1.7966  2.0045 -1.2994
 5934TIP3   OH239216   1.253   5.812   0.772  0.1558  0.1579  0.7156
 5934TIP3    H139217   1.322   5.749   0.752  0.9429  0.7863  1.4521
 5934TIP3    H239218   1.174   5.773   0.733  1.0650 -0.1566 -0.8762
 5935TIP3   OH239219   2.368   2.417   1.225 -0.0892  0.7698 -0.4436
 5935TIP3    H139220   2.296   2.392   1.282 -1.0868  0.2447 -1.9052
 5935TIP3    H239221   2.437   2.446   1.284 -1.2112  0.5160  1.0018
 5936TIP3   OH239222   5.649   0.824  14.081  0.2096  0.2675 -0.4869
 5936TIP3    H139223   5.741   0.842  14.098 -0.3736  2.0738  1.0335
 5936TIP3    H239224   5.607   0.832  14.167 -1.2553 -1.2221 -1.0429
 5937TIP3   OH239225   5.219   6.605   0.356  0.1969  0.1959  0.3716
 5937TIP3    H139226   5.313   6.590   0.361  0.7062  3.2390  0.7875
 5937TIP3    H239227   5.203   6.634   0.266 -0.1033  1.0891  0.7051
 5938TIP3   OH239228   6.393   3.783  13.306 -0.0339 -0.7236 -0.4034
 5938TIP3    H139229   6.307   3.823  13.297 -0.5178 -1.7073 -0.1676
 5938TIP3    H239230   6.405   3.771  13.400  1.5017  1.8580 -0.2189
 5939TIP3   OH239231   2.813   5.731  16.270 -0.4360  0.0875 -0.0132
 5939TIP3    H139232   2.799   5.639  16.294 -2.7927  0.7702  1.4863
 5939TIP3    H239233   2.870   5.765  16.339  1.4528 -0.5337 -1.2494
 5940TIP3   OH239234   5.542   3.112   1.969  0.0368  0.0965 -0.6505
 5940TIP3    H139235   5.630   3.079   1.991  1.3463  3.8555  0.0653
 5940TIP3    H239236   5.494   3.109   2.051  0.5476  1.1036 -0.3077
 5941TIP3   OH239237   0.961   1.303   6.182  0.9291 -0.1697 -0.2878
 5941TIP3    H139238   0.999   1.365   6.245  0.2955  1.3338 -1.3566
 5941TIP3    H239239   0.883   1.269   6.226 -0.3535  2.0155 -0.8228
 5942TIP3   OH239240   1.840   0.699  17.116  0.1259 -0.1535 -0.1169
 5942TIP3    H139241   1.859   0.780  17.163 -1.8476 -0.0288  0.4959
 5942TIP3    H239242   1.926   0.666  17.089  0.9526  2.0600 -0.2662
 5943TIP3   OH239243   0.790   5.891  12.904 -0.3809  0.1123  0.0232
 5943TIP3    H139244   0.878   5.857  12.888 -0.7864 -0.4349 -1.1588
 5943TIP3    H239245   0.772   5.946  12.828 -0.7531  0.8685  0.6509
 5944TIP3   OH239246   6.373   1.403   0.454  0.0659  0.2071 -0.8532
 5944TIP3    H139247   6.377   1.424   0.361 -0.1906 -0.4077 -1.0048
 5944TIP3    H239248   6.459   1.365   0.474  0.0218  0.0810 -0.9034
 5945TIP3   OH239249   0.597   1.412   6.094  0.1702 -0.4139 -0.7355
 5945TIP3    H139250   0.615   1.486   6.152 -1.4929 -1.8042  1.6680
 5945TIP3    H239251   0.664   1.418   6.026  2.2908  1.2200  1.3838
 5946TIP3   OH239252   4.722   2.185   5.721 -0.0084  0.2231 -0.1535
 5946TIP3    H139253   4.794   2.182   5.784 -1.7184  1.2765  1.9161
 5946TIP3    H239254   4.661   2.119   5.752 -0.8575  0.7349 -0.7238
 5947TIP3   OH239255   2.686   4.145   5.601 -0.2179  0.0216  0.3377
 5947TIP3    H139256   2.633   4.074   5.566 -0.0378  1.0839 -2.1660
 5947TIP3    H239257   2.623   4.214   5.622 -0.3384 -0.6418  2.3048
 5948TIP3   OH239258   3.201   4.386  15.237 -0.0131 -0.2054  0.8317
 5948TIP3    H139259   3.151   4.356  15.313  0.5631 -2.3966  0.3966
 5948TIP3    H239260   3.292   4.374  15.262  0.2455  1.3687  0.6820
 5949TIP3   OH239261   3.845   4.115  14.681  0.6765  0.2287 -0.1178
 5949TIP3    H139262   3.885   4.163  14.608  2.1325 -0.9530 -0.1308
 5949TIP3    H239263   3.789   4.179  14.725  0.1633  1.0789 -1.9825
 5950TIP3   OH239264   2.579   3.041  11.627 -0.0285  0.9142  0.8020
 5950TIP3    H139265   2.523   2.973  11.664  0.3418 -0.3497 -0.8808
 5950TIP3    H239266   2.664   3.027  11.667  0.4620 -0.6717 -0.7289
 5951TIP3   OH239267   4.471   1.498  10.832  0.2013 -0.1421 -0.2672
 5951TIP3    H139268   4.522   1.469  10.756 -0.5604  0.5691 -1.0531
 5951TIP3    H239269   4.423   1.420  10.860  0.6650 -0.4667 -0.3690
 5952TIP3   OH239270   4.359   1.429   6.121 -0.4797 -0.1386  0.2162
 5952TIP3    H139271   4.424   1.360   6.113 -0.1461  0.2690 -0.7098
 5952TIP3    H239272   4.280   1.385   6.151 -0.1133 -0.8289  0.1746
 5953TIP3   OH239273   4.032   6.141  14.950 -0.3225  0.1077 -0.0931
 5953TIP3    H139274   4.024   6.237  14.945 -3.1783 -0.0361  0.9003
 5953TIP3    H239275   4.114   6.122  14.905  0.0218  2.9859 -0.8040
 5954TIP3   OH239276   4.526   1.958  16.211  0.4313 -0.0116  0.1282
 5954TIP3    H139277   4.482   1.984  16.131  1.2722  0.4489 -0.1969
 5954TIP3    H239278   4.467   1.895  16.253 -0.2174  0.1072 -0.6189
 5955TIP3   OH239279   6.649   5.580   0.458  0.4393  0.3594 -0.2104
 5955TIP3    H139280   6.609   5.547   0.378  1.4946 -0.5791 -0.3718
 5955TIP3    H239281   6.600   5.538   0.529  1.6989 -1.5297 -0.4161
 5956TIP3   OH239282   1.761   4.329  16.224 -0.1984  0.0741  0.0106
 5956TIP3    H139283   1.676   4.351  16.186  0.5075  0.9054 -1.1038
 5956TIP3    H239284   1.805   4.276  16.158  0.0941 -0.4911  0.6500
 5957TIP3   OH239285   5.836   0.188   4.796 -0.4466  0.7542 -0.3965
 5957TIP3    H139286   5.792   0.105   4.777 -1.6350  1.8650 -2.7612
 5957TIP3    H239287   5.909   0.164   4.854 -0.7718 -1.9084 -1.0103
 5958TIP3   OH239288   5.936   6.213  16.147  0.2115 -0.7661  0.4296
 5958TIP3    H139289   5.873   6.285  16.146 -0.6126 -1.4698  1.1881
 5958TIP3    H239290   6.016   6.251  16.110 -0.3325  0.4325  0.4600
 5959TIP3   OH239291   4.109   5.998  14.134  0.4129  0.4120  0.5098
 5959TIP3    H139292   4.054   6.011  14.211 -0.2210  3.3647 -0.3768
 5959TIP3    H239293   4.196   5.981  14.169 -0.0304  0.9292  1.8909
 5960TIP3   OH239294   3.236   0.249  16.396  0.2216 -0.7363  0.2004
 5960TIP3    H139295   3.204   0.315  16.457  0.0436 -1.3441  0.7745
 5960TIP3    H239296   3.322   0.281  16.369 -0.7279  0.7804 -1.1513
 5961TIP3   OH239297   0.654   1.684   3.447 -0.1700 -0.1732 -0.3476
 5961TIP3    H139298   0.634   1.596   3.416  1.0631 -0.6103  0.0494
 5961TIP3    H239299   0.696   1.726   3.373 -2.2345  0.6444 -1.0833
 5962TIP3   OH239300   4.861   5.041  14.814 -0.0185 -0.1213 -0.5493
 5962TIP3    H139301   4.915   5.062  14.891 -1.5982 -1.2235  0.8815
 5962TIP3    H239302   4.889   5.105  14.748  1.3137  0.8983  0.9517
 5963TIP3   OH239303   4.460   5.353  11.426 -0.0633  0.1753  0.2144
 5963TIP3    H139304   4.387   5.414  11.424 -2.3507 -2.4375  0.3760
 5963TIP3    H239305   4.477   5.338  11.520 -0.9935 -1.0897  0.1956
 5964TIP3   OH239306   2.190   5.781   3.354 -0.3367  0.3435 -0.1704
 5964TIP3    H139307   2.156   5.865   3.386  0.5809 -0.3874  2.7885
 5964TIP3    H239308   2.112   5.734   3.323 -1.4787  0.4604  2.4505
 5965TIP3   OH239309   4.510   4.849   3.670 -0.6130 -0.2365 -0.1731
 5965TIP3    H139310   4.465   4.922   3.713  1.5006  0.5774  0.7585
 5965TIP3    H239311   4.570   4.890   3.608 -1.2813 -1.2944 -1.5424
 5966TIP3   OH239312   4.566   1.914  11.974 -0.1925 -0.4921 -0.2257
 5966TIP3    H139313   4.568   1.992  12.030  0.6255  0.6033 -1.7134
 5966TIP3    H239314   4.556   1.841  12.034  1.8808  0.5508  1.4493
 5967TIP3   OH239315   2.486   6.653   5.269 -0.0325 -0.1914 -0.0107
 5967TIP3    H139316   2.543   6.577   5.259 -0.7144 -1.0895  2.5496
 5967TIP3    H239317   2.449   6.667   5.182 -1.1789 -3.8493 -0.2055
 5968TIP3   OH239318   1.125   2.012   4.776 -0.5334  0.0759 -0.1554
 5968TIP3    H139319   1.143   1.956   4.700  0.0324  1.0384 -0.7531
 5968TIP3    H239320   1.130   1.953   4.851 -1.6194 -0.9921 -0.9035
 5969TIP3   OH239321   6.606   0.904   4.396 -0.1983 -0.9817 -0.0575
 5969TIP3    H139322   6.679   0.945   4.441 -0.0423 -1.6448  0.3100
 5969TIP3    H239323   6.639   0.883   4.308 -0.4059  0.0302 -0.3803
 5970TIP3   OH239324   1.353   3.580  11.483 -0.3361 -0.0447  0.7058
 5970TIP3    H139325   1.317   3.591  11.395 -3.3007 -1.8056  1.6415
 5970TIP3    H239326   1.433   3.529  11.469 -1.1478 -0.9309 -0.9391
 5971TIP3   OH239327   3.187   1.043   6.011  0.5183 -0.1437 -0.1917
 5971TIP3    H139328   3.196   1.040   6.107 -0.4685  0.1285 -0.0888
 5971TIP3    H239329   3.275   1.024   5.979  0.8213 -0.4189  0.7697
 5972TIP3   OH239330   4.621   3.290  14.154  0.4792 -0.2994  0.2622
 5972TIP3    H139331   4.703   3.265  14.112  0.7036  0.6542  0.1402
 5972TIP3    H239332   4.638   3.279  14.248  0.2530 -1.5758  0.1689
 5973TIP3   OH239333   0.035   6.145  12.032 -0.1601 -0.2514  0.0128
 5973TIP3    H139334  -0.036   6.183  11.981  0.5569 -0.8226 -1.4360
 5973TIP3    H239335   0.114   6.185  11.997  0.3625 -0.8216  0.5219
 5974TIP3   OH239336   1.721   5.934  11.900 -0.2736 -0.1930  0.3875
 5974TIP3    H139337   1.640   5.953  11.948 -0.2349  0.1439  0.3190
 5974TIP3    H239338   1.730   6.008  11.839  0.5229  0.1707  0.9541
 5975TIP3   OH239339   4.715   6.328   3.724 -0.4803 -0.2453  0.1204
 5975TIP3    H139340   4.810   6.333   3.711 -0.5206 -2.7690 -1.7085
 5975TIP3    H239341   4.678   6.370   3.647 -0.8417 -0.2771  0.2760
 5976TIP3   OH239342   1.503   0.438  15.968 -0.2491 -0.3451 -1.0135
 5976TIP3    H139343   1.520   0.360  16.021 -1.1500 -0.0371 -0.2748
 5976TIP3    H239344   1.487   0.507  16.031 -0.4204  0.2329 -1.6854
 5977TIP3   OH239345   3.212   4.287   1.453 -0.1782 -0.4711 -0.0755
 5977TIP3    H139346   3.203   4.318   1.363 -2.5711 -0.9465 -0.0493
 5977TIP3    H239347   3.210   4.192   1.446  1.6520 -0.5544  0.3227
 5978TIP3   OH239348   4.226   4.106   2.684  0.4077  0.5174  0.6472
 5978TIP3    H139349   4.158   4.133   2.746  0.2591  1.2397  0.1801
 5978TIP3    H239350   4.223   4.010   2.685 -1.3715  0.5437 -0.1732
 5979TIP3   OH239351   4.288   6.312   0.762  0.5977  0.0546 -0.5789
 5979TIP3    H139352   4.282   6.218   0.777 -0.6446  0.3413  0.8852
 5979TIP3    H239353   4.367   6.339   0.808 -0.9940  0.2711  2.1217
 5980TIP3   OH239354   4.289   4.889  11.300  0.2513 -0.0539  0.3404
 5980TIP3    H139355   4.206   4.924  11.330  0.0026 -0.1993 -0.1606
 5980TIP3    H239356   4.346   4.892  11.376  0.4400  2.0531  0.1350
 5981TIP3   OH239357   4.146   2.485  13.949  0.2594 -0.0860 -0.0334
 5981TIP3    H139358   4.148   2.565  14.003 -0.5513  0.2210 -0.4502
 5981TIP3    H239359   4.151   2.414  14.013 -0.4512  0.2786  0.4355
 5982TIP3   OH239360   5.767   2.485  15.985 -0.4916  0.3578  0.2852
 5982TIP3    H139361   5.812   2.413  15.942  0.1463  0.5620  0.6080
 5982TIP3    H239362   5.679   2.484  15.947 -0.7948 -1.1839  1.0022
 5983TIP3   OH239363   5.227   0.294  15.603  0.6966 -0.1320  0.4738
 5983TIP3    H139364   5.297   0.351  15.571 -0.0882  0.1634 -0.7332
 5983TIP3    H239365   5.219   0.316  15.696  1.1675  0.9220  0.2738
 5984TIP3   OH239366   5.833   1.092  15.268  0.0924  0.1975  0.1901
 5984TIP3    H139367   5.855   1.154  15.199 -1.4226  0.3739 -0.1620
 5984TIP3    H239368   5.753   1.128  15.307  1.5347  0.6962  2.7724
 5985TIP3   OH239369   1.337   6.096  13.380 -0.7157  0.3967  0.1450
 5985TIP3    H139370   1.277   6.098  13.455  0.0424  1.2836  0.7474
 5985TIP3    H239371   1.283   6.121  13.306 -1.1055  1.1728  0.6803
 5986TIP3   OH239372   6.009   4.415  15.058 -0.2300 -0.7446  0.1555
 5986TIP3    H139373   6.082   4.393  14.999 -1.9163 -0.5553 -2.0669
 5986TIP3    H239374   6.032   4.374  15.141  1.7261 -1.8943 -0.9204
 5987TIP3   OH239375   1.294   0.522  11.536  0.3892  0.8590  0.1233
 5987TIP3    H139376   1.291   0.563  11.449 -2.2107 -2.1584 -1.2919
 5987TIP3    H239377   1.355   0.450  11.526 -0.5657 -0.0109  0.5565
 5988TIP3   OH239378   4.824   0.172  15.240  0.3826  0.3239  0.3965
 5988TIP3    H139379   4.853   0.111  15.172  0.8634  1.7466 -0.6964
 5988TIP3    H239380   4.899   0.229  15.254 -0.3549  1.2113  0.7831
 5989TIP3   OH239381   0.095   1.679  12.301  0.3966 -0.1266 -0.4522
 5989TIP3    H139382   0.140   1.760  12.326  2.3376 -1.4606  0.5363
 5989TIP3    H239383   0.024   1.707  12.243 -0.3736  2.4808  1.6576
 5990TIP3   OH239384   4.977   1.231   5.578  0.2317 -0.0777  0.5479
 5990TIP3    H139385   5.030   1.265   5.506  0.2210 -0.5430  0.3173
 5990TIP3    H239386   4.887   1.252   5.554  0.2565  0.1024  0.6098
 5991TIP3   OH239387   3.756   4.733  11.587 -0.0705  0.1800  0.0842
 5991TIP3    H139388   3.766   4.762  11.496 -0.6712 -1.4687 -0.5300
 5991TIP3    H239389   3.794   4.804  11.639 -0.8381  1.7200 -1.3851
 5992TIP3   OH239390   5.292   1.698  11.378  0.3722 -0.4446 -0.2264
 5992TIP3    H139391   5.258   1.694  11.288  1.1859 -1.2383 -0.5086
 5992TIP3    H239392   5.327   1.787  11.386  1.0227 -0.6241 -0.9708
 5993TIP3   OH239393   4.574   0.816  14.073  0.7600 -0.8961  0.7231
 5993TIP3    H139394   4.665   0.832  14.096  0.3075 -1.4299  3.0817
 5993TIP3    H239395   4.565   0.720  14.074  1.0137 -1.0102 -3.1107
 5994TIP3   OH239396   1.420   6.113  11.838 -1.1041  0.4563  1.4149
 5994TIP3    H139397   1.371   6.053  11.781  1.1917  1.2786 -1.5960
 5994TIP3    H239398   1.434   6.063  11.919 -2.4369 -1.6905  0.3764
 5995TIP3   OH239399   0.005   0.596  13.108 -0.6175 -0.8539 -0.0225
 5995TIP3    H139400  -0.051   0.583  13.185 -0.5288 -1.4036 -0.0455
 5995TIP3    H239401   0.017   0.690  13.103 -1.0826 -0.7718  0.3133
 5996TIP3   OH239402   3.201   2.458  14.542  0.2604 -0.5198  0.2794
 5996TIP3    H139403   3.131   2.412  14.495 -0.4985 -0.5057  1.3783
 5996TIP3    H239404   3.279   2.441  14.489 -0.6315 -0.1794 -1.1979
 5997TIP3   OH239405   6.369   0.091   2.914 -0.3888  0.1431 -0.2758
 5997TIP3    H139406   6.374   0.043   2.832 -0.6245 -0.2804 -0.0454
 5997TIP3    H239407   6.339   0.178   2.889  0.8336  0.4247 -0.7920
 5998TIP3   OH239408   3.477   2.084  17.056 -0.3882  0.2567  0.0425
 5998TIP3    H139409   3.472   2.010  16.995  1.6847  0.1573 -0.0376
 5998TIP3    H239410   3.500   2.045  17.140 -0.0354  0.7269  0.1668
 5999TIP3   OH239411   3.058   4.678  11.856 -0.3162  0.0876 -0.0321
 5999TIP3    H139412   2.981   4.623  11.843 -0.6167  0.9293 -1.8955
 5999TIP3    H239413   3.119   4.653  11.786 -0.1583  1.5937 -0.4499
 6000TIP3   OH239414   4.867   1.078   6.416  0.1853 -0.0325 -0.3294
 6000TIP3    H139415   4.804   1.133   6.371 -0.6068 -1.6122 -1.2111
 6000TIP3    H239416   4.909   1.028   6.347 -0.7251 -2.1513  0.5839
 6001TIP3   OH239417   4.162   6.401  16.002  0.2630 -0.4812 -0.0088
 6001TIP3    H139418   4.232   6.461  15.974 -1.4395  1.5033 -0.1490
 6001TIP3    H239419   4.111   6.386  15.923 -0.8848  0.0818  0.6032
 6002TIP3   OH239420   1.223   2.176  15.765  0.8345 -0.0929 -0.0374
 6002TIP3    H139421   1.317   2.187  15.752  0.5129  1.5543 -1.1688
 6002TIP3    H239422   1.195   2.120  15.693  1.0767 -1.3138  0.8028
 6003TIP3   OH239423   5.804   1.164   0.248 -0.3120  0.4605  0.3048
 6003TIP3    H139424   5.752   1.084   0.246  1.1815 -0.5557  1.3311
 6003TIP3    H239425   5.746   1.229   0.288 -1.3534 -0.2296 -0.0581
 6004TIP3   OH239426   4.596   0.579  10.417  0.1462  0.1763  0.3828
 6004TIP3    H139427   4.544   0.499  10.416 -0.8267  0.8098 -0.9720
 6004TIP3    H239428   4.683   0.551  10.444 -0.4249 -1.1820  0.8335
 6005TIP3   OH239429   0.543   0.847   1.219  0.4515 -0.0405 -0.1927
 6005TIP3    H139430   0.583   0.808   1.297  2.1019  1.8113 -0.0761
 6005TIP3    H239431   0.450   0.851   1.239  0.6742 -0.9127  1.0886
 6006TIP3   OH239432   4.173   2.596  14.478 -0.0661 -0.0543  0.2413
 6006TIP3    H139433   4.089   2.595  14.525  0.2150 -0.0603  0.7481
 6006TIP3    H239434   4.235   2.631  14.542  0.8116 -2.3541  0.6897
 6007TIP3   OH239435   1.846   1.980  14.631 -0.3514 -0.6270 -0.4811
 6007TIP3    H139436   1.785   2.050  14.610  0.2772  0.2612  0.5628
 6007TIP3    H239437   1.866   1.994  14.724  5.3966  2.2708 -1.9289
 6008TIP3   OH239438   5.769   1.914   4.800 -0.1457  0.3657  0.0368
 6008TIP3    H139439   5.694   1.962   4.765 -0.2409 -0.3592 -0.7517
 6008TIP3    H239440   5.739   1.884   4.886 -0.6589  0.3176 -0.1578
 6009TIP3   OH239441   2.872   5.055  11.835  0.1267 -0.5184 -0.2479
 6009TIP3    H139442   2.889   5.041  11.742 -0.8659  1.3263 -0.7340
 6009TIP3    H239443   2.802   4.994  11.856  0.1216 -0.7057 -0.8070
 6010TIP3   OH239444   3.494   3.011   2.187 -0.0207  0.0940  0.1623
 6010TIP3    H139445   3.480   3.097   2.147 -0.9423 -0.0534  0.1520
 6010TIP3    H239446   3.582   3.016   2.223 -0.2764  1.2409  0.6579
 6011TIP3   OH239447   1.172   1.351  16.680 -0.0949 -0.3623 -0.1571
 6011TIP3    H139448   1.211   1.264  16.673 -1.8083 -1.2209  0.8602
 6011TIP3    H239449   1.082   1.340  16.650  0.0111  1.3435 -1.2156
 6012TIP3   OH239450   2.681   0.759  13.667  0.4367 -0.2626  0.1738
 6012TIP3    H139451   2.748   0.692  13.654  0.3112 -0.4281  0.3643
 6012TIP3    H239452   2.720   0.822  13.727  0.0680 -0.8808  1.0871
 6013TIP3   OH239453   1.992   5.468   0.291  0.0610 -0.2796 -0.0157
 6013TIP3    H139454   2.014   5.505   0.377  0.6667  0.6044 -0.5442
 6013TIP3    H239455   1.906   5.429   0.304  0.6435 -1.1752  1.3000
 6014TIP3   OH239456   0.506   0.953   2.179 -0.6191 -0.1212 -0.1163
 6014TIP3    H139457   0.491   0.940   2.272 -1.5982 -1.5560 -0.4447
 6014TIP3    H239458   0.468   0.875   2.138 -2.6740  1.7681 -1.9272
 6015TIP3   OH239459   4.307   4.601  14.084  0.6894  0.2131  0.9616
 6015TIP3    H139460   4.315   4.560  13.998 -2.3345  0.6703  0.3944
 6015TIP3    H239461   4.327   4.531  14.146  1.1745 -0.5840 -0.0812
 6016TIP3   OH239462   4.990   0.760  13.193 -0.5128 -0.3512 -0.2578
 6016TIP3    H139463   5.073   0.721  13.163  0.0751  0.6998 -0.0237
 6016TIP3    H239464   4.929   0.743  13.122 -0.3800 -2.0839  0.0313
 6017TIP3   OH239465   4.247   5.095   0.356 -0.3718  0.2860 -0.6641
 6017TIP3    H139466   4.276   5.009   0.325 -0.8051  0.6771 -2.1408
 6017TIP3    H239467   4.279   5.099   0.447 -2.9109 -2.6498  0.4475
 6018TIP3   OH239468   3.017   3.176   0.333 -0.1075  0.2371  0.3685
 6018TIP3    H139469   3.070   3.146   0.407  0.8113  0.2317 -0.2810
 6018TIP3    H239470   2.939   3.213   0.374  0.2378 -0.0564  1.3306
 6019TIP3   OH239471   5.611   6.040   5.221 -0.0867 -0.1895  0.1326
 6019TIP3    H139472   5.553   6.032   5.145  0.7988 -0.6213 -0.5074
 6019TIP3    H239473   5.556   6.079   5.289 -1.6712 -2.3526  0.1415
 6020TIP3   OH239474   6.312   2.787   4.516  0.1051 -0.2913 -0.4109
 6020TIP3    H139475   6.342   2.848   4.583  2.0890  0.8151 -2.2425
 6020TIP3    H239476   6.217   2.783   4.527  0.1995  1.3801  1.1761
 6021TIP3   OH239477   6.528   4.079   3.615  0.4096 -0.3252  0.1212
 6021TIP3    H139478   6.488   4.018   3.677 -0.9307  0.6255  0.2072
 6021TIP3    H239479   6.582   4.136   3.669 -1.4942  1.1050  0.5769
 6022TIP3   OH239480   5.343   5.610   4.128  0.1566 -0.5170 -0.2538
 6022TIP3    H139481   5.299   5.529   4.152 -0.8820 -0.0665 -0.6287
 6022TIP3    H239482   5.293   5.679   4.171  1.4875 -0.1219  0.6878
 6023TIP3   OH239483   0.662   2.653  16.026  0.0530  0.8587  0.0152
 6023TIP3    H139484   0.665   2.646  15.930  0.0376  0.5199  0.0376
 6023TIP3    H239485   0.577   2.692  16.045 -0.2654  0.2130 -0.0713
 6024TIP3   OH239486   5.117   4.156  10.551  0.1920  0.3785  0.0538
 6024TIP3    H139487   5.193   4.099  10.535 -0.2592 -0.4167  0.7050
 6024TIP3    H239488   5.042   4.097  10.544 -0.2643  0.8556  0.9751
 6025TIP3   OH239489   0.014   5.145  11.723 -0.3302  0.3182 -0.8973
 6025TIP3    H139490  -0.067   5.177  11.763 -0.6198 -1.2300 -0.2409
 6025TIP3    H239491   0.013   5.051  11.738  3.5508  0.7320  2.7187
 6026TIP3   OH239492   3.368   0.350   3.130 -0.6065 -0.0957 -0.2660
 6026TIP3    H139493   3.399   0.262   3.106  0.2249  0.4365 -1.1874
 6026TIP3    H239494   3.311   0.375   3.058 -0.9003  0.0928  0.0336
 6027TIP3   OH239495   4.831   2.146  13.373  0.0580 -0.3037 -0.1269
 6027TIP3    H139496   4.900   2.211  13.386 -0.5478  0.3424 -0.0658
 6027TIP3    H239497   4.798   2.128  13.461  0.6344 -1.1579 -0.0811
 6028TIP3   OH239498   0.122   3.934   4.879  0.5542 -0.9873 -0.4293
 6028TIP3    H139499   0.128   3.876   4.803  2.3217 -1.6225  0.1773
 6028TIP3    H239500   0.071   3.884   4.944  2.2328 -1.9592  0.1606
 6029TIP3   OH239501   3.728   5.391  11.949 -0.0174  0.0338  0.4001
 6029TIP3    H139502   3.811   5.358  11.914 -0.0356  1.8663 -1.5395
 6029TIP3    H239503   3.665   5.320  11.934  0.4603 -0.0401 -1.3960
 6030TIP3   OH239504   5.213   3.234   0.700  0.0556  0.0689 -0.2745
 6030TIP3    H139505   5.199   3.164   0.636  0.1689  0.9469 -1.2679
 6030TIP3    H239506   5.230   3.188   0.782  2.4436 -1.1289 -1.3893
 6031TIP3   OH239507   3.741   5.966   4.195  0.5884 -0.3103 -0.7890
 6031TIP3    H139508   3.717   5.959   4.287 -0.5666  1.6761 -0.9030
 6031TIP3    H239509   3.836   5.982   4.196  0.6062 -0.4620  0.0366
 6032TIP3   OH239510   1.739   1.314  16.853  0.0722 -0.3335  0.1835
 6032TIP3    H139511   1.828   1.280  16.858  0.3837  0.3570 -0.5214
 6032TIP3    H239512   1.716   1.336  16.943  1.4823  1.6600  0.0937
 6033TIP3   OH239513   1.558   6.769  13.651  0.2168  0.1620  0.0271
 6033TIP3    H139514   1.503   6.698  13.619 -1.5643  0.9328  1.3089
 6033TIP3    H239515   1.644   6.729  13.665 -0.6383 -1.6043  0.2360
 6034TIP3   OH239516   5.177   3.925  13.522 -0.0008  0.4545  0.4453
 6034TIP3    H139517   5.146   4.012  13.496  0.6716  0.7643  0.6711
 6034TIP3    H239518   5.217   3.889  13.444  0.6138  0.7512  0.6213
 6035TIP3   OH239519   2.012   3.775   2.572  0.0505 -0.1311 -0.4042
 6035TIP3    H139520   2.050   3.833   2.506  0.8537 -0.4557 -0.2227
 6035TIP3    H239521   1.976   3.835   2.637 -1.3006  0.2003 -1.4376
 6036TIP3   OH239522   6.562   5.165   2.031 -0.1562 -0.2048 -0.2494
 6036TIP3    H139523   6.642   5.131   2.073  1.6024  0.4567 -2.9356
 6036TIP3    H239524   6.513   5.087   2.006 -0.6397 -0.6176  1.8789
 6037TIP3   OH239525   1.850   2.095   6.346 -0.1183  0.1086  0.2677
 6037TIP3    H139526   1.808   2.162   6.293  1.1172  0.7876  0.1384
 6037TIP3    H239527   1.777   2.048   6.387 -1.0614  0.1109 -1.3543
 6038TIP3   OH239528   3.537   2.364   3.997  0.2412  0.0922 -0.1206
 6038TIP3    H139529   3.524   2.458   3.991  0.4254  0.0996 -0.4033
 6038TIP3    H239530   3.536   2.334   3.906  0.5197 -0.1317 -0.0502
 6039TIP3   OH239531   0.994   5.692  16.145  0.2468  0.9999  0.3418
 6039TIP3    H139532   0.995   5.701  16.240  1.9109 -0.4375  0.4964
 6039TIP3    H239533   1.001   5.597  16.130  2.6199  1.3669 -1.2003
 6040TIP3   OH239534   1.552   1.004   3.997  0.2273 -0.4323  0.5929
 6040TIP3    H139535   1.606   1.023   3.920 -0.3603 -1.9567 -0.1995
 6040TIP3    H239536   1.475   0.960   3.963 -0.9273  0.5617  1.8686
 6041TIP3   OH239537   0.542   5.461  15.721 -0.2897 -0.3958  0.6117
 6041TIP3    H139538   0.447   5.474  15.725 -0.2333  0.1011  0.3934
 6041TIP3    H239539   0.570   5.516  15.647  0.4919  1.4050  2.2239
 6042TIP3   OH239540   3.697   5.157  14.072 -0.5249 -0.8797 -0.5722
 6042TIP3    H139541   3.772   5.122  14.024  2.7989  0.7672  3.1257
 6042TIP3    H239542   3.687   5.246  14.039  0.3550 -0.4871  0.1933
 6043TIP3   OH239543   6.713   3.117  13.781 -0.6324 -0.5794 -0.4311
 6043TIP3    H139544   6.685   3.209  13.777 -2.3006 -0.9531  1.4934
 6043TIP3    H239545   6.797   3.115  13.734  0.0393  2.1627  0.5557
 6044TIP3   OH239546   4.750   3.807  16.306  0.4017  0.4588 -0.2790
 6044TIP3    H139547   4.771   3.879  16.366  0.6623  1.8422 -1.9847
 6044TIP3    H239548   4.736   3.731  16.363 -0.2623  1.9429  1.5885
 6045TIP3   OH239549   2.514   5.925  12.329 -0.8209  0.2453  0.1033
 6045TIP3    H139550   2.554   5.983  12.394  0.1193 -0.9347  0.5893
 6045TIP3    H239551   2.435   5.972  12.302 -0.4817  1.4086  1.0456
 6046TIP3   OH239552   0.183   2.066  13.980  0.1946  0.1477 -0.2505
 6046TIP3    H139553   0.174   2.153  13.942  0.4017  0.0769 -0.4621
 6046TIP3    H239554   0.151   2.007  13.912  1.6486 -0.0631 -0.7688
 6047TIP3   OH239555   4.366   1.669  13.005  0.0167 -0.0464 -0.0428
 6047TIP3    H139556   4.427   1.641  13.073  1.5892  0.7168 -1.0961
 6047TIP3    H239557   4.282   1.679  13.050  0.6251 -1.2830  1.3963
 6048TIP3   OH239558   4.344   6.125  17.154 -0.2702 -0.2323  0.7973
 6048TIP3    H139559   4.267   6.076  17.126  0.3382 -1.0109  0.4729
 6048TIP3    H239560   4.394   6.140  17.073  1.9064 -3.2063  1.4595
 6049TIP3   OH239561   2.486   1.193  13.441 -0.0314 -0.0100  0.2628
 6049TIP3    H139562   2.555   1.245  13.400  1.6875 -2.4335 -0.0008
 6049TIP3    H239563   2.529   1.153  13.517 -1.8894  0.5768  1.6566
 6050TIP3   OH239564   3.779   6.680  16.913 -0.2014  0.2431  0.0323
 6050TIP3    H139565   3.801   6.648  16.826 -1.2249  1.4640 -0.6925
 6050TIP3    H239566   3.843   6.749  16.930  0.5028 -0.5332  0.5995
 6051TIP3   OH239567   5.586   0.595   5.647 -0.5779 -0.8451  0.7427
 6051TIP3    H139568   5.563   0.505   5.668 -2.1595  0.0541  3.1676
 6051TIP3    H239569   5.605   0.635   5.732  2.4719  0.5023 -0.5170
 6052TIP3   OH239570   0.452   0.480   5.652  0.1545  0.0709  0.0097
 6052TIP3    H139571   0.522   0.545   5.660 -0.4187  0.6520  0.3044
 6052TIP3    H239572   0.424   0.463   5.742  1.6900 -2.1241  0.1215
 6053TIP3   OH239573   0.699   5.751  12.257  0.3326 -0.2723 -0.0568
 6053TIP3    H139574   0.625   5.694  12.236  2.2384 -2.2661 -1.6517
 6053TIP3    H239575   0.704   5.811  12.183 -0.0591  0.2805  0.3587
 6054TIP3   OH239576   6.132   0.843  13.012 -0.2074 -0.1012  0.1215
 6054TIP3    H139577   6.110   0.757  13.047  3.4812 -0.6959  1.2579
 6054TIP3    H239578   6.107   0.905  13.081 -0.9390 -0.4519  0.1716
 6055TIP3   OH239579   4.452   1.931  15.270 -0.3616 -0.1021 -0.0383
 6055TIP3    H139580   4.476   1.911  15.179  0.7626 -1.1503  0.4707
 6055TIP3    H239581   4.444   2.026  15.272  0.7969  0.0363 -0.9750
 6056TIP3   OH239582   2.886   1.651  16.684  0.1111 -0.1333  0.0750
 6056TIP3    H139583   2.841   1.607  16.612  0.7130  2.0431 -1.6976
 6056TIP3    H239584   2.834   1.730  16.699  1.8247  1.0545 -0.1600
 6057TIP3   OH239585   0.321   4.369   0.861 -0.0687  0.0281  0.6256
 6057TIP3    H139586   0.305   4.314   0.784 -1.4515  1.4452 -0.1428
 6057TIP3    H239587   0.416   4.367   0.872  0.0219 -1.3474 -0.2527
 6058TIP3   OH239588   5.678   3.897  12.383 -0.2223 -0.3612  0.1621
 6058TIP3    H139589   5.684   3.987  12.415  0.3179 -1.4727  3.3394
 6058TIP3    H239590   5.766   3.876  12.353 -0.1240 -0.1799  0.3231
 6059TIP3   OH239591   3.705   3.093   5.390 -0.4129 -0.0540  0.4717
 6059TIP3    H139592   3.753   3.176   5.386  0.6655 -0.6234  1.2988
 6059TIP3    H239593   3.637   3.102   5.324 -0.9575  1.8977  1.2502
 6060TIP3   OH239594   5.789   4.639  15.460  0.4584 -0.4319 -0.2542
 6060TIP3    H139595   5.868   4.692  15.458 -1.2815  2.2757  0.6752
 6060TIP3    H239596   5.755   4.650  15.549 -0.4713 -2.3463 -0.3379
 6061TIP3   OH239597   1.487   1.356  13.792  0.7281  0.2257  0.0442
 6061TIP3    H139598   1.400   1.327  13.821  0.2234  1.1332 -0.5207
 6061TIP3    H239599   1.544   1.341  13.867  0.1191 -0.5623  0.3579
 6062TIP3   OH239600   4.016   3.182   5.941  0.2160 -0.0389  0.4404
 6062TIP3    H139601   4.096   3.154   5.897  0.9380 -0.4831  1.9900
 6062TIP3    H239602   3.950   3.117   5.917  0.8367 -0.7797  0.7432
 6063TIP3   OH239603   5.666   3.326  13.336  0.3898 -0.1321 -0.2536
 6063TIP3    H139604   5.627   3.334  13.249  0.2273  2.8876  0.0320
 6063TIP3    H239605   5.759   3.310  13.319  0.1092 -1.0534 -0.9601
 6064TIP3   OH239606   0.423   6.103   4.257 -0.3306 -0.0438  0.0316
 6064TIP3    H139607   0.384   6.162   4.320 -2.7194 -3.1045  1.5270
 6064TIP3    H239608   0.379   6.123   4.174 -1.3844  0.0170  0.6048
 6065TIP3   OH239609   4.654   4.777   5.623  0.6555 -0.4160 -0.0014
 6065TIP3    H139610   4.577   4.825   5.591  0.2803 -1.7565 -1.1490
 6065TIP3    H239611   4.638   4.766   5.717  0.0782  0.4527  0.0124
 6066TIP3   OH239612   6.588   0.949  11.772  0.6404 -0.2042 -0.2938
 6066TIP3    H139613   6.580   0.947  11.676 -1.1335 -3.7420 -0.1313
 6066TIP3    H239614   6.683   0.949  11.787  0.9500  0.8325 -2.0289
 6067TIP3   OH239615   4.500   6.069   0.709 -0.4087  0.2740 -0.0345
 6067TIP3    H139616   4.439   6.021   0.654 -1.7125  0.5296  1.1667
 6067TIP3    H239617   4.586   6.049   0.673 -1.0105 -2.1708 -0.1770
 6068TIP3   OH239618   0.635   3.406  17.006  0.1852 -0.1384 -0.3856
 6068TIP3    H139619   0.568   3.356  17.052 -0.5443  0.5665 -0.6806
 6068TIP3    H239620   0.589   3.482  16.970  1.4343  1.1621  0.7244
 6069TIP3   OH239621   1.003   5.096   1.178 -0.1393 -0.8297 -0.5068
 6069TIP3    H139622   0.913   5.067   1.195 -0.5599  0.7104 -0.0558
 6069TIP3    H239623   1.038   5.117   1.265 -0.2805  1.2067 -0.9080
 6070TIP3   OH239624   4.132   3.347   3.652 -0.2962  0.0718 -0.3480
 6070TIP3    H139625   4.080   3.427   3.645 -1.3028 -0.6445 -1.0611
 6070TIP3    H239626   4.223   3.378   3.655 -0.6968  1.2512 -0.2748
 6071TIP3   OH239627   1.831   6.261   5.504 -0.2493 -0.2626 -0.6400
 6071TIP3    H139628   1.905   6.201   5.493 -0.1758 -0.4129  0.6831
 6071TIP3    H239629   1.812   6.291   5.415  1.4189 -0.2017 -0.9916
 6072TIP3   OH239630   2.886   2.867  14.000 -0.4639 -0.1570 -0.0418
 6072TIP3    H139631   2.891   2.960  13.978  3.5317  0.2292  2.1596
 6072TIP3    H239632   2.826   2.862  14.074  0.9578  0.9900  1.2116
 6073TIP3   OH239633   3.456   2.852   4.941 -0.1462 -0.3833  0.3201
 6073TIP3    H139634   3.495   2.890   5.019 -1.2152  0.3289  0.5062
 6073TIP3    H239635   3.506   2.890   4.868 -0.4431  0.4586  0.5569
 6074TIP3   OH239636   1.586   5.994  14.518  0.8654  0.6900  0.2842
 6074TIP3    H139637   1.552   5.988  14.607  0.5767 -2.4255 -0.0097
 6074TIP3    H239638   1.520   6.045  14.471 -0.5479 -0.3430  1.1025
 6075TIP3   OH239639   3.278   2.262  13.560 -0.3240 -0.7680  0.3515
 6075TIP3    H139640   3.363   2.223  13.580  0.4961 -0.3307 -2.0545
 6075TIP3    H239641   3.245   2.210  13.487 -1.4517 -0.0255  0.3241
 6076TIP3   OH239642   4.623   1.194   0.706 -0.3275 -0.0374 -0.1788
 6076TIP3    H139643   4.675   1.192   0.626 -2.7768 -2.5748 -1.8158
 6076TIP3    H239644   4.679   1.157   0.773  1.1551  0.5016 -1.1012
 6077TIP3   OH239645   0.958   4.493   5.356 -0.1353 -0.6116 -0.3727
 6077TIP3    H139646   0.958   4.400   5.378  3.9700 -0.8504 -0.9979
 6077TIP3    H239647   1.021   4.532   5.416 -1.2334  1.6370 -0.6497
 6078TIP3   OH239648   1.665   5.486  14.397 -0.3845  0.5835 -0.2315
 6078TIP3    H139649   1.680   5.437  14.315  0.4759  1.9762 -0.9216
 6078TIP3    H239650   1.636   5.573  14.368 -1.9334  0.4968  0.9922
 6079TIP3   OH239651   1.045   2.583   2.027  0.5182  0.1739 -0.8411
 6079TIP3    H139652   0.957   2.566   2.060 -0.0565  1.4632 -1.6609
 6079TIP3    H239653   1.065   2.672   2.056  0.9573  0.4318 -1.9031
 6080TIP3   OH239654   3.171   0.485   1.448  0.8744  0.1372  0.3037
 6080TIP3    H139655   3.171   0.552   1.380 -1.8404  0.1735  0.3089
 6080TIP3    H239656   3.233   0.419   1.416 -0.6339 -0.0330 -2.4043
 6081TIP3   OH239657   3.708   0.479  14.770 -0.0007 -0.5050 -0.2916
 6081TIP3    H139658   3.653   0.522  14.705 -0.3440  1.7198  1.3971
 6081TIP3    H239659   3.648   0.426  14.822 -0.7555  2.3981  1.9397
 6082TIP3   OH239660   0.628   5.747  16.656 -0.4660 -0.9765 -0.0790
 6082TIP3    H139661   0.680   5.722  16.732  0.5093 -2.0967 -1.1018
 6082TIP3    H239662   0.635   5.842  16.652 -0.1573 -0.9506  0.9686
 6083TIP3   OH239663   5.724   3.709  12.593  0.0999 -0.0495  0.4035
 6083TIP3    H139664   5.718   3.780  12.528 -0.3673 -0.0255  0.4698
 6083TIP3    H239665   5.641   3.713  12.640  0.9878  0.8118  1.9200
 6084TIP3   OH239666   6.761   6.091  13.321 -0.1995 -0.1844 -0.4449
 6084TIP3    H139667   6.850   6.104  13.354  0.0589  0.1390 -1.2321
 6084TIP3    H239668   6.768   6.016  13.262  0.3040  1.8830 -3.1473
 6085TIP3   OH239669   2.328   3.357   4.820 -0.5414 -0.3955 -0.1896
 6085TIP3    H139670   2.259   3.394   4.764 -0.4127  0.3920  0.1652
 6085TIP3    H239671   2.339   3.267   4.788 -1.6168 -0.4803 -0.3644
 6086TIP3   OH239672   3.959   3.478  13.302 -0.0841 -0.1280 -0.2772
 6086TIP3    H139673   3.930   3.460  13.391 -0.3470 -0.1467 -0.3676
 6086TIP3    H239674   4.021   3.550  13.312  0.9582 -1.0653  0.0724
 6087TIP3   OH239675   0.196   4.036   1.379 -0.4039 -0.1827 -0.3555
 6087TIP3    H139676   0.216   4.119   1.335 -1.6418  0.7276  0.7409
 6087TIP3    H239677   0.103   4.022   1.363 -0.5299 -0.5903  0.7101
 6088TIP3   OH239678   6.199   5.237   5.876  0.4011  0.2975 -0.0308
 6088TIP3    H139679   6.216   5.315   5.824  1.4586 -0.4623 -0.8554
 6088TIP3    H239680   6.104   5.236   5.889  0.0859  0.3657 -2.1507
 6089TIP3   OH239681   2.789   1.099   1.772  0.0862 -0.2354  0.1265
 6089TIP3    H139682   2.823   1.011   1.753 -0.0577  0.2067 -2.4012
 6089TIP3    H239683   2.695   1.092   1.754 -0.4019 -0.2329  2.5250
 6090TIP3   OH239684   3.414   2.190   1.895 -0.3624  0.1943  0.8939
 6090TIP3    H139685   3.361   2.183   1.815  2.6189  1.3805 -1.3018
 6090TIP3    H239686   3.408   2.104   1.935 -0.0071 -1.2077 -1.9151
 6091TIP3   OH239687   6.269   6.750  14.188 -0.0567 -0.0754  0.0400
 6091TIP3    H139688   6.297   6.658  14.187 -1.5434 -0.5315 -0.3838
 6091TIP3    H239689   6.221   6.762  14.106  1.1591  1.4230 -0.4745
 6092TIP3   OH239690   4.335   0.025  15.358  0.5058 -0.9361  0.0970
 6092TIP3    H139691   4.421  -0.001  15.390 -0.3940 -1.8707  1.8642
 6092TIP3    H239692   4.275  -0.002  15.427 -1.1148  0.5388 -0.6988
 6093TIP3   OH239693   0.410   1.426   3.013  0.0876  0.4202  0.4229
 6093TIP3    H139694   0.345   1.448   2.946  0.2647 -1.4516 -0.3804
 6093TIP3    H239695   0.357   1.402   3.090 -0.1790 -0.7191 -0.1094
 6094TIP3   OH239696   5.917   0.622   3.626 -0.2665  0.5441  0.1501
 6094TIP3    H139697   5.958   0.558   3.684 -0.2846 -0.4778 -0.9486
 6094TIP3    H239698   5.975   0.699   3.629  0.4606 -0.0132  0.4545
 6095TIP3   OH239699   1.306   2.294   1.691  0.2912 -0.0879  0.5544
 6095TIP3    H139700   1.335   2.248   1.612  1.4540  0.3981  0.6735
 6095TIP3    H239701   1.221   2.330   1.668  1.8031  2.4111 -1.4862
 6096TIP3   OH239702   4.036   1.977   5.563  0.1383 -0.1337 -0.1911
 6096TIP3    H139703   3.980   1.905   5.592 -0.1488 -0.0185 -0.4505
 6096TIP3    H239704   4.011   2.051   5.618  0.6792 -0.3213  0.3140
 6097TIP3   OH239705   2.016   1.900  13.522 -0.1531  0.2860  0.1766
 6097TIP3    H139706   2.102   1.929  13.553 -0.8323  1.9210  0.6182
 6097TIP3    H239707   2.030   1.878  13.430  0.7566  0.4198  0.2719
 6098TIP3   OH239708   1.991   4.536  14.715  0.0881 -0.1861 -0.5680
 6098TIP3    H139709   1.906   4.555  14.674 -0.2638  0.8476  0.5816
 6098TIP3    H239710   1.979   4.450  14.756 -1.3178  1.1029  1.8568
 6099TIP3   OH239711   1.921   2.249   4.755 -0.1916  0.3732 -0.5018
 6099TIP3    H139712   1.949   2.251   4.663  1.1990 -1.5973 -0.1412
 6099TIP3    H239713   1.861   2.175   4.760  1.9577 -1.3351  0.7587
 6100TIP3   OH239714   3.651   2.646  14.381  0.4123 -0.6200 -0.2392
 6100TIP3    H139715   3.710   2.700  14.328 -0.6145  1.6328  0.8475
 6100TIP3    H239716   3.670   2.671  14.471 -0.3503 -1.8103  0.2647
 6101TIP3   OH239717   5.381   0.993  11.501 -0.4308  0.1724 -0.2390
 6101TIP3    H139718   5.424   0.973  11.418 -0.2274  0.0769 -0.1119
 6101TIP3    H239719   5.288   0.976  11.485 -0.3487 -0.1793 -0.3433
 6102TIP3   OH239720   0.950   3.053  11.542  0.6531  0.0460  0.3100
 6102TIP3    H139721   0.934   3.007  11.459  0.4949 -0.7513  0.7830
 6102TIP3    H239722   1.044   3.071  11.540  0.7302 -0.3538  0.1448
 6103TIP3   OH239723   4.470   3.220  15.318  0.0957  0.4487  0.4688
 6103TIP3    H139724   4.474   3.316  15.317 -3.5713  0.6816  1.6313
 6103TIP3    H239725   4.491   3.194  15.228  0.6455  2.3270  0.0342
 6104TIP3   OH239726   4.528   5.533   1.885 -0.1274 -0.1706  0.0451
 6104TIP3    H139727   4.479   5.543   1.968  1.9708 -1.3995  1.4667
 6104TIP3    H239728   4.597   5.599   1.890 -1.5614  1.5449 -1.9529
 6105TIP3   OH239729   0.005   2.957  13.165 -0.1906 -0.0437 -0.3736
 6105TIP3    H139730  -0.028   2.976  13.078  0.3619  2.2404 -0.1188
 6105TIP3    H239731  -0.058   2.998  13.224  0.5687  0.2681  0.2333
 6106TIP3   OH239732   3.371   1.052  14.729 -0.0619  0.7459  0.1351
 6106TIP3    H139733   3.300   1.116  14.721 -1.2437 -0.5701 -0.0532
 6106TIP3    H239734   3.344   0.980  14.672  1.1950  0.0162  0.4601
 6107TIP3   OH239735   1.944   3.979  15.426 -0.6733 -0.2004 -0.0164
 6107TIP3    H139736   1.974   3.937  15.506 -1.0280  0.4781  0.4758
 6107TIP3    H239737   2.017   3.968  15.364  0.9550  2.1757  1.4211
 6108TIP3   OH239738   0.791   5.252   1.014 -0.0961 -0.0790 -0.9125
 6108TIP3    H139739   0.809   5.192   1.086 -1.2594  1.7802  0.9760
 6108TIP3    H239740   0.875   5.297   0.998  0.2914 -0.8544 -1.0863
 6109TIP3   OH239741   1.429   1.629  14.418 -0.4336  0.5050 -0.2143
 6109TIP3    H139742   1.493   1.693  14.449 -0.0786  0.0448  0.0074
 6109TIP3    H239743   1.429   1.639  14.323 -1.2775  1.6877 -0.1058
 6110TIP3   OH239744   2.141   2.089   3.717 -0.2107  0.0940 -0.3327
 6110TIP3    H139745   2.081   2.039   3.662 -0.8034 -1.7442  1.9080
 6110TIP3    H239746   2.150   2.037   3.797  0.3929  2.8187  1.4605
 6111TIP3   OH239747   1.150   2.840  11.457  0.1046  0.5771 -0.3214
 6111TIP3    H139748   1.066   2.798  11.471 -0.3303  1.3948 -0.4201
 6111TIP3    H239749   1.157   2.849  11.361 -0.2376  1.5773 -0.2579
 6112TIP3   OH239750   4.307   1.443   0.398 -0.1672 -0.5157  0.0426
 6112TIP3    H139751   4.333   1.466   0.487 -0.4572  0.2593 -0.0698
 6112TIP3    H239752   4.374   1.381   0.369  2.0489  2.0895 -0.5660
 6113TIP3   OH239753   6.273   6.060  15.056  0.3047  0.0483 -0.4214
 6113TIP3    H139754   6.314   5.999  14.994 -0.5598 -0.5948 -0.3695
 6113TIP3    H239755   6.187   6.078  15.019  0.0204  0.1400  0.2856
 6114TIP3   OH239756   0.722   5.253  15.601 -0.4829  0.4667  0.7331
 6114TIP3    H139757   0.657   5.184  15.587  0.0338 -0.0525  0.8744
 6114TIP3    H239758   0.670   5.330  15.622 -1.3483  1.4138 -4.2456
 6115TIP3   OH239759   0.462   1.415   0.784  0.5796  0.4933  0.5495
 6115TIP3    H139760   0.453   1.430   0.690  0.8988  1.5360  0.6854
 6115TIP3    H239761   0.533   1.351   0.791 -0.2972 -0.5489  0.0181
 6116TIP3   OH239762   1.603   5.208   4.294  0.1224  0.3598 -0.8285
 6116TIP3    H139763   1.510   5.226   4.291  0.1972  0.6904 -1.2248
 6116TIP3    H239764   1.632   5.217   4.203  0.6618  0.9090 -0.6077
 6117TIP3   OH239765   3.350   2.102  15.657 -0.2536 -0.0836 -0.0785
 6117TIP3    H139766   3.274   2.048  15.679 -1.6993  0.9138 -2.3949
 6117TIP3    H239767   3.420   2.040  15.639 -0.5000 -1.0227  2.0813
 6118TIP3   OH239768   5.174   0.748   3.611  0.7406  0.0314  0.5761
 6118TIP3    H139769   5.104   0.719   3.552  0.7760 -0.7256  0.9034
 6118TIP3    H239770   5.253   0.705   3.578  0.7997 -0.2240  1.0527
 6119TIP3   OH239771   1.004   1.627  17.148 -0.1651 -0.1127 -0.1888
 6119TIP3    H139772   0.919   1.588  17.168  0.1812 -0.6838  0.1833
 6119TIP3    H239773   1.062   1.597  17.218 -0.3783  2.7338  1.2573
 6120TIP3   OH239774   1.378   1.162  11.257 -0.1629 -0.0852  0.3268
 6120TIP3    H139775   1.356   1.081  11.211 -0.8672  1.1345 -1.6017
 6120TIP3    H239776   1.407   1.134  11.343 -0.0003 -2.4085 -0.4314
 6121TIP3   OH239777   1.392   6.658  16.214  0.5956 -0.4358  0.6671
 6121TIP3    H139778   1.331   6.636  16.143  0.4120 -0.8712  0.9502
 6121TIP3    H239779   1.454   6.585  16.215  0.8438 -0.2236  0.6845
 6122TIP3   OH239780   1.627   6.755   1.137  0.5946  0.1482  0.0938
 6122TIP3    H139781   1.619   6.841   1.096 -1.6535  0.4661  1.1464
 6122TIP3    H239782   1.647   6.695   1.065  3.2323  1.6883 -0.4977
 6123TIP3   OH239783   4.202   3.821   5.259 -0.2931  0.4676  0.2146
 6123TIP3    H139784   4.239   3.735   5.236 -0.8771  0.3053 -0.1425
 6123TIP3    H239785   4.136   3.801   5.326 -1.9635  0.3715 -1.4267
 6124TIP3   OH239786   3.171   5.328  14.876  0.3942 -0.0443 -0.3830
 6124TIP3    H139787   3.155   5.413  14.916 -0.1263  0.7282 -2.1692
 6124TIP3    H239788   3.154   5.342  14.782  0.7740 -1.9852 -0.7651
 6125TIP3   OH239789   4.703   1.401  16.311  0.2610 -0.0652  0.3123
 6125TIP3    H139790   4.781   1.444  16.348  0.3766 -0.6615  0.7818
 6125TIP3    H239791   4.654   1.471  16.269  1.3747  0.2096 -0.5407
 6126TIP3   OH239792   3.841   1.454  13.468 -0.1590  0.1109  0.0392
 6126TIP3    H139793   3.876   1.368  13.446  1.2225  0.0891  2.1222
 6126TIP3    H239794   3.788   1.479  13.393  0.2387 -2.1188 -1.0161
 6127TIP3   OH239795   2.910   5.405   3.092 -0.0447 -0.1391  0.2429
 6127TIP3    H139796   2.897   5.453   3.010  2.7851  0.8702  0.3396
 6127TIP3    H239797   2.896   5.313   3.069 -1.3025  0.3235 -0.8863
 6128TIP3   OH239798   1.982   0.839  11.064  0.2225 -0.1636 -0.4678
 6128TIP3    H139799   1.918   0.807  11.001 -1.1774 -1.3974  1.5048
 6128TIP3    H239800   2.048   0.770  11.068 -0.0792 -0.4350 -0.0631
 6129TIP3   OH239801   6.223   1.113   4.669  0.0035 -0.1851 -0.6149
 6129TIP3    H139802   6.281   1.070   4.606  0.2314 -1.0436  0.1647
 6129TIP3    H239803   6.215   1.203   4.637 -0.3533 -0.7504 -2.1929
 6130TIP3   OH239804   5.785   6.121  13.528  0.1360 -0.3125  0.3442
 6130TIP3    H139805   5.788   6.195  13.466 -1.2345  0.0339  0.6716
 6130TIP3    H239806   5.723   6.060  13.488  0.2966 -0.7035  0.7017
 6131TIP3   OH239807   2.386   1.183   4.413  0.1281  0.1492 -0.0923
 6131TIP3    H139808   2.406   1.126   4.487  0.2760  1.2027  0.6883
 6131TIP3    H239809   2.430   1.266   4.434  1.4298 -0.0125 -2.0614
 6132TIP3   OH239810   6.459   0.616   4.344 -0.3049 -0.1518  0.3060
 6132TIP3    H139811   6.375   0.570   4.349 -1.3027  1.7869  2.2115
 6132TIP3    H239812   6.436   0.703   4.311  1.3998 -0.5819 -2.1576
 6133TIP3   OH239813   5.563   4.145  11.625 -0.3402 -0.2556 -0.9280
 6133TIP3    H139814   5.580   4.056  11.657  2.7102  0.1851 -1.1838
 6133TIP3    H239815   5.617   4.201  11.681 -0.4321  1.2291 -2.3002
 6134TIP3   OH239816   2.838   0.815  17.207  0.3754 -0.9176  0.6359
 6134TIP3    H139817   2.876   0.772  17.284  0.4679 -1.5839  0.2261
 6134TIP3    H239818   2.745   0.793  17.210 -0.0132  0.8461  1.7229
 6135TIP3   OH239819   0.577   0.430   2.674  0.0645  0.3747 -0.3803
 6135TIP3    H139820   0.662   0.469   2.695 -0.0373  0.1469  0.4760
 6135TIP3    H239821   0.525   0.440   2.754  0.9363 -3.9666  0.8485
 6136TIP3   OH239822   3.746   5.616  15.128 -0.6954  0.2560 -0.4463
 6136TIP3    H139823   3.810   5.639  15.195 -0.4101  0.2386 -0.7095
 6136TIP3    H239824   3.758   5.522  15.114 -2.1712 -0.1637  0.9470
 6137TIP3   OH239825   4.753   1.578   3.070  0.4915  0.4040  0.0044
 6137TIP3    H139826   4.823   1.625   3.026  0.7460 -0.0849 -0.1130
 6137TIP3    H239827   4.711   1.527   3.000  0.2128  0.4553  0.1309
 6138TIP3   OH239828   1.413   1.463  16.587  0.2898  0.1961  0.7332
 6138TIP3    H139829   1.358   1.431  16.659 -1.1748 -2.2385 -1.3573
 6138TIP3    H239830   1.498   1.421  16.601  0.7828  1.7014  2.3916
 6139TIP3   OH239831   5.532   3.946   2.962 -0.2244 -0.2383 -0.3355
 6139TIP3    H139832   5.529   3.851   2.961  1.2190 -0.3142  0.4394
 6139TIP3    H239833   5.442   3.974   2.978 -0.8276 -1.4407 -1.5888
 6140TIP3   OH239834   1.961   5.441  14.864 -0.5538  0.0099  0.1255
 6140TIP3    H139835   1.905   5.436  14.786 -0.8014  1.2950  0.2102
 6140TIP3    H239836   1.911   5.396  14.932 -0.7531 -0.2805 -0.2068
 6141TIP3   OH239837   3.880   4.940  11.746 -0.0990 -0.5342 -0.7087
 6141TIP3    H139838   3.791   4.973  11.759 -0.3009 -0.9554 -1.0157
 6141TIP3    H239839   3.927   4.966  11.825  0.3425  2.4563 -1.8754
 6142TIP3   OH239840   2.059   3.975  11.777 -0.2850 -0.2258 -1.0356
 6142TIP3    H139841   2.083   4.043  11.840 -2.8948  1.7308 -2.1092
 6142TIP3    H239842   2.087   3.893  11.819  1.7910  1.3805  0.7963
 6143TIP3   OH239843   4.420   4.597   3.574  0.8551  0.0915  0.3063
 6143TIP3    H139844   4.434   4.690   3.590  1.4018 -0.1806  1.4326
 6143TIP3    H239845   4.391   4.562   3.658  0.1612 -0.6662 -0.2409
 6144TIP3   OH239846   6.599   0.088   3.849 -0.0281  0.3522  0.4208
 6144TIP3    H139847   6.649   0.112   3.927 -2.8054 -0.1696  2.4412
 6144TIP3    H239848   6.552   0.168   3.825  0.9497  0.5619 -0.8729
 6145TIP3   OH239849   5.858   2.331   3.587  0.1713  0.0936 -0.0265
 6145TIP3    H139850   5.932   2.391   3.596 -0.6979  0.8063  2.8384
 6145TIP3    H239851   5.883   2.253   3.636 -0.7799  0.1536  0.5631
 6146TIP3   OH239852   4.384   2.781   0.193  0.8722 -0.7932  0.2030
 6146TIP3    H139853   4.326   2.837   0.245  2.4539 -0.1410  1.3081
 6146TIP3    H239854   4.353   2.692   0.210  0.1270 -0.4473  0.6983
 6147TIP3   OH239855   4.045   4.114   5.336  0.0500 -0.3495  0.2402
 6147TIP3    H139856   4.089   4.112   5.421 -0.1234 -0.7007  0.3200
 6147TIP3    H239857   4.010   4.026   5.324 -0.3881 -0.1532  0.0485
 6148TIP3   OH239858   1.852   4.512  11.861 -0.1510  0.6931  0.1761
 6148TIP3    H139859   1.860   4.458  11.782 -1.3561  0.0027  0.5050
 6148TIP3    H239860   1.932   4.494  11.910  0.3521  0.7002 -0.6270
 6149TIP3   OH239861   3.387   5.885  12.802 -0.4033  0.4754 -0.2954
 6149TIP3    H139862   3.343   5.901  12.885 -0.5122  0.4322 -0.3432
 6149TIP3    H239863   3.436   5.804  12.815  0.3503  0.9819  0.0306
 6150TIP3   OH239864   2.731   6.751  11.929  0.3244 -0.4713  0.3771
 6150TIP3    H139865   2.727   6.663  11.967  1.8861 -0.7332 -0.0666
 6150TIP3    H239866   2.639   6.779  11.926 -0.0233 -1.2946  2.3557
 6151TIP3   OH239867   4.013   4.256   3.661 -0.2484  0.8662  1.1103
 6151TIP3    H139868   4.061   4.337   3.650  2.1790 -0.7881 -1.0585
 6151TIP3    H239869   4.076   4.195   3.700 -0.7217 -1.1195 -1.0647
 6152TIP3   OH239870   5.851   2.456   5.654  0.4487  0.3227  0.1944
 6152TIP3    H139871   5.913   2.387   5.632 -0.6511 -0.3567 -0.8150
 6152TIP3    H239872   5.870   2.526   5.591 -0.3669 -0.2209 -0.6573
 6153TIP3   OH239873   1.884   5.524  15.417 -0.0606 -0.0820  0.1916
 6153TIP3    H139874   1.849   5.502  15.504  2.0417  0.9448  1.3249
 6153TIP3    H239875   1.971   5.485  15.416  0.3955  0.9588 -1.0070
 6154TIP3   OH239876   2.893   1.985  13.713 -0.1403 -0.4854  0.1614
 6154TIP3    H139877   2.901   2.073  13.675 -3.4339  0.4143  1.3394
 6154TIP3    H239878   2.941   1.928  13.654  2.4968  2.1665 -0.3818
 6155TIP3   OH239879   3.044   2.792  12.905 -0.1221  0.0472  0.2214
 6155TIP3    H139880   2.962   2.754  12.873 -0.1942  0.1215  0.3174
 6155TIP3    H239881   3.060   2.867  12.849  0.5045 -0.6655 -0.5611
 6156TIP3   OH239882   3.830   3.603  13.074  0.1373  0.1777 -0.3127
 6156TIP3    H139883   3.748   3.561  13.049 -0.3697  1.3943 -0.7390
 6156TIP3    H239884   3.872   3.541  13.133 -1.1486 -0.4007  0.0027
 6157TIP3   OH239885   4.605   2.834  16.485 -0.7372 -0.1945  0.2871
 6157TIP3    H139886   4.650   2.903  16.436 -2.0856  1.5915  1.5302
 6157TIP3    H239887   4.652   2.828  16.568  0.8898 -2.5034 -0.7358
 6158TIP3   OH239888   4.104   2.672  15.463  0.0336  0.4033  0.1785
 6158TIP3    H139889   4.040   2.650  15.531 -0.6394 -0.5498 -0.7455
 6158TIP3    H239890   4.185   2.631  15.492  0.1825  1.4145  1.2361
 6159TIP3   OH239891   1.164   5.624  15.322 -0.5298  0.2726  0.1762
 6159TIP3    H139892   1.106   5.636  15.247 -1.0780 -0.6595  0.4265
 6159TIP3    H239893   1.174   5.711  15.360 -0.1790  0.7569 -1.0249
 6160TIP3   OH239894   2.615   5.366   5.995 -0.5054 -0.3669 -0.1480
 6160TIP3    H139895   2.547   5.432   6.010  0.1031 -0.1803  1.9190
 6160TIP3    H239896   2.658   5.395   5.915 -1.8601  0.3748 -0.6254
 6161TIP3   OH239897   0.539   5.491  12.076  0.5060 -0.0951 -0.5478
 6161TIP3    H139898   0.599   5.426  12.112  1.0155  0.3934 -0.5219
 6161TIP3    H239899   0.499   5.447  12.000  2.0826  0.1389 -1.5271
 6162TIP3   OH239900   3.892   3.690   2.223 -0.1191  0.3667 -0.3432
 6162TIP3    H139901   3.917   3.623   2.159 -0.7447  0.6576 -0.8935
 6162TIP3    H239902   3.798   3.700   2.211 -0.3035  0.1819  0.8580
 6163TIP3   OH239903   4.200   5.036  10.959  0.0950 -0.1512 -0.0858
 6163TIP3    H139904   4.144   5.025  10.882 -0.4422  0.3363  0.2297
 6163TIP3    H239905   4.194   5.129  10.980  0.0211 -0.3296  0.7131
 6164TIP3   OH239906   1.407   2.260  13.252  0.4292 -0.6089 -0.2862
 6164TIP3    H139907   1.389   2.353  13.241 -1.8048 -1.0292 -0.3787
 6164TIP3    H239908   1.389   2.221  13.167 -1.6870 -1.5595  0.5573
 6165TIP3   OH239909   2.998   5.938   1.074  0.7368  0.6310 -0.0473
 6165TIP3    H139910   3.089   5.957   1.098  1.1306 -2.1200  0.8159
 6165TIP3    H239911   2.952   5.934   1.158  0.7935 -2.5686 -0.1070
 6166TIP3   OH239912   3.295   6.072  11.014  0.8715 -0.2868 -0.1213
 6166TIP3    H139913   3.367   6.121  10.973  2.3779 -1.2704  1.3043
 6166TIP3    H239914   3.282   5.997  10.956  1.9099 -0.8108  0.3004
 6167TIP3   OH239915   5.816   4.103  14.905  0.2124  0.1516 -0.0799
 6167TIP3    H139916   5.757   4.032  14.927  0.4365  0.0425  0.1776
 6167TIP3    H239917   5.876   4.108  14.980 -0.0199  0.8377  0.0597
 6168TIP3   OH239918   3.006   6.715  10.807 -0.4739  0.1919 -0.0659
 6168TIP3    H139919   2.967   6.630  10.828 -1.3956  0.1325 -1.8625
 6168TIP3    H239920   2.981   6.772  10.880 -0.6517 -0.8320  0.6849
 6169TIP3   OH239921   2.292   6.088  12.281  0.0136  0.7586  0.3017
 6169TIP3    H139922   2.321   6.151  12.347 -0.3259  2.9575 -1.5650
 6169TIP3    H239923   2.203   6.114  12.261  0.4332  0.7277 -1.7011
 6170TIP3   OH239924   3.085   4.560  13.161  0.0968 -1.0569 -0.4077
 6170TIP3    H139925   3.056   4.577  13.071 -4.8773 -1.0499  1.0244
 6170TIP3    H239926   3.109   4.468  13.162 -1.1073 -1.3938 -1.4869
 6171TIP3   OH239927   2.612   0.277  11.339  0.2903 -0.2257 -0.4189
 6171TIP3    H139928   2.567   0.361  11.332 -0.8412 -0.5157  2.7390
 6171TIP3    H239929   2.702   0.300  11.361  0.0979  0.1611 -0.0363
 6172TIP3   OH239930   1.829   0.978   0.849 -0.2948 -0.2096 -0.2319
 6172TIP3    H139931   1.863   0.962   0.936  0.9543 -0.7752 -0.8097
 6172TIP3    H239932   1.906   0.997   0.795 -1.1638  1.3423 -0.9577
 6173TIP3   OH239933   4.270   1.763   4.016 -0.2409  0.8040 -0.3232
 6173TIP3    H139934   4.364   1.755   4.035 -0.1800 -1.0917 -1.3126
 6173TIP3    H239935   4.228   1.759   4.101  0.4251 -0.9713 -0.0718
 6174TIP3   OH239936   5.166   3.710   0.300 -0.2174 -0.2180 -0.3157
 6174TIP3    H139937   5.144   3.766   0.225  0.5967 -0.2291 -0.5655
 6174TIP3    H239938   5.261   3.706   0.300 -0.2626 -1.4581 -0.1856
 6175TIP3   OH239939   4.315   3.512  14.718 -0.2565 -0.8642 -0.2535
 6175TIP3    H139940   4.305   3.469  14.632  1.4535 -0.2217 -0.7899
 6175TIP3    H239941   4.243   3.477  14.770 -0.1925 -2.7342 -1.3592
 6176TIP3   OH239942   3.885   4.874  12.539  0.0436  0.1654 -0.4114
 6176TIP3    H139943   3.956   4.915  12.489 -0.5195 -2.0222 -3.1403
 6176TIP3    H239944   3.805   4.905  12.497 -0.5432  0.3306  0.8103
 6177TIP3   OH239945   5.072   0.994  15.853 -0.5138  0.6821  0.1650
 6177TIP3    H139946   5.028   1.010  15.769  1.2542 -1.6218 -1.2731
 6177TIP3    H239947   5.145   1.055  15.854  0.2680 -0.2067 -0.6520
 6178TIP3   OH239948   6.528   1.393  12.326 -0.2219  0.4230 -0.4164
 6178TIP3    H139949   6.480   1.372  12.246 -0.9200 -0.7080  0.2969
 6178TIP3    H239950   6.499   1.481  12.348 -1.3986  0.0447 -0.4131
 6179TIP3   OH239951   3.009   1.868   1.610 -0.1484 -0.3948 -0.2675
 6179TIP3    H139952   2.997   1.776   1.636 -2.7161  0.9846  3.8064
 6179TIP3    H239953   2.920   1.899   1.591  0.7198  1.2113 -1.8409
 6180TIP3   OH239954   6.198   0.580   2.180 -0.4833  0.1379 -0.2083
 6180TIP3    H139955   6.216   0.644   2.249 -0.2200  0.3411 -0.4648
 6180TIP3    H239956   6.165   0.504   2.227 -1.7197  0.8096  0.0161
 6181TIP3   OH239957   4.817   2.716   0.283 -0.2763  0.1415 -0.1877
 6181TIP3    H139958   4.909   2.742   0.287  0.0965 -1.4201  2.8875
 6181TIP3    H239959   4.770   2.799   0.274  1.3550  1.0566 -0.5747
 6182TIP3   OH239960   3.895   0.495   5.775  0.1000 -0.2198  0.1865
 6182TIP3    H139961   3.823   0.517   5.717  0.6304  0.4927 -0.2172
 6182TIP3    H239962   3.922   0.407   5.748  0.4520  0.1704 -0.7629
 6183TIP3   OH239963   1.627   1.451  10.622  0.2029  0.8810  0.0008
 6183TIP3    H139964   1.654   1.417  10.536  0.5913  2.7085 -0.6220
 6183TIP3    H239965   1.648   1.380  10.683  1.0685  0.0369 -1.2388
 6184TIP3   OH239966   4.783   0.274  12.679 -0.5673  0.0465 -0.0637
 6184TIP3    H139967   4.725   0.329  12.626 -0.4634  0.6052  0.3935
 6184TIP3    H239968   4.840   0.230  12.615 -0.8206  0.2791 -0.4481
 6185TIP3   OH239969   5.808   2.743  16.195  0.8150  0.0138  0.3585
 6185TIP3    H139970   5.790   2.687  16.120 -1.8084 -0.0051  0.9397
 6185TIP3    H239971   5.872   2.806  16.163  1.7681 -1.6478 -1.0906
 6186TIP3   OH239972   4.789   0.203   0.651  0.4095 -0.6965  0.4374
 6186TIP3    H139973   4.711   0.237   0.695  2.0103 -0.0508  2.8796
 6186TIP3    H239974   4.831   0.281   0.614  0.2053 -0.9841 -0.4292
 6187TIP3   OH239975   2.857   3.695   5.437  0.2026 -0.1108 -0.3773
 6187TIP3    H139976   2.762   3.702   5.451 -0.0086 -0.7849 -1.4014
 6187TIP3    H239977   2.891   3.780   5.465 -0.8109  0.4621 -0.8314
 6188TIP3   OH239978   0.444   0.115  15.628  0.3890 -0.6918  0.3827
 6188TIP3    H139979   0.411   0.098  15.540  2.2049  2.4050 -0.9643
 6188TIP3    H239980   0.369   0.151  15.675 -0.4898 -2.0338  0.0593
 6189TIP3   OH239981   0.054   6.417  14.994  0.2455 -0.1880  0.4577
 6189TIP3    H139982   0.087   6.486  14.936  0.6013 -1.3700 -0.7836
 6189TIP3    H239983   0.057   6.338  14.940  2.2956 -1.6728  2.6447
 6190TIP3   OH239984   6.555   4.876  13.222  0.2256  0.3743 -0.7083
 6190TIP3    H139985   6.629   4.867  13.282  0.5116  1.0275 -0.9591
 6190TIP3    H239986   6.527   4.786  13.205 -0.3521  0.2151  0.9949
 6191TIP3   OH239987   2.882   5.608   5.314  0.0567  0.2829 -0.5697
 6191TIP3    H139988   2.937   5.551   5.368  1.4305  2.6015  0.5425
 6191TIP3    H239989   2.797   5.564   5.313  1.0506 -1.7770  0.2495
 6192TIP3   OH239990   4.605   0.889  12.392 -0.0068  0.4675  0.3329
 6192TIP3    H139991   4.554   0.837  12.454 -0.0524  0.6027  0.4079
 6192TIP3    H239992   4.640   0.824  12.330 -1.3521  0.5213 -0.4999
 6193TIP3   OH239993   6.166   3.911   0.593  0.2182  0.1547  0.3079
 6193TIP3    H139994   6.223   3.967   0.541  0.5205  0.2749  0.7676
 6193TIP3    H239995   6.215   3.829   0.602  1.2718  0.9926  2.5206
 6194TIP3   OH239996   5.652   5.588  15.222 -0.3232 -0.3556  0.5956
 6194TIP3    H139997   5.572   5.618  15.266 -1.4251 -1.0425 -0.8752
 6194TIP3    H239998   5.635   5.606  15.129  0.5100 -2.1482  0.0873
 6195TIP3   OH239999   0.245   2.158   0.822 -0.3768 -0.9644 -0.1232
 6195TIP3    H140000   0.217   2.144   0.912 -0.9641 -2.2748 -0.4935
 6195TIP3    H240001   0.208   2.084   0.774  0.6782 -0.7508 -1.2811
 6196TIP3   OH240002   4.172   5.338   4.019  0.2262  0.5842  0.3049
 6196TIP3    H140003   4.178   5.351   3.925 -0.6532 -2.2052 -0.1850
 6196TIP3    H240004   4.106   5.270   4.030  0.0402  1.1240  2.9625
 6197TIP3   OH240005   6.108   1.111  16.961 -0.0309 -0.9027 -0.5882
 6197TIP3    H140006   6.063   1.050  17.019 -0.2860 -0.7175 -0.5907
 6197TIP3    H240007   6.164   1.163  17.019 -0.4062 -0.6105 -0.4882
 6198TIP3   OH240008   6.743   2.878  10.131  0.1343  0.6829 -0.3630
 6198TIP3    H140009   6.671   2.925  10.090 -0.4771 -0.2450 -0.3741
 6198TIP3    H240010   6.769   2.933  10.205  0.1654  1.5636 -1.0248
 6199TIP3   OH240011   0.239   0.381  12.529  0.5554  0.2495 -0.0311
 6199TIP3    H140012   0.270   0.469  12.506  0.6773 -0.3229 -2.0678
 6199TIP3    H240013   0.316   0.325  12.520  0.4555 -0.1023  1.1857
 6200TIP3   OH240014   6.535   2.329  11.496  0.6090  0.3637  0.2986
 6200TIP3    H140015   6.605   2.385  11.529  1.6958 -1.3544  0.9698
 6200TIP3    H240016   6.512   2.273  11.570  1.0512 -1.5415 -0.9783
 6201TIP3   OH240017   4.628   1.590  16.142  0.6057  0.7126  0.0761
 6201TIP3    H140018   4.615   1.549  16.056  0.8183 -0.3780  0.5529
 6201TIP3    H240019   4.546   1.636  16.159  0.1382 -0.0025 -0.2142
 6202TIP3   OH240020   2.621   0.027   3.528 -0.2538  1.0765  0.0230
 6202TIP3    H140021   2.615  -0.007   3.617  0.4378  0.5198 -0.1452
 6202TIP3    H240022   2.561  -0.027   3.477 -1.6766  2.2585  0.4040
 6203TIP3   OH240023   6.060   1.847   2.993 -0.0872  0.3567  0.4181
 6203TIP3    H140024   6.109   1.805   3.063 -2.0283 -0.1319  1.5045
 6203TIP3    H240025   6.012   1.917   3.036 -2.0430 -0.5562 -0.2378
 6204TIP3   OH240026   5.775   3.233   4.687 -0.0470  0.0844 -0.1872
 6204TIP3    H140027   5.791   3.193   4.773 -0.9764  1.9903  0.9102
 6204TIP3    H240028   5.857   3.277   4.665 -0.8784  2.6382  1.4651
 6205TIP3   OH240029   0.431   0.826   3.057  0.1873  0.9752 -0.4730
 6205TIP3    H140030   0.441   0.785   3.143  1.9935  0.3104 -0.9752
 6205TIP3    H240031   0.450   0.918   3.072 -2.0864  1.3411  0.3174
 6206TIP3   OH240032   4.273   4.826   0.005  0.1230  0.0377  0.4230
 6206TIP3    H140033   4.295   4.916   0.027  0.1169  0.0859  0.2217
 6206TIP3    H240034   4.345   4.796  -0.051  0.3976 -0.2474  0.9170
 6207TIP3   OH240035   2.720   3.152   3.211 -0.1709  0.1113  0.4747
 6207TIP3    H140036   2.698   3.059   3.210 -0.2677  0.1349 -1.2984
 6207TIP3    H240037   2.795   3.159   3.270  1.3528 -1.4484 -1.2418
 6208TIP3   OH240038   4.913   2.031  16.336 -0.0800  0.1965  0.1280
 6208TIP3    H140039   4.898   1.940  16.310 -0.3835 -0.1481  1.4915
 6208TIP3    H240040   4.858   2.043  16.413  0.8479  1.1873  0.6435
 6209TIP3   OH240041   1.145   3.956  13.208  0.4428  0.1180 -0.2588
 6209TIP3    H140042   1.235   3.972  13.180  0.3546  0.3864 -0.3821
 6209TIP3    H240043   1.113   3.888  13.149  1.1636 -1.2816  0.9307
 6210TIP3   OH240044   4.294   4.661   0.795  0.8136  0.0219  0.2296
 6210TIP3    H140045   4.200   4.671   0.778  0.8369  1.1050  0.6866
 6210TIP3    H240046   4.334   4.663   0.708  0.5313  0.9047  0.1161
 6211TIP3   OH240047   0.277   1.953   3.500  0.7492 -0.8133 -0.1383
 6211TIP3    H140048   0.307   1.999   3.579  2.1131  1.7910 -2.1089
 6211TIP3    H240049   0.182   1.966   3.499  0.8082 -0.2578  0.6996
 6212TIP3   OH240050   2.188   1.070   4.642 -0.3591  0.0327  0.5428
 6212TIP3    H140051   2.180   1.166   4.644  1.1712  0.2391 -1.4037
 6212TIP3    H240052   2.282   1.054   4.651 -0.6509 -1.2962  1.2044
 6213TIP3   OH240053   4.901   6.617   3.549 -0.0801  0.0530 -0.2349
 6213TIP3    H140054   4.824   6.639   3.603 -0.1342 -0.9072  0.0853
 6213TIP3    H240055   4.934   6.536   3.586  0.9623  0.3327 -0.5280
 6214TIP3   OH240056   3.193   2.618   0.843  0.8613  0.3001  0.1624
 6214TIP3    H140057   3.288   2.632   0.842  1.0877 -1.1604 -0.0851
 6214TIP3    H240058   3.180   2.539   0.790 -0.4814  0.4218  0.2929
 6215TIP3   OH240059   0.266   0.123  10.738 -0.7804 -0.1491 -0.6190
 6215TIP3    H140060   0.319   0.196  10.709  0.2313 -0.4627  0.3977
 6215TIP3    H240061   0.299   0.048  10.688  0.5246 -0.5641  0.8409
 6216TIP3   OH240062   1.376   3.872   4.052 -0.0946 -0.1983 -0.5439
 6216TIP3    H140063   1.324   3.939   4.008 -0.5317  1.5487  2.4797
 6216TIP3    H240064   1.457   3.867   4.001 -0.5379  1.7938 -1.4994
 6217TIP3   OH240065   3.340   4.840   2.820  0.1240 -0.4041 -0.4133
 6217TIP3    H140066   3.375   4.813   2.735 -2.1060  0.7261 -1.7121
 6217TIP3    H240067   3.361   4.934   2.826 -1.0522 -0.1395 -0.3871
 6218TIP3   OH240068   5.459   2.102   5.584 -0.1457 -0.0464  0.0682
 6218TIP3    H140069   5.436   2.020   5.541  0.9364 -0.2277 -0.1841
 6218TIP3    H240070   5.414   2.169   5.534 -1.4996 -0.5299  0.6246
 6219TIP3   OH240071   0.115   2.528  14.301  0.3045  0.0508  0.1548
 6219TIP3    H140072   0.098   2.481  14.220  0.8728  1.0269 -0.5327
 6219TIP3    H240073   0.076   2.614  14.289  2.1728  0.9293  0.0770
 6220TIP3   OH240074   1.602   6.283   3.226  0.3408  0.2189 -0.0133
 6220TIP3    H140075   1.691   6.306   3.252  0.6948  0.0059 -1.0403
 6220TIP3    H240076   1.581   6.205   3.278  0.1470  1.2105  1.4338
 6221TIP3   OH240077   0.757   3.807   5.876  0.0097 -0.3455  0.5422
 6221TIP3    H140078   0.783   3.855   5.955 -0.4464 -1.2591  1.2604
 6221TIP3    H240079   0.663   3.826   5.867 -0.9216 -3.4839  2.5878
 6222TIP3   OH240080   5.808   0.890   2.260 -0.0120 -0.0039  0.4013
 6222TIP3    H140081   5.852   0.806   2.247 -0.4556 -0.5643  2.2537
 6222TIP3    H240082   5.723   0.866   2.298 -0.0484  1.2877  1.1558
 6223TIP3   OH240083   5.978   2.065   3.121  0.4157 -0.4597 -0.4772
 6223TIP3    H140084   5.887   2.068   3.148  0.4043 -0.4076 -0.5225
 6223TIP3    H240085   6.000   2.156   3.100  1.2403 -0.0216  2.0338
 6224TIP3   OH240086   0.296   3.355   0.541 -0.4661  0.4411 -0.3816
 6224TIP3    H140087   0.390   3.334   0.535 -0.2617  1.8331 -2.4833
 6224TIP3    H240088   0.286   3.434   0.488 -2.7479  0.6393  0.3145
 6225TIP3   OH240089   0.621   4.586  15.641  0.4185 -0.5694 -0.1980
 6225TIP3    H140090   0.538   4.630  15.657  0.7979  0.0058  0.2020
 6225TIP3    H240091   0.650   4.618  15.555 -0.2884 -1.5826 -0.8232
 6226TIP3   OH240092   2.271   3.901   4.545 -0.6342 -0.1409  0.2519
 6226TIP3    H140093   2.318   3.967   4.495 -1.4922 -0.0529 -0.4415
 6226TIP3    H240094   2.298   3.915   4.635  0.7494 -0.1568 -0.1508
 6227TIP3   OH240095   6.415   4.196  11.329  0.0035  0.1600  0.0563
 6227TIP3    H140096   6.461   4.227  11.251  1.1228 -0.1002  0.6071
 6227TIP3    H240097   6.350   4.263  11.347  1.6653  1.6625  0.6043
 6228TIP3   OH240098   0.402   1.538  11.673  0.1790 -0.0418 -0.0389
 6228TIP3    H140099   0.399   1.520  11.579 -1.2986 -1.3492  0.2394
 6228TIP3    H240100   0.423   1.454  11.713  1.2295  0.5947  0.8004
 6229TIP3   OH240101   2.335   6.455  13.017 -0.2747 -0.3737  0.5677
 6229TIP3    H140102   2.422   6.495  13.011 -0.3134 -0.3862 -0.2400
 6229TIP3    H240103   2.329   6.422  13.106  0.0904  0.6772  0.9879
 6230TIP3   OH240104   5.388   5.553   2.578 -0.4160  0.2860  0.2315
 6230TIP3    H140105   5.331   5.512   2.513  0.0848 -1.1802  0.6882
 6230TIP3    H240106   5.436   5.480   2.617  2.5087  1.5376 -0.8443
 6231TIP3   OH240107   5.226   6.633  13.692 -0.0148 -0.1638  0.1809
 6231TIP3    H140108   5.156   6.642  13.627  0.1458  1.4580  0.2178
 6231TIP3    H240109   5.282   6.564  13.657 -0.7026 -0.2831 -0.7049
 6232TIP3   OH240110   1.160   5.978  15.268  0.4006 -0.1176  0.1187
 6232TIP3    H140111   1.240   5.993  15.216  0.9654 -1.7290  0.4830
 6232TIP3    H240112   1.190   5.929  15.344 -1.0260 -1.1929 -0.0002
 6233TIP3   OH240113   2.980   6.285  16.622 -0.1174 -0.6619  0.4975
 6233TIP3    H140114   2.968   6.288  16.717  3.1597  1.0271  0.8981
 6233TIP3    H240115   2.997   6.375  16.597 -1.7912 -0.9577 -1.8675
 6234TIP3   OH240116   3.367   0.101   1.573 -0.5198  0.6099 -0.1808
 6234TIP3    H140117   3.318   0.039   1.520 -0.1690 -0.6480  0.9357
 6234TIP3    H240118   3.425   0.047   1.626  0.8995  1.9890 -0.3018
 6235TIP3   OH240119   3.188   4.955   3.172  0.3618  0.8533 -0.3299
 6235TIP3    H140120   3.253   4.893   3.140 -0.6560 -0.2565 -0.2983
 6235TIP3    H240121   3.174   4.932   3.263 -2.8544 -1.4795 -1.2913
 6236TIP3   OH240122   5.677   4.421   4.491  0.1500 -0.0550 -0.8877
 6236TIP3    H140123   5.735   4.452   4.560  0.0728  0.1479 -0.9132
 6236TIP3    H240124   5.733   4.413   4.414 -0.1911  1.8092 -1.3695
 6237TIP3   OH240125   3.966   5.047   3.269 -0.2598 -0.2075 -0.0815
 6237TIP3    H140126   3.976   4.965   3.318 -1.4098 -0.6032 -0.4840
 6237TIP3    H240127   3.907   5.024   3.197  1.1500  0.4443 -1.4705
 6238TIP3   OH240128   4.623   5.735  11.576  0.1713  0.2985 -0.3174
 6238TIP3    H140129   4.709   5.722  11.537  0.5086  1.4064  0.0058
 6238TIP3    H240130   4.603   5.827  11.559  0.0450  0.6350  1.5114
 6239TIP3   OH240131   5.402   0.888  15.584 -0.6063 -0.1643  0.4203
 6239TIP3    H140132   5.349   0.839  15.520 -0.8746  0.6510  0.0114
 6239TIP3    H240133   5.373   0.979  15.575  0.5776  0.2315  0.4781
 6240TIP3   OH240134   0.817   4.419  10.629  0.1699 -0.4454  0.3574
 6240TIP3    H140135   0.734   4.430  10.583 -0.3181  0.6600  1.4593
 6240TIP3    H240136   0.792   4.407  10.720  1.2309 -0.0900  0.6957
 6241TIP3   OH240137   0.628   4.577  14.504 -0.4639  0.1640  0.3909
 6241TIP3    H140138   0.559   4.628  14.461  0.0679 -1.9759 -3.1933
 6241TIP3    H240139   0.582   4.501  14.541 -0.1342 -1.0312 -1.6074
 6242TIP3   OH240140   4.876   0.372   3.844 -0.2898 -0.1765 -0.2102
 6242TIP3    H140141   4.901   0.457   3.881  0.3539  0.3835 -1.9096
 6242TIP3    H240142   4.780   0.370   3.853 -0.3896  1.0871 -0.9206
 6243TIP3   OH240143   5.432   4.232   5.099 -0.0903 -0.2026 -0.7136
 6243TIP3    H140144   5.514   4.205   5.140  1.1932  0.9970 -2.3984
 6243TIP3    H240145   5.431   4.185   5.016  0.3955  2.0678 -2.0480
 6244TIP3   OH240146   1.758   3.808   5.338  0.1408 -0.1064  0.0027
 6244TIP3    H140147   1.699   3.782   5.267  1.2720 -0.8576 -0.6711
 6244TIP3    H240148   1.700   3.834   5.409 -1.0100  0.2753 -1.0577
 6245TIP3   OH240149   3.049   5.794   3.877 -0.0633  0.3764  0.6769
 6245TIP3    H140150   3.041   5.841   3.961  1.5401  1.8308  0.0367
 6245TIP3    H240151   3.141   5.773   3.870 -0.0801  0.8108 -1.0154
 6246TIP3   OH240152   5.653   6.329  14.220 -0.0404  0.2352 -0.2446
 6246TIP3    H140153   5.702   6.346  14.140 -0.1782  0.0650 -0.3656
 6246TIP3    H240154   5.688   6.246  14.252 -0.3203  0.0605 -0.3867
 6247TIP3   OH240155   5.114   3.460   0.982 -0.0786 -0.6414 -0.4109
 6247TIP3    H140156   5.188   3.410   1.018 -0.5516 -0.3151  1.0441
 6247TIP3    H240157   5.144   3.551   0.982  0.2063 -0.7258 -1.6027
 6248TIP3   OH240158   0.199   1.255  15.614 -0.0903 -0.0085 -0.3244
 6248TIP3    H140159   0.289   1.257  15.580  0.1286  1.1279  0.3142
 6248TIP3    H240160   0.196   1.173  15.664  1.1965  0.8631  1.2404
 6249TIP3   OH240161   4.973   3.393  13.313  0.0373  0.1898 -0.7331
 6249TIP3    H140162   4.920   3.360  13.240 -2.1321  0.0525  0.8567
 6249TIP3    H240163   5.011   3.315  13.352  1.0792  0.2500 -1.6101
 6250TIP3   OH240164   5.968   5.808   0.755  0.0592  0.3299 -0.1957
 6250TIP3    H140165   5.936   5.792   0.666  2.8096  0.3133 -1.2244
 6250TIP3    H240166   6.061   5.829   0.744  0.4350  0.3686  2.6696
 6251TIP3   OH240167   1.401   3.556   3.994 -0.5583 -0.2016 -0.0343
 6251TIP3    H140168   1.379   3.627   4.055 -1.0320  0.1563 -0.6100
 6251TIP3    H240169   1.496   3.547   4.001 -0.1996  2.0364 -1.6161
 6252TIP3   OH240170   3.186   1.918   6.830  0.1010  0.4280 -0.3913
 6252TIP3    H140171   3.209   2.004   6.867  1.1106  0.3489 -0.8226
 6252TIP3    H240172   3.121   1.938   6.763  0.1395  0.8261 -0.3117
 6253TIP3   OH240173   1.214   1.182   2.326  0.0231  0.0553  0.6274
 6253TIP3    H140174   1.211   1.163   2.419 -2.6416 -3.0581 -0.0111
 6253TIP3    H240175   1.285   1.126   2.292  1.5470  1.7991  0.8728
 6254TIP3   OH240176   1.354   5.812  11.149  0.0421 -0.3848  0.5901
 6254TIP3    H140177   1.276   5.863  11.127  0.8240  1.1799  1.3655
 6254TIP3    H240178   1.326   5.756  11.222 -0.5011 -0.2531  0.4844
 6255TIP3   OH240179   1.710   6.341  14.744 -0.1346 -0.2151  0.0731
 6255TIP3    H140180   1.663   6.333  14.827  0.3054  0.4476  0.3965
 6255TIP3    H240181   1.779   6.405  14.762  0.0984 -0.2292 -0.7429
 6256TIP3   OH240182   3.500   5.119   4.105  0.6608  0.0305  0.2954
 6256TIP3    H140183   3.473   5.084   4.020  0.5048 -0.8995  0.7237
 6256TIP3    H240184   3.594   5.133   4.096  0.8077 -0.9463  0.2705
 6257TIP3   OH240185   4.312   4.307  11.332 -0.2007  0.0709  0.4180
 6257TIP3    H140186   4.384   4.243  11.336  0.8602  1.2687  0.7798
 6257TIP3    H240187   4.355   4.392  11.338 -1.7481  0.7923  1.7770
 6258TIP3   OH240188   3.244   1.108   0.893 -0.0583  0.0231 -0.0899
 6258TIP3    H140189   3.172   1.168   0.913  0.3091  0.7275 -0.8642
 6258TIP3    H240190   3.308   1.162   0.847  0.9464 -0.6091  0.5533
 6259TIP3   OH240191   5.148   6.508  12.893 -0.4302 -0.4175 -0.0290
 6259TIP3    H140192   5.083   6.512  12.964  0.2800  1.0241  0.5696
 6259TIP3    H240193   5.096   6.519  12.813 -1.0948 -0.7070  0.3547
 6260TIP3   OH240194   3.481   3.546   2.832 -0.2640  0.1579  0.2350
 6260TIP3    H140195   3.490   3.510   2.920 -1.3608 -1.5001 -0.3001
 6260TIP3    H240196   3.566   3.584   2.812  0.4086 -0.6747  1.4825
 6261TIP3   OH240197   6.600   2.294  12.092  0.6769 -0.3391  0.7346
 6261TIP3    H140198   6.590   2.214  12.039 -0.5615  0.1882  0.1475
 6261TIP3    H240199   6.526   2.292  12.152  1.4405 -0.3413  1.6815
 6262TIP3   OH240200   0.780   0.375  14.827 -0.7486 -0.5919  0.4030
 6262TIP3    H140201   0.713   0.443  14.821 -0.8442 -0.5983  1.3992
 6262TIP3    H240202   0.848   0.404  14.766 -1.2739 -0.1625  0.0106
 6263TIP3   OH240203   4.857   3.286   4.190  0.1652 -0.7768  0.3823
 6263TIP3    H140204   4.929   3.235   4.152  0.0849  1.2646 -2.6830
 6263TIP3    H240205   4.880   3.295   4.282  3.9419 -0.0643 -0.5477
 6264TIP3   OH240206   4.109   0.696   3.517 -0.4450 -0.2631  0.8227
 6264TIP3    H140207   4.084   0.632   3.584  0.3431 -0.2883  1.1097
 6264TIP3    H240208   4.070   0.778   3.546 -0.8617 -0.4655  0.8369
 6265TIP3   OH240209   4.229   1.266  14.057 -0.6354 -0.1784  0.5923
 6265TIP3    H140210   4.288   1.191  14.057 -1.5558 -0.9721  2.8143
 6265TIP3    H240211   4.163   1.245  13.991  0.2940 -0.3583 -0.2716
 6266TIP3   OH240212   1.352   0.913   5.371 -0.0312 -0.5844  0.3641
 6266TIP3    H140213   1.292   0.843   5.345  1.1439 -0.7991 -1.9630
 6266TIP3    H240214   1.297   0.991   5.376 -0.8829 -1.1748  0.3163
 6267TIP3   OH240215   1.210   3.731  16.615  0.3236  0.3315  0.2713
 6267TIP3    H140216   1.161   3.768  16.541  1.6384  1.9796  0.1930
 6267TIP3    H240217   1.298   3.719  16.581  0.7261  0.2756  1.3206
 6268TIP3   OH240218   5.435   5.288  13.056 -0.8208 -0.4399 -0.8724
 6268TIP3    H140219   5.374   5.347  13.011  0.0260  0.3437 -1.0159
 6268TIP3    H240220   5.495   5.259  12.988  1.3784  1.9118 -0.0222
 6269TIP3   OH240221   2.666   5.574  13.237 -0.1647 -0.2366  0.1163
 6269TIP3    H140222   2.732   5.541  13.175  1.2059  2.0151  0.3112
 6269TIP3    H240223   2.717   5.608  13.310 -1.6595 -0.1178  1.1180
 6270TIP3   OH240224   2.015   2.766  12.966  0.5516  0.3213  0.0786
 6270TIP3    H140225   1.930   2.744  12.927  0.6285  0.5310 -0.2072
 6270TIP3    H240226   2.035   2.692  13.024  0.7134 -0.2602 -0.7132
 6271TIP3   OH240227   2.954   6.639  15.054  0.0691 -0.0759  0.0381
 6271TIP3    H140228   2.936   6.722  15.098  0.3024 -0.7902  1.5359
 6271TIP3    H240229   3.002   6.587  15.120 -0.2674 -1.4682 -0.7861
 6272TIP3   OH240230   2.327   1.356  15.029 -0.0704  0.7944 -0.0524
 6272TIP3    H140231   2.313   1.429  15.090 -0.0403  1.2970 -0.6398
 6272TIP3    H240232   2.380   1.394  14.959  0.7176 -0.0316  0.0850
 6273TIP3   OH240233   2.429   0.259   2.870  0.2264  0.2327  0.4405
 6273TIP3    H140234   2.482   0.179   2.875 -0.3040 -0.2257 -0.9480
 6273TIP3    H240235   2.344   0.229   2.839 -0.3330  1.1942  1.0460
 6274TIP3   OH240236   0.792   2.415   2.003 -0.8471  0.1252 -1.1274
 6274TIP3    H140237   0.802   2.354   2.076  0.9383 -0.3798 -1.7530
 6274TIP3    H240238   0.842   2.375   1.932 -2.2209  0.8123 -2.5017
 6275TIP3   OH240239   5.677   3.665   3.363  0.0097 -0.3951  0.6384
 6275TIP3    H140240   5.730   3.635   3.290  0.1906  1.1790  0.0898
 6275TIP3    H240241   5.661   3.587   3.416  2.3340 -0.9927  0.4787
 6276TIP3   OH240242   3.435   6.609   0.642 -0.1779  0.7605 -0.2685
 6276TIP3    H140243   3.460   6.697   0.670  0.7845  0.8228 -1.2679
 6276TIP3    H240244   3.510   6.554   0.665 -1.3475 -0.0791  1.6377
 6277TIP3   OH240245   2.792   6.057  16.142 -0.3451  0.5770 -0.1469
 6277TIP3    H140246   2.869   6.000  16.139 -0.3592  0.4961  0.9487
 6277TIP3    H240247   2.821   6.132  16.193 -1.0985  0.3992  0.5377
 6278TIP3   OH240248   3.026   3.743  12.753 -0.0131 -0.1759 -0.3501
 6278TIP3    H140249   3.026   3.832  12.788  0.5633  0.4542 -1.8973
 6278TIP3    H240250   2.934   3.717  12.755 -0.7503  1.8827 -3.3278
 6279TIP3   OH240251   3.777   5.312   0.428  0.1213 -0.5373  0.7069
 6279TIP3    H140252   3.820   5.283   0.508  0.2528 -1.1686  0.4125
 6279TIP3    H240253   3.726   5.236   0.399  0.1253 -0.3350  0.1615
 6280TIP3   OH240254   3.220   2.754  11.311 -0.1862  0.8423 -0.3972
 6280TIP3    H140255   3.192   2.792  11.227 -1.2961  0.7892 -0.0591
 6280TIP3    H240256   3.231   2.829  11.369  0.5862  0.8793 -0.5918
 6281TIP3   OH240257   1.275   6.176   1.872 -0.1998  0.4728 -0.1265
 6281TIP3    H140258   1.197   6.129   1.841  0.3744 -0.7500  0.2270
 6281TIP3    H240259   1.245   6.265   1.890 -1.1218  0.4811 -1.6619
 6282TIP3   OH240260   5.126   3.966   5.769  0.4963  0.0266 -0.4459
 6282TIP3    H140261   5.075   3.929   5.698 -0.0627 -1.3887  0.6731
 6282TIP3    H240262   5.067   3.967   5.844  1.1472  1.2895  0.0784
 6283TIP3   OH240263   0.567   6.354  17.031  0.5147  0.0158  0.0068
 6283TIP3    H140264   0.492   6.320  16.981  1.7536 -0.7491 -1.3710
 6283TIP3    H240265   0.563   6.449  17.018 -0.4219  0.0112  0.2260
 6284TIP3   OH240266   2.952   3.144   2.687 -0.3721  0.0816 -0.6005
 6284TIP3    H140267   2.869   3.184   2.715  0.2884  1.1512 -0.1541
 6284TIP3    H240268   2.988   3.205   2.623  0.6256  0.2034  0.0595
 6285TIP3   OH240269   2.425   3.481   4.234 -0.2830 -0.3532 -0.5954
 6285TIP3    H140270   2.422   3.573   4.210  0.5463  0.2476  1.4469
 6285TIP3    H240271   2.501   3.446   4.188 -0.4381  0.0440 -1.1564
 6286TIP3   OH240272   2.843   5.726  12.555 -0.7169  0.5294 -0.3564
 6286TIP3    H140273   2.889   5.664  12.498  0.6511  0.6680  0.5692
 6286TIP3    H240274   2.774   5.674  12.596 -0.5773 -0.0053 -0.7894
 6287TIP3   OH240275   1.349   2.812  15.981 -0.1642 -0.2749  0.3861
 6287TIP3    H140276   1.367   2.885  15.922 -2.8028  0.5748  0.6103
 6287TIP3    H240277   1.360   2.734  15.925 -0.6124  0.4271 -0.6944
 6288TIP3   OH240278   2.566   3.850  16.628 -0.4343  0.0703  0.6907
 6288TIP3    H140279   2.479   3.810  16.630 -1.0964  1.3356 -1.0621
 6288TIP3    H240280   2.571   3.891  16.542  2.1283 -0.4277  0.5888
 6289TIP3   OH240281   0.496   4.180   0.468  0.5277  0.3976 -0.2047
 6289TIP3    H140282   0.464   4.137   0.388 -0.5147  1.8084 -0.5718
 6289TIP3    H240283   0.419   4.186   0.524  0.3440  2.9302 -0.6876
 6290TIP3   OH240284   4.391   5.137   1.877 -0.6303  0.3232 -0.2509
 6290TIP3    H140285   4.320   5.200   1.893  0.2701  1.4025 -0.4114
 6290TIP3    H240286   4.387   5.077   1.952 -1.7148  0.3715 -0.2663
 6291TIP3   OH240287   0.014   0.920  16.262  0.3151 -0.0945 -0.1118
 6291TIP3    H140288  -0.043   0.997  16.258  0.9224  0.4294  0.9905
 6291TIP3    H240289   0.003   0.887  16.352 -1.0701 -2.1770 -1.0151
 6292TIP3   OH240290   3.373   5.879  11.365 -0.5262 -0.7470 -0.3552
 6292TIP3    H140291   3.333   5.951  11.415 -2.2811 -2.0586  0.1639
 6292TIP3    H240292   3.449   5.919  11.324 -2.6541  1.9883 -1.8075
 6293TIP3   OH240293   6.306   1.073   2.656  0.0584 -0.6786  0.4998
 6293TIP3    H140294   6.231   1.105   2.705  0.3484  0.4289  0.2399
 6293TIP3    H240295   6.361   1.029   2.720  0.2152  0.3594  1.0755
 6294TIP3   OH240296   3.054   6.390   2.058  0.0337  0.1875 -0.2306
 6294TIP3    H140297   2.972   6.374   2.105  1.2562 -0.7502  1.6973
 6294TIP3    H240298   3.051   6.329   1.984 -1.3982  0.8117 -0.7084
 6295TIP3   OH240299   1.737   0.341  10.656  0.2802 -0.3579 -0.0439
 6295TIP3    H140300   1.761   0.403  10.725 -1.9324 -0.7663  1.1438
 6295TIP3    H240301   1.729   0.394  10.577 -0.5421  0.6915  0.7354
 6296TIP3   OH240302   2.318   2.236   2.276 -0.5651  0.1808 -0.0289
 6296TIP3    H140303   2.240   2.219   2.224  0.8858  0.0187 -2.2259
 6296TIP3    H240304   2.313   2.329   2.297 -1.7829 -0.0204  0.6143
 6297TIP3   OH240305   4.790   6.494   4.682  0.0739 -0.0366  0.2376
 6297TIP3    H140306   4.836   6.429   4.735 -0.1936 -1.6645 -1.4620
 6297TIP3    H240307   4.697   6.473   4.694 -0.0526  0.5346  0.2859
 6298TIP3   OH240308   5.280   6.215   4.963 -0.1823 -0.0439  0.4042
 6298TIP3    H140309   5.288   6.256   5.049  1.4422  0.3069  0.0916
 6298TIP3    H240310   5.191   6.180   4.962 -0.8063  1.4469  1.5657
 6299TIP3   OH240311   2.373   2.530  12.632  0.1405  0.2008 -0.0132
 6299TIP3    H140312   2.439   2.573  12.577  0.1565  0.8142  0.4846
 6299TIP3    H240313   2.364   2.443  12.593 -0.4765  0.9080 -1.5209
 6300TIP3   OH240314   3.930   3.087  14.862  0.1690 -0.3764  0.3029
 6300TIP3    H140315   3.914   3.128  14.947 -0.9961 -0.2484  0.0380
 6300TIP3    H240316   3.988   3.147  14.817  1.1575 -0.6646  1.1728
 6301TIP3   OH240317   3.946   6.288   4.290 -0.3116  0.0519 -0.4644
 6301TIP3    H140318   4.034   6.324   4.280 -1.1383  1.8880 -1.2048
 6301TIP3    H240319   3.921   6.312   4.379 -0.5087  0.5230 -0.6466
 6302TIP3   OH240320   0.613   6.646  14.887 -0.5470  0.2060  0.0361
 6302TIP3    H140321   0.597   6.740  14.879 -1.9877 -0.1495 -1.5109
 6302TIP3    H240322   0.706   6.639  14.909 -0.1275  1.9581 -1.0798
 6303TIP3   OH240323   3.366   4.151   4.241  0.3723  0.0781 -0.2309
 6303TIP3    H140324   3.442   4.093   4.245 -0.9226 -1.8182 -1.7703
 6303TIP3    H240325   3.343   4.154   4.148 -0.5424  1.8188  0.0361
 6304TIP3   OH240326   0.979   5.791   0.689  0.3577  0.1185 -0.0757
 6304TIP3    H140327   0.959   5.875   0.647 -0.1512 -0.2528 -0.5723
 6304TIP3    H240328   0.916   5.786   0.761  1.4942  0.9460  1.0164
 6305TIP3   OH240329   6.263   4.370   3.269 -0.0971  0.2280  0.0844
 6305TIP3    H140330   6.273   4.461   3.241  0.6744  0.3768  0.8410
 6305TIP3    H240331   6.251   4.375   3.363 -0.0421 -0.4633  0.1287
 6306TIP3   OH240332   4.912   0.390  17.012  0.1387 -0.1538 -0.2671
 6306TIP3    H140333   4.847   0.425  16.951 -1.1171  0.3408  1.3124
 6306TIP3    H240334   4.996   0.419  16.977 -0.5611  0.0932 -1.7745
 6307TIP3   OH240335   3.437   4.525   4.821  0.6143 -0.3621 -0.5256
 6307TIP3    H140336   3.358   4.561   4.861  1.4261  0.0740  0.7288
 6307TIP3    H240337   3.409   4.494   4.735 -0.7455  0.5229 -0.4161
 6308TIP3   OH240338   4.564   0.679  12.719  0.1461  0.6675 -0.2515
 6308TIP3    H140339   4.534   0.615  12.654  2.7732  0.2991 -1.1821
 6308TIP3    H240340   4.533   0.646  12.803  1.7299 -2.0308 -0.6879
 6309TIP3   OH240341   3.031   2.616   6.737  0.3004  0.0074 -0.8014
 6309TIP3    H140342   3.021   2.564   6.817 -0.8761  0.0558 -0.9025
 6309TIP3    H240343   3.028   2.551   6.667 -1.7671  0.2410 -0.9612
 6310TIP3   OH240344   5.345   5.693   3.174 -0.6480  0.4391 -0.5634
 6310TIP3    H140345   5.270   5.747   3.198 -0.0435  1.0159  0.0490
 6310TIP3    H240346   5.321   5.605   3.202 -0.0655  1.0447  1.9876
 6311TIP3   OH240347   3.230   6.741  14.159 -0.0702 -0.2054  0.4328
 6311TIP3    H140348   3.145   6.697  14.159  0.0426 -0.5414 -3.0184
 6311TIP3    H240349   3.289   6.679  14.115  1.0990  1.5651 -0.5239
 6312TIP3   OH240350   1.296   0.175  17.129 -0.0038 -0.0537  0.4977
 6312TIP3    H140351   1.239   0.251  17.145 -1.4925 -1.4577  2.1380
 6312TIP3    H240352   1.241   0.114  17.079  1.1863 -0.0677 -0.8315
 6313TIP3   OH240353   0.603   0.614  12.126  0.4563  0.1230  0.2806
 6313TIP3    H140354   0.508   0.614  12.136  0.5624  2.3356  1.5762
 6313TIP3    H240355   0.617   0.654  12.040  0.2359  0.4612  0.3993
 6314TIP3   OH240356   6.193   2.776  12.710  0.4296 -0.2805 -0.9014
 6314TIP3    H140357   6.216   2.691  12.670 -3.3051 -0.6406 -2.4731
 6314TIP3    H240358   6.180   2.834  12.635  2.3235  1.5734  0.1650
 6315TIP3   OH240359   0.893   1.833  15.671 -0.6008 -0.7483 -0.0067
 6315TIP3    H140360   0.861   1.762  15.616  3.1027 -1.7150 -1.0009
 6315TIP3    H240361   0.904   1.907  15.611 -2.4041  0.0870  0.6380
 6316TIP3   OH240362   2.987   2.767  11.811 -0.6369  0.0873  0.5584
 6316TIP3    H140363   3.050   2.753  11.882  0.2629 -1.1458 -0.4503
 6316TIP3    H240364   3.041   2.777  11.733 -1.6681 -0.6682 -0.2695
 6317TIP3   OH240365   0.889   4.532   0.235  0.8107 -0.2750 -0.8247
 6317TIP3    H140366   0.854   4.620   0.224  1.0709 -0.3342 -2.2467
 6317TIP3    H240367   0.953   4.540   0.305  0.4571  0.5578 -0.5885
 6318TIP3   OH240368   4.451   6.182  16.588 -0.5938 -0.5238  0.1403
 6318TIP3    H140369   4.536   6.147  16.561 -1.9587 -2.8986 -1.2825
 6318TIP3    H240370   4.447   6.269  16.547 -0.0261 -1.5711 -2.2638
 6319TIP3   OH240371   1.351   5.278  13.952  0.4017  0.4347  0.1105
 6319TIP3    H140372   1.366   5.341  13.882 -2.5009 -1.1428 -2.0451
 6319TIP3    H240373   1.435   5.232  13.961  1.3381  1.8573 -1.0905
 6320TIP3   OH240374   4.890   5.349   4.290 -0.5003  0.4297 -0.4763
 6320TIP3    H140375   4.837   5.393   4.223  0.9126  1.6534 -0.8288
 6320TIP3    H240376   4.834   5.346   4.367 -2.5223 -1.8507 -1.9296
 6321TIP3   OH240377   1.849   5.619  14.097  0.4483 -0.3438 -0.2635
 6321TIP3    H140378   1.781   5.577  14.044 -0.0662 -0.2461  0.3156
 6321TIP3    H240379   1.879   5.692  14.042  0.9240 -1.0974 -1.0155
 6322TIP3   OH240380   4.448   0.441   4.959  0.0755  0.0273  0.7008
 6322TIP3    H140381   4.364   0.457   5.003 -1.3261 -1.4281 -1.3979
 6322TIP3    H240382   4.481   0.529   4.938 -0.8412  0.6036  1.6150
 6323TIP3   OH240383   1.387   5.609  11.339  0.4195  0.2382  0.7356
 6323TIP3    H140384   1.453   5.542  11.328  0.3936  0.2365  0.5829
 6323TIP3    H240385   1.348   5.591  11.425 -0.6829 -0.9190  0.0161
 6324TIP3   OH240386   1.683   1.865  13.874  0.4489  0.2794  0.9825
 6324TIP3    H140387   1.763   1.823  13.841 -0.5444 -1.9726  1.3506
 6324TIP3    H240388   1.619   1.852  13.804 -0.1419  0.3432  1.5068
 6325TIP3   OH240389   3.660   0.565   5.617  0.3534  0.0008  0.0785
 6325TIP3    H140390   3.592   0.564   5.549  0.1060 -0.5341  0.3275
 6325TIP3    H240391   3.612   0.545   5.698  0.5025  1.5185  0.5454
 6326TIP3   OH240392   4.311   2.736   1.254 -0.8458 -0.0378  0.4066
 6326TIP3    H140393   4.402   2.763   1.267 -0.4148 -0.3928 -1.7034
 6326TIP3    H240394   4.262   2.819   1.250 -0.2132  0.2686 -1.2157
 6327TIP3   OH240395   5.130   0.876  12.686 -0.1220  0.0656 -0.5975
 6327TIP3    H140396   5.140   0.909  12.775 -0.0935 -0.7024 -0.3162
 6327TIP3    H240397   5.124   0.781  12.695  1.6687 -0.1692 -1.5686
 6328TIP3   OH240398   3.314   5.650  13.080  0.1161 -0.4478 -0.0009
 6328TIP3    H140399   3.248   5.715  13.103 -0.6918 -1.4120  0.4240
 6328TIP3    H240400   3.267   5.584  13.029  0.7800 -1.0710  0.1779
 6329TIP3   OH240401   5.538   5.130  16.045 -0.6121  0.2164  0.0261
 6329TIP3    H140402   5.553   5.223  16.029  2.6925  0.1297  2.0376
 6329TIP3    H240403   5.585   5.086  15.973  0.7209  0.0758  0.9693
 6330TIP3   OH240404   4.702   0.801   5.128  0.1660 -0.0518  0.0825
 6330TIP3    H140405   4.619   0.778   5.172  1.9931 -2.4578  2.4563
 6330TIP3    H240406   4.699   0.752   5.046 -0.6309 -0.4288  0.3201
 6331TIP3   OH240407   6.724   5.330  14.767  0.2116  0.1449  0.4812
 6331TIP3    H140408   6.639   5.365  14.795  0.5761  0.6305  0.9920
 6331TIP3    H240409   6.739   5.256  14.826 -0.3640 -0.6347 -0.3294
 6332TIP3   OH240410   0.555   0.457   0.645  0.3169 -0.0808 -0.0398
 6332TIP3    H140411   0.592   0.539   0.613 -0.1874 -0.2603 -1.1049
 6332TIP3    H240412   0.512   0.480   0.728 -0.4089  0.8637 -0.6814
 6333TIP3   OH240413   5.691   5.625   3.696 -0.0345 -0.6123  0.0623
 6333TIP3    H140414   5.616   5.677   3.668 -0.6063 -1.5671 -0.2059
 6333TIP3    H240415   5.660   5.534   3.693  1.6424 -1.1571 -1.6826
 6334TIP3   OH240416   1.310   0.059  10.666  0.1142  0.2052 -0.1837
 6334TIP3    H140417   1.384   0.008  10.630 -0.3800 -1.2975  0.8949
 6334TIP3    H240418   1.349   0.144  10.688  1.6366 -0.7116  0.7728
 6335TIP3   OH240419   6.092   3.203  11.241  0.0700 -0.7008  0.0593
 6335TIP3    H140420   6.108   3.144  11.315 -0.0313 -0.8766 -0.0586
 6335TIP3    H240421   6.156   3.274  11.253 -1.1456  0.2127  1.3139
 6336TIP3   OH240422   6.432   0.246  16.710  0.3986 -0.0940 -0.0158
 6336TIP3    H140423   6.443   0.227  16.617  0.2158 -0.2888  0.0030
 6336TIP3    H240424   6.475   0.331  16.722  1.0339 -0.4005 -0.1364
 6337TIP3   OH240425   1.106   0.253   4.006  0.2142  0.1331 -0.2249
 6337TIP3    H140426   1.177   0.230   4.066 -0.9341 -2.8918  0.0996
 6337TIP3    H240427   1.035   0.281   4.062 -0.0522 -0.3838 -0.2967
 6338TIP3   OH240428   1.756   5.327  16.987  0.6955 -0.6576 -0.7747
 6338TIP3    H140429   1.848   5.352  16.974  0.7451  0.1502  0.9305
 6338TIP3    H240430   1.706   5.405  16.963  0.5343 -0.6982 -0.5733
 6339TIP3   OH240431   6.295   2.566   3.560 -0.0778  0.0216  0.5230
 6339TIP3    H140432   6.340   2.494   3.515 -0.4622 -0.4377  0.8537
 6339TIP3    H240433   6.361   2.635   3.568  0.7005 -0.8160  1.4240
 6340TIP3   OH240434   6.060   1.888   5.917 -0.3250  0.3662  0.0343
 6340TIP3    H140435   6.091   1.835   5.844 -2.6640 -0.0221 -0.7329
 6340TIP3    H240436   6.124   1.873   5.987  1.9483  0.7464 -1.8948
 6341TIP3   OH240437   4.469   1.523  11.625  0.3383  0.2049  0.8485
 6341TIP3    H140438   4.455   1.590  11.558  3.1594 -0.7160 -0.7790
 6341TIP3    H240439   4.558   1.541  11.657  0.6247 -1.9389  1.2940
 6342TIP3   OH240440   0.988   4.261   2.481  0.2760  0.2160  0.2874
 6342TIP3    H140441   0.923   4.278   2.413  0.8115  1.0255 -0.0298
 6342TIP3    H240442   0.997   4.166   2.482 -0.0647  0.1701 -0.4655
 6343TIP3   OH240443   5.325   2.913  13.609 -0.2682  0.2848 -0.2889
 6343TIP3    H140444   5.282   2.924  13.524 -0.7384  0.9774  0.0344
 6343TIP3    H240445   5.351   2.822  13.611 -2.2493 -0.3098 -0.2522
 6344TIP3   OH240446   6.228   4.681   6.173 -0.0347  0.3475  0.0434
 6344TIP3    H140447   6.147   4.676   6.224  1.7197 -1.6948  2.7650
 6344TIP3    H240448   6.295   4.704   6.238  1.8764  0.1856 -1.8365
 6345TIP3   OH240449   5.073   4.431  10.752 -0.7726  0.1070 -0.2767
 6345TIP3    H140450   5.021   4.419  10.673  0.6856 -0.4492 -1.1663
 6345TIP3    H240451   5.124   4.510  10.735 -0.2357 -0.1854 -0.0019
 6346TIP3   OH240452   3.467   3.136   6.731 -0.2834  0.4957  0.1874
 6346TIP3    H140453   3.512   3.054   6.754  1.0100  0.7473 -1.3598
 6346TIP3    H240454   3.523   3.176   6.665 -1.5159  2.0719  0.0747
 6347TIP3   OH240455   5.132   6.450   3.103 -0.0420 -0.7706  0.0810
 6347TIP3    H140456   5.104   6.365   3.138 -0.7485 -0.4324  0.3477
 6347TIP3    H240457   5.227   6.444   3.098 -0.2164 -2.4346 -2.0964
 6348TIP3   OH240458   4.959   3.598   0.034  0.1724 -0.3147  0.6462
 6348TIP3    H140459   4.997   3.679  -0.001 -0.9222 -0.6119 -1.3342
 6348TIP3    H240460   4.930   3.622   0.122  0.1613  1.3849  0.2106
 6349TIP3   OH240461   5.623   4.900  13.081  0.0681 -0.2951 -0.0044
 6349TIP3    H140462   5.674   4.833  13.035  1.4014  0.8191 -0.1846
 6349TIP3    H240463   5.602   4.965  13.015  0.8546  0.6584  0.6743
 6350TIP3   OH240464   6.195   1.974   2.320  0.0821 -0.2677  0.6552
 6350TIP3    H140465   6.255   1.995   2.248 -0.0886 -0.6507  0.3992
 6350TIP3    H240466   6.249   1.927   2.383 -0.3543 -2.2762 -0.4151
 6351TIP3   OH240467   3.594   6.621  13.348 -0.0820  0.1636  0.3844
 6351TIP3    H140468   3.622   6.682  13.417 -1.9185  2.1494 -0.5470
 6351TIP3    H240469   3.568   6.678  13.276 -0.9937 -1.7752 -0.8574
 6352TIP3   OH240470   5.827   3.035  15.692  0.0517  0.5158 -0.0414
 6352TIP3    H140471   5.811   2.966  15.628 -1.9627 -0.6084  1.5768
 6352TIP3    H240472   5.909   3.076  15.665 -0.3109 -0.5035 -2.7889
 6353TIP3   OH240473   0.444   1.978  15.503  0.4366  0.1367  0.3390
 6353TIP3    H140474   0.522   1.999  15.555  1.3588  0.9273 -1.3415
 6353TIP3    H240475   0.377   1.956  15.568  1.2967  2.0038  1.9102
 6354TIP3   OH240476   5.330   1.255  14.050 -0.3242 -0.5147 -0.6392
 6354TIP3    H140477   5.255   1.301  14.087 -1.3096 -2.1488 -0.5579
 6354TIP3    H240478   5.295   1.211  13.973  0.8448 -0.2856 -1.3154
 6355TIP3   OH240479   1.494   6.147  13.090 -0.2515  0.4862  0.4194
 6355TIP3    H140480   1.445   6.070  13.059  2.0081  0.2276 -2.7776
 6355TIP3    H240481   1.476   6.215  13.025  1.6012  1.1365  0.5494
 6356TIP3   OH240482   5.934   5.670   2.756  0.3137 -0.0460 -0.3632
 6356TIP3    H140483   5.974   5.616   2.688  2.1689  0.1384  0.5491
 6356TIP3    H240484   5.845   5.637   2.765  1.2739 -2.6496 -0.1458
 6357TIP3   OH240485   1.065   3.070   5.738  0.7168  0.3150  0.3732
 6357TIP3    H140486   1.108   3.010   5.800  0.2227 -0.0597  0.3581
 6357TIP3    H240487   1.118   3.064   5.659  1.8449  1.4396  1.0341
 6358TIP3   OH240488   3.716   3.507   5.087  0.2130 -0.1987 -0.3823
 6358TIP3    H140489   3.701   3.531   5.178 -0.6396 -2.4646  0.1036
 6358TIP3    H240490   3.778   3.573   5.055  1.2656  0.0766  2.0908
 6359TIP3   OH240491   2.254   3.505  12.378  0.4650  0.0095  0.1718
 6359TIP3    H140492   2.318   3.568  12.413  0.8484 -0.6599  0.6683
 6359TIP3    H240493   2.300   3.421  12.378 -0.3963 -0.4660  0.4674
 6360TIP3   OH240494   2.428   2.114  13.437 -0.5981 -0.2435 -0.0250
 6360TIP3    H140495   2.439   2.206  13.462 -0.4595 -0.6242  1.3052
 6360TIP3    H240496   2.513   2.075  13.453 -1.2873 -1.1200  1.5758
 6361TIP3   OH240497   6.681   1.533  12.701 -0.5631  0.1621 -0.5325
 6361TIP3    H140498   6.724   1.498  12.623  1.6051  0.7607  0.3487
 6361TIP3    H240499   6.595   1.560  12.671 -1.0259 -2.7535 -1.9686
 6362TIP3   OH240500   5.150   6.727   3.601 -0.8573 -0.4737  0.1516
 6362TIP3    H140501   5.079   6.675   3.564 -1.6737 -0.6239  1.9232
 6362TIP3    H240502   5.107   6.793   3.655  0.2637  0.7482 -0.4181
 6363TIP3   OH240503   5.917   5.262  13.681  0.1217 -0.0820  0.4999
 6363TIP3    H140504   5.881   5.351  13.684  0.0731 -0.1236  1.2261
 6363TIP3    H240505   5.964   5.253  13.764  1.1150 -0.3227 -0.0734
 6364TIP3   OH240506   3.124   3.933  12.275  0.0599  0.0930 -0.2467
 6364TIP3    H140507   3.204   3.883  12.286  2.0560  3.2201  0.2505
 6364TIP3    H240508   3.101   3.922  12.182  0.7064 -1.2825 -0.2516
 6365TIP3   OH240509   4.545   2.679   2.678  0.4421  0.0582  0.0484
 6365TIP3    H140510   4.586   2.618   2.616 -0.3918  1.7670 -2.2563
 6365TIP3    H240511   4.467   2.633   2.709  0.4030 -0.4851 -0.8351
 6366TIP3   OH240512   6.394   2.599  16.229 -0.1183  0.6186 -0.4283
 6366TIP3    H140513   6.379   2.524  16.287 -0.2397  0.0996 -1.1132
 6366TIP3    H240514   6.322   2.659  16.248 -1.0208 -0.2263 -1.1162
 6367TIP3   OH240515   3.753   3.759  14.810  0.5329 -0.2968 -0.0033
 6367TIP3    H140516   3.705   3.783  14.731  1.3418 -1.8491 -0.9741
 6367TIP3    H240517   3.841   3.793  14.797  0.4258  0.2454  0.6377
 6368TIP3   OH240518   0.169   5.357   1.086 -0.4973 -0.0822 -0.5293
 6368TIP3    H140519   0.214   5.440   1.095 -2.3878  0.9195  0.0586
 6368TIP3    H240520   0.115   5.367   1.007 -1.8943 -0.1617  0.3874
 6369TIP3   OH240521   2.427   0.819   5.493 -0.1349 -0.2106  0.6923
 6369TIP3    H140522   2.492   0.773   5.441 -1.2219  0.4898 -1.3325
 6369TIP3    H240523   2.474   0.894   5.530  0.9733 -1.4481  1.8470
 6370TIP3   OH240524   1.379   4.985   1.581 -0.7827  0.1762 -0.2857
 6370TIP3    H140525   1.471   4.997   1.555 -0.5724 -0.3218  0.2221
 6370TIP3    H240526   1.369   5.040   1.658 -0.5386 -0.8000  0.4598
 6371TIP3   OH240527   5.888   0.439   5.533  0.5633 -0.0183 -0.3575
 6371TIP3    H140528   5.862   0.513   5.478  1.3529 -1.4960 -2.8171
 6371TIP3    H240529   5.914   0.478   5.616 -1.1193  2.2428 -0.8642
 6372TIP3   OH240530   2.038   4.389   2.416 -0.1617 -0.0808 -0.6729
 6372TIP3    H140531   2.024   4.318   2.353  0.0176 -0.0220 -0.7812
 6372TIP3    H240532   1.994   4.360   2.496  1.8110 -1.3195 -0.0037
 6373TIP3   OH240533   3.893   5.511   1.772  0.8492 -0.6436 -0.6390
 6373TIP3    H140534   3.815   5.459   1.787  1.9840 -1.8793  1.2389
 6373TIP3    H240535   3.892   5.531   1.678 -1.2588 -1.3369 -0.7774
 6374TIP3   OH240536   3.095   4.465   2.370 -0.3847  0.7026  0.2003
 6374TIP3    H140537   3.027   4.506   2.316 -0.4621  0.1159 -0.1509
 6374TIP3    H240538   3.152   4.421   2.307 -1.5764 -1.6494  0.7008
 6375TIP3   OH240539   6.259   1.694  16.909  0.1166 -0.0361 -0.2519
 6375TIP3    H140540   6.298   1.697  16.996 -1.3286  2.0189  0.3593
 6375TIP3    H240541   6.252   1.600  16.889  0.6635 -0.5210  1.7427
 6376TIP3   OH240542   5.067   3.712  11.842  0.2429 -0.0891 -0.2554
 6376TIP3    H140543   4.974   3.735  11.840 -0.2478 -1.8793  0.5195
 6376TIP3    H240544   5.076   3.644  11.775  1.1573  0.6116 -0.8522
 6377TIP3   OH240545   4.189   4.314   1.162  0.4270 -0.3008  0.5218
 6377TIP3    H140546   4.128   4.388   1.159  1.4623  0.5090 -0.9063
 6377TIP3    H240547   4.268   4.346   1.119  1.5924 -1.6078  1.6327
 6378TIP3   OH240548   1.118   2.024  10.994  0.0157  0.1078  0.4814
 6378TIP3    H140549   1.174   2.092  10.957  0.0601 -1.4442 -2.4214
 6378TIP3    H240550   1.178   1.956  11.024 -0.2130 -0.5582 -0.5676
 6379TIP3   OH240551   5.793   4.295  12.902  0.2101  0.0295  0.2861
 6379TIP3    H140552   5.698   4.290  12.915 -0.1720 -1.6186 -2.7417
 6379TIP3    H240553   5.807   4.376  12.853  0.1617 -0.5413 -0.6885
 6380TIP3   OH240554   4.724   3.783  13.030  0.1421 -0.0553  0.2624
 6380TIP3    H140555   4.791   3.805  12.966  0.2429  2.3081  1.1546
 6380TIP3    H240556   4.771   3.776  13.113  0.0462 -3.2795  0.1114
 6381TIP3   OH240557   3.849   4.141   5.081 -0.4022 -0.5750  0.2138
 6381TIP3    H140558   3.767   4.185   5.101  0.0485  0.4395 -0.1706
 6381TIP3    H240559   3.909   4.168   5.151  0.5182  1.2003 -1.2252
 6382TIP3   OH240560   4.120   3.888   2.017 -0.4405 -0.1477 -0.0518
 6382TIP3    H140561   4.194   3.828   2.027  0.7910  1.5478  1.1923
 6382TIP3    H240562   4.081   3.893   2.104 -0.9992  0.3045 -0.3198
 6383TIP3   OH240563   2.315   5.541   3.858 -0.3272  0.1109  0.0020
 6383TIP3    H140564   2.410   5.549   3.852 -0.1803 -2.0341 -0.9625
 6383TIP3    H240565   2.295   5.559   3.950  0.9368  1.0595  0.1086
 6384TIP3   OH240566   5.872   0.007  17.025 -0.1612 -0.3273 -0.1210
 6384TIP3    H140567   5.938   0.075  17.013 -0.8000  0.1298 -1.0625
 6384TIP3    H240568   5.883  -0.021  17.116 -0.6103  1.7602  0.6058
 6385TIP3   OH240569   5.358   5.816   2.454 -0.3443  0.4673  0.6583
 6385TIP3    H140570   5.431   5.859   2.410 -0.2281 -0.4958 -0.1013
 6385TIP3    H240571   5.399   5.756   2.516 -0.4893  0.0387  0.3404
 6386TIP3   OH240572   3.738   4.544   5.215  0.3063  0.2583 -0.2236
 6386TIP3    H140573   3.792   4.552   5.137  1.6564  1.9296  0.8613
 6386TIP3    H240574   3.784   4.480   5.270  1.0287  1.4243  0.5496
 6387TIP3   OH240575   1.863   0.579  12.099  0.4942 -0.0082  0.3810
 6387TIP3    H140576   1.930   0.643  12.072 -0.2850  0.5635 -0.2268
 6387TIP3    H240577   1.783   0.631  12.109 -0.1464 -0.8891 -0.1079
 6388TIP3   OH240578   6.255   0.591  15.754 -0.3096  0.5664  0.3056
 6388TIP3    H140579   6.222   0.644  15.826 -2.4232 -0.5769  0.2072
 6388TIP3    H240580   6.214   0.505  15.766 -0.5931  0.3240 -2.1557
 6389TIP3   OH240581   4.122   6.101  11.195  0.3609 -0.0031  0.6628
 6389TIP3    H140582   4.075   6.019  11.180  1.1202 -0.4295  0.5826
 6389TIP3    H240583   4.206   6.088  11.152  1.2496  0.0584  2.3688
 6390TIP3   OH240584   0.114   1.839  17.087 -0.3364 -0.6997 -0.4149
 6390TIP3    H140585   0.143   1.871  17.001 -0.1464 -2.1919 -0.9336
 6390TIP3    H240586   0.027   1.877  17.099 -0.6812 -1.0913 -1.6256
 6391TIP3   OH240587   3.572   2.795  12.847 -0.2356 -0.2978  0.2439
 6391TIP3    H140588   3.597   2.876  12.803  0.9403 -1.2742 -0.9216
 6391TIP3    H240589   3.485   2.775  12.814 -0.3033  0.1909  0.1245
 6392TIP3   OH240590   4.389   3.331  12.393 -0.9095  0.3426  0.3539
 6392TIP3    H140591   4.322   3.273  12.358 -0.1808 -0.4990  0.3116
 6392TIP3    H240592   4.464   3.319  12.335 -0.3234  0.3590  1.0926
 6393TIP3   OH240593   0.103   4.222   4.705 -0.1747  0.4110  0.0304
 6393TIP3    H140594   0.119   4.129   4.723 -0.0004  0.4743  0.2024
 6393TIP3    H240595   0.059   4.254   4.784  1.7089  0.9788  0.8637
 6394TIP3   OH240596   3.270   2.281  17.200 -0.3988  0.3439  0.0907
 6394TIP3    H140597   3.269   2.206  17.259  0.0382 -0.2299 -0.6126
 6394TIP3    H240598   3.289   2.356  17.255  0.0656 -0.1956  0.6608
 6395TIP3   OH240599   6.391   3.671  15.591  0.2118 -0.0594  0.0560
 6395TIP3    H140600   6.351   3.756  15.575  0.1499  0.1175  1.1048
 6395TIP3    H240601   6.320   3.617  15.626  0.2359 -0.5600 -0.6614
 6396TIP3   OH240602   4.613   4.592  15.960  0.6978 -0.8529 -0.1600
 6396TIP3    H140603   4.707   4.580  15.946  0.4561 -1.1781 -1.5218
 6396TIP3    H240604   4.598   4.558  16.048  1.8821 -0.6425  0.1368
 6397TIP3   OH240605   5.403   4.789   0.586  0.0017 -0.7218 -0.5105
 6397TIP3    H140606   5.434   4.879   0.580 -1.1165 -0.4014 -1.6194
 6397TIP3    H240607   5.327   4.794   0.643  1.4743 -1.3819  1.5517
 6398TIP3   OH240608   6.285   4.125  13.102  0.6506  0.4684  0.3303
 6398TIP3    H140609   6.190   4.125  13.119  0.6984  2.2959  0.6726
 6398TIP3    H240610   6.300   4.043  13.055 -0.6702 -1.1855  2.6420
 6399TIP3   OH240611   1.963   1.811  13.766  0.5115 -0.2796  0.6406
 6399TIP3    H140612   1.950   1.845  13.677 -0.8566 -0.1726  0.8783
 6399TIP3    H240613   2.047   1.850  13.793  0.4803  0.4415 -0.2462
 6400TIP3   OH240614   2.462   1.408  11.278 -0.0555 -0.2538  0.3797
 6400TIP3    H140615   2.548   1.414  11.236  0.8066 -1.2377  1.9476
 6400TIP3    H240616   2.424   1.495  11.266  1.0651  0.1342 -0.5284
 6401TIP3   OH240617   4.203   2.652   4.815 -0.4605  0.0736  0.6199
 6401TIP3    H140618   4.184   2.686   4.727 -0.4340  0.7106  0.8600
 6401TIP3    H240619   4.137   2.693   4.871  0.5674  0.9770  1.1810
 6402TIP3   OH240620   5.860   0.232   6.517 -0.0525 -0.4812  0.0087
 6402TIP3    H140621   5.909   0.179   6.455  0.2434  0.6251 -0.7122
 6402TIP3    H240622   5.927   0.275   6.571 -0.1423  2.1338 -1.8884
 6403TIP3   OH240623   6.727   6.525  15.901  0.7047  0.6799  0.1673
 6403TIP3    H140624   6.668   6.498  15.972  0.4483  0.6710 -0.0451
 6403TIP3    H240625   6.779   6.447  15.882  0.7240  0.6612  0.2980
 6404TIP3   OH240626   1.472   0.600   5.120  0.3295 -0.3212 -0.0270
 6404TIP3    H140627   1.469   0.692   5.095 -0.4512 -0.3629 -0.1044
 6404TIP3    H240628   1.400   0.590   5.182  1.1251 -0.6206  0.8686
 6405TIP3   OH240629   2.702   5.194  12.947 -0.1448  0.3978 -0.4068
 6405TIP3    H140630   2.748   5.201  13.031  0.7913 -1.1615 -0.7727
 6405TIP3    H240631   2.618   5.236  12.962 -0.4914 -0.9786  1.7188
 6406TIP3   OH240632   5.163   1.064  12.893  0.2273  0.5089 -0.0103
 6406TIP3    H140633   5.156   1.151  12.854  0.8665  1.4156  1.8304
 6406TIP3    H240634   5.252   1.062  12.929 -0.8033  0.2326  2.5985
 6407TIP3   OH240635   5.528   1.282   5.055 -0.1852  0.1959  0.1379
 6407TIP3    H140636   5.434   1.287   5.069 -0.3646  2.0155 -1.4128
 6407TIP3    H240637   5.566   1.336   5.124  0.0291 -3.5617  3.0955
 6408TIP3   OH240638   6.575   4.265  13.858  1.0015 -0.0975  0.0622
 6408TIP3    H140639   6.581   4.238  13.949  0.4434  0.0734  0.1538
 6408TIP3    H240640   6.633   4.340  13.851  0.9132 -0.0052  0.3222
 6409TIP3   OH240641   4.884   1.736  13.908  0.3652  0.2849 -0.1469
 6409TIP3    H140642   4.855   1.799  13.973 -1.2628 -1.7486  1.1493
 6409TIP3    H240643   4.808   1.723  13.851  0.9328  0.0352 -0.8599
 6410TIP3   OH240644   1.542   1.756   1.593  0.0774 -0.0844  0.3197
 6410TIP3    H140645   1.558   1.778   1.685  0.1072  1.7532 -0.1147
 6410TIP3    H240646   1.525   1.840   1.551 -3.5862 -1.2482 -0.6643
 6411TIP3   OH240647   6.300   4.872  13.012 -0.2709  0.2366 -0.0651
 6411TIP3    H140648   6.215   4.829  13.017 -1.6397  2.8399 -0.0249
 6411TIP3    H240649   6.339   4.860  13.099 -0.1670 -1.7694 -0.3747
 6412TIP3   OH240650   4.112   6.273  11.860 -0.1864  0.7174  0.4398
 6412TIP3    H140651   4.182   6.332  11.890 -0.0233 -0.7932  3.1772
 6412TIP3    H240652   4.151   6.227  11.786  1.7411 -0.0362  1.8602
 6413TIP3   OH240653   1.072   1.983  10.351 -0.6351 -0.4346 -0.2771
 6413TIP3    H140654   1.148   2.041  10.357 -0.2582 -0.9332 -0.2644
 6413TIP3    H240655   0.998   2.043  10.338 -0.3256  0.0896  0.3638
 6414TIP3   OH240656   1.027   0.963   1.778  0.2714 -0.0124  0.1813
 6414TIP3    H140657   1.029   1.054   1.809  0.5710 -0.0231  0.1968
 6414TIP3    H240658   0.934   0.941   1.775  0.2444 -0.0954  1.3523
 6415TIP3   OH240659   6.785   2.880   5.863 -0.2347 -0.7362 -0.2171
 6415TIP3    H140660   6.756   2.952   5.807  1.7853  1.1517  1.0876
 6415TIP3    H240661   6.880   2.892   5.870 -0.2540 -1.8237  2.3666
 6416TIP3   OH240662   3.470   0.099   5.834  0.2378  0.1721  0.1260
 6416TIP3    H140663   3.454   0.032   5.901  1.6843  1.8622  2.1939
 6416TIP3    H240664   3.468   0.182   5.881  1.7249  1.3740 -1.8514
 6417TIP3   OH240665   2.925   2.941   2.900 -0.0706  0.2668  0.2671
 6417TIP3    H140666   2.930   3.013   2.838 -4.3775  1.3673  1.0731
 6417TIP3    H240667   2.983   2.967   2.972  0.4253  1.6798 -0.6223
 6418TIP3   OH240668   2.000   0.229   5.712 -0.0769 -0.2629 -0.1515
 6418TIP3    H140669   1.928   0.175   5.680 -0.5948  0.6798 -0.6087
 6418TIP3    H240670   2.053   0.247   5.634 -1.2274  1.8691 -0.4868
 6419TIP3   OH240671   6.524   0.325   3.388 -0.0849 -0.3464  0.0317
 6419TIP3    H140672   6.582   0.374   3.446  0.5684 -0.6756 -0.3333
 6419TIP3    H240673   6.545   0.233   3.406  2.7311 -0.4787 -3.2572
 6420TIP3   OH240674   4.919   5.845   4.095  0.3537  0.1056 -0.3692
 6420TIP3    H140675   4.918   5.751   4.079 -1.1670 -0.0170  0.3848
 6420TIP3    H240676   4.834   5.876   4.064  0.2377  0.9897  0.7990
 6421TIP3   OH240677   0.188   5.387   1.976 -0.0824  0.3572 -0.6215
 6421TIP3    H140678   0.263   5.327   1.978 -0.9060 -0.6849 -0.5144
 6421TIP3    H240679   0.171   5.407   2.068 -2.4137 -2.5934 -0.3143
 6422TIP3   OH240680   6.538   4.204  16.266  0.5227 -0.2056  0.5180
 6422TIP3    H140681   6.591   4.264  16.318  0.9838 -0.7951  0.7383
 6422TIP3    H240682   6.596   4.130  16.248  0.6229  0.3430 -1.5117
 6423TIP3   OH240683   2.324   2.700   1.441 -0.1669 -0.8375  0.3671
 6423TIP3    H140684   2.406   2.724   1.396  0.4285  0.6469  2.1834
 6423TIP3    H240685   2.349   2.630   1.501 -0.1873 -0.3092  0.9999
 6424TIP3   OH240686   0.076   0.273   3.826  0.0417  0.3951 -0.3135
 6424TIP3    H140687   0.129   0.238   3.897 -1.0971 -0.8507 -0.0555
 6424TIP3    H240688   0.137   0.285   3.753  0.1515 -4.0411 -1.0587
 6425TIP3   OH240689   1.968   4.934  15.669  0.0884 -0.2415 -0.5507
 6425TIP3    H140690   1.936   4.931  15.579 -2.0862  1.7078  0.1005
 6425TIP3    H240691   1.980   5.028  15.687  3.3659 -0.7565  0.2388
 6426TIP3   OH240692   5.805   0.278   0.651 -0.1448 -0.2070  0.4554
 6426TIP3    H140693   5.867   0.343   0.620  1.0963 -1.0766  1.0967
 6426TIP3    H240694   5.720   0.309   0.619  0.3333  2.0752  1.3505
 6427TIP3   OH240695   0.469   6.420  13.630  0.2779 -0.6100  0.2823
 6427TIP3    H140696   0.545   6.477  13.646 -0.3690  0.0644  0.9845
 6427TIP3    H240697   0.434   6.448  13.546  1.5265 -1.7433 -0.6444
 6428TIP3   OH240698   4.181   4.999  15.767 -0.3153  0.1761  0.0265
 6428TIP3    H140699   4.213   5.081  15.803 -0.7379  0.5537 -0.4373
 6428TIP3    H240700   4.097   5.022  15.727 -0.1517 -0.3594 -0.6372
 6429TIP3   OH240701   5.039   0.741   1.306 -0.1203 -0.0160  0.2112
 6429TIP3    H140702   5.051   0.828   1.265  0.6649 -0.0419  0.3796
 6429TIP3    H240703   4.945   0.734   1.320 -0.2541  0.5639 -0.3617
 6430TIP3   OH240704   3.106   5.301   4.014  0.0430  0.2768  0.1300
 6430TIP3    H140705   3.011   5.305   4.003  0.3335  0.2402 -2.7576
 6430TIP3    H240706   3.128   5.208   4.007  0.6447  0.5996 -3.0695
 6431TIP3   OH240707   2.368   1.335   3.769  0.1273 -0.2240  0.1361
 6431TIP3    H140708   2.431   1.359   3.837  0.5909  0.1683 -0.4194
 6431TIP3    H240709   2.321   1.416   3.749  0.0927 -0.3014 -0.1072
 6432TIP3   OH240710   0.782   0.278   2.916  0.0644 -0.3815 -0.4346
 6432TIP3    H140711   0.735   0.287   2.999  0.2574  0.7763 -0.4499
 6432TIP3    H240712   0.838   0.201   2.929 -2.4526 -2.3531 -0.7256
 6433TIP3   OH240713   2.892   3.685  16.943 -0.1550 -0.3963 -0.1691
 6433TIP3    H140714   2.842   3.701  17.023 -1.7613  1.0456 -1.4237
 6433TIP3    H240715   2.826   3.678  16.874  1.2488 -0.8112 -1.5108
 6434TIP3   OH240716   1.701   1.203   6.162 -0.6163 -0.1077 -0.0447
 6434TIP3    H140717   1.627   1.242   6.115 -1.8184  0.8134  2.5303
 6434TIP3    H240718   1.672   1.114   6.182 -1.3972  0.5079  1.6676
 6435TIP3   OH240719   1.348   0.472  14.602  0.3591  0.1265 -0.1667
 6435TIP3    H140720   1.307   0.402  14.651  2.4974 -0.8078  0.3293
 6435TIP3    H240721   1.362   0.436  14.514 -1.2355  0.9595 -0.7784
 6436TIP3   OH240722   6.358   2.105  16.348  0.1155  0.3050 -0.0770
 6436TIP3    H140723   6.448   2.079  16.368 -0.3290 -1.5727 -0.3690
 6436TIP3    H240724   6.325   2.141  16.430  0.4770 -0.9560  0.6399
 6437TIP3   OH240725   4.643   0.931   2.452 -0.1093 -0.1144  0.3339
 6437TIP3    H140726   4.582   0.962   2.384  1.6341  1.4673 -0.5712
 6437TIP3    H240727   4.687   0.856   2.412 -0.2626 -0.2178  0.3568
 6438TIP3   OH240728   3.469   3.135   3.064  0.0761  0.3794  0.2105
 6438TIP3    H140729   3.495   3.222   3.094 -1.9644  0.4954  1.7015
 6438TIP3    H240730   3.422   3.151   2.982  1.7969  0.4288 -0.8119
 6439TIP3   OH240731   1.277   0.606  12.275  0.4857  0.3595  0.3258
 6439TIP3    H140732   1.200   0.660  12.260  0.0624 -0.7112 -1.4782
 6439TIP3    H240733   1.284   0.600  12.371 -1.7846  0.2819  0.5075
 6440TIP3   OH240734   6.626   5.376   4.859 -0.3184 -0.1762 -0.2991
 6440TIP3    H140735   6.666   5.452   4.902 -0.5768  0.5664 -1.3487
 6440TIP3    H240736   6.701   5.321   4.834 -0.0809  0.0826 -0.1603
 6441TIP3   OH240737   4.335   2.747   6.373 -0.1586  0.0265 -0.5331
 6441TIP3    H140738   4.392   2.744   6.451  1.7837  1.7618 -1.8274
 6441TIP3    H240739   4.300   2.659   6.366 -0.8133 -0.0282  2.6271
 6442TIP3   OH240740   3.038   2.134  10.949 -0.2436 -0.8217 -0.0039
 6442TIP3    H140741   2.989   2.068  10.997  1.0294 -1.8238 -0.0393
 6442TIP3    H240742   3.118   2.089  10.921 -0.3356  0.1200 -1.8830
 6443TIP3   OH240743   6.706   5.194   3.812  0.5165  0.4235 -0.1261
 6443TIP3    H140744   6.777   5.131   3.803 -0.1533 -0.0124 -2.6722
 6443TIP3    H240745   6.750   5.275   3.840  1.5231 -0.7932  1.9397
 6444TIP3   OH240746   4.742   6.269  12.266 -0.1157 -0.0455 -0.4580
 6444TIP3    H140747   4.810   6.260  12.199 -1.0131 -2.0696 -1.1400
 6444TIP3    H240748   4.791   6.283  12.347  0.9777  2.5049 -1.4902
 6445TIP3   OH240749   1.337   0.115   1.787  0.5825  0.4461 -1.0812
 6445TIP3    H140750   1.425   0.089   1.762  0.5033 -0.6815 -0.2018
 6445TIP3    H240751   1.314   0.184   1.724  1.9647  0.5462 -1.4979
 6446TIP3   OH240752   2.420   3.840  12.757  0.1087  0.2478 -0.1480
 6446TIP3    H140753   2.480   3.913  12.770  1.5399 -1.0102  0.5341
 6446TIP3    H240754   2.448   3.801  12.674 -0.7914  0.5994 -0.6198
 6447TIP3   OH240755   2.078   2.557  10.755 -0.1858  0.3833  0.2072
 6447TIP3    H140756   1.997   2.570  10.706  1.2955 -1.0577 -2.7550
 6447TIP3    H240757   2.119   2.643  10.757 -0.4603  0.5412 -0.7655
 6448TIP3   OH240758   1.855   6.605   2.664  0.1789  0.4275  1.0017
 6448TIP3    H140759   1.904   6.665   2.608  1.1847  0.4365  1.8884
 6448TIP3    H240760   1.881   6.518   2.634 -1.1532  0.4208 -0.1729
 6449TIP3   OH240761   3.297   2.316   2.863  0.0088  0.2494  0.3651
 6449TIP3    H140762   3.347   2.368   2.799 -0.1921 -0.6013 -0.4827
 6449TIP3    H240763   3.322   2.226   2.845 -2.9128 -0.3336 -1.0351
 6450TIP3   OH240764   6.492   1.292  11.620 -0.4649 -0.6548 -0.0789
 6450TIP3    H140765   6.526   1.268  11.534 -1.0434 -0.7301 -0.2868
 6450TIP3    H240766   6.398   1.275  11.615 -0.2568 -2.3161  1.1300
 6451TIP3   OH240767   5.762   2.313   4.545  0.2543  0.3653 -0.0351
 6451TIP3    H140768   5.798   2.238   4.496  1.0535  0.6277  0.1437
 6451TIP3    H240769   5.672   2.320   4.514  1.4932  2.2459 -3.6003
 6452TIP3   OH240770   0.736   5.622  15.507  0.1602  0.0717  0.3134
 6452TIP3    H140771   0.817   5.654  15.548 -0.4277  3.1453 -0.7705
 6452TIP3    H240772   0.699   5.700  15.465 -1.5687 -2.0498 -2.1921
 6453TIP3   OH240773   3.796   2.251   4.822  0.2933 -0.3490  0.2849
 6453TIP3    H140774   3.844   2.328   4.852  0.2562  1.1766 -3.2687
 6453TIP3    H240775   3.841   2.224   4.742 -1.4643 -2.2291 -0.1165
 6454TIP3   OH240776   0.917   2.665   4.700 -0.3140 -0.5935 -0.1457
 6454TIP3    H140777   0.878   2.663   4.613 -0.7793 -0.4869  0.0592
 6454TIP3    H240778   0.848   2.697   4.757  0.8340  2.0152 -0.1639
 6455TIP3   OH240779   6.648   3.533   1.565  0.4049  1.1801  0.0956
 6455TIP3    H140780   6.727   3.588   1.564  0.7365  0.7077 -0.7718
 6455TIP3    H240781   6.607   3.550   1.649  1.8069  0.9324  0.8429
 6456TIP3   OH240782   1.363   2.172   4.358  0.2857 -0.4323 -0.1800
 6456TIP3    H140783   1.439   2.156   4.415  0.7124  0.3090 -0.5337
 6456TIP3    H240784   1.288   2.147   4.412  0.8454 -2.5187 -0.3191
 6457TIP3   OH240785   0.019   1.530   5.799 -0.0421 -0.1390  0.6286
 6457TIP3    H140786   0.039   1.436   5.798  0.2932 -0.0707  0.9495
 6457TIP3    H240787   0.078   1.566   5.865 -1.2775  0.0458  1.6500
 6458TIP3   OH240788   4.884   6.320  14.127 -0.2216  0.4700 -0.1580
 6458TIP3    H140789   4.864   6.255  14.059 -2.4214 -0.6228  1.4702
 6458TIP3    H240790   4.933   6.272  14.193 -3.6764 -0.1840  2.0688
 6459TIP3   OH240791   6.009   2.310   2.956  0.2000  0.3681 -0.4451
 6459TIP3    H140792   5.915   2.315   2.937  0.0981  0.1537  0.0111
 6459TIP3    H240793   6.050   2.356   2.882 -0.2293 -0.0124 -0.9294
 6460TIP3   OH240794   4.515   5.250   4.927 -0.3194  0.4380  0.0401
 6460TIP3    H140795   4.601   5.289   4.944 -0.6470  1.0737  0.2751
 6460TIP3    H240796   4.467   5.319   4.881 -0.6751  0.0561 -0.1603
 6461TIP3   OH240797   0.168   4.785  11.261 -0.3987 -0.1901 -0.4832
 6461TIP3    H140798   0.141   4.877  11.255 -0.8922 -0.1846  1.4859
 6461TIP3    H240799   0.220   4.770  11.182 -0.3869  1.7548 -0.8684
 6462TIP3   OH240800   5.936   1.944  14.242 -0.7155  0.2920  0.5728
 6462TIP3    H140801   5.997   1.898  14.299 -1.9114 -0.9232  0.9213
 6462TIP3    H240802   5.924   2.030  14.282  1.8300  1.0681 -0.2810
 6463TIP3   OH240803   4.284   1.370   6.625  0.2988  0.4647  0.1042
 6463TIP3    H140804   4.298   1.416   6.708  1.4790 -1.1597  0.8256
 6463TIP3    H240805   4.195   1.335   6.633  1.2861 -1.8326  1.8046
 6464TIP3   OH240806   3.277   0.937   0.668 -0.4111 -0.1165 -0.3645
 6464TIP3    H140807   3.259   0.973   0.755 -1.3858 -1.9974  0.2435
 6464TIP3    H240808   3.294   0.844   0.683  2.3913  0.0817 -1.8538
 6465TIP3   OH240809   5.883   4.894   4.011 -0.0954  0.4215  0.3781
 6465TIP3    H140810   5.923   4.924   3.929  0.5720  1.2947  1.0067
 6465TIP3    H240811   5.957   4.877   4.069 -0.5710  0.0200  0.8753
 6466TIP3   OH240812   2.893   5.750  11.599  0.1547  0.3737 -0.0703
 6466TIP3    H140813   2.957   5.728  11.532 -0.3921 -1.6218  0.0403
 6466TIP3    H240814   2.818   5.787  11.551  1.0115  1.9025 -0.2646
 6467TIP3   OH240815   1.337   0.419   3.139 -0.0711  0.7236 -0.2138
 6467TIP3    H140816   1.330   0.396   3.231  0.1303  0.4218 -0.2734
 6467TIP3    H240817   1.253   0.394   3.101  0.3082 -0.3282 -0.3688
 6468TIP3   OH240818   1.736   1.799   0.563 -0.7129  0.3796 -0.5902
 6468TIP3    H140819   1.734   1.799   0.467 -0.2343 -1.1951 -0.6257
 6468TIP3    H240820   1.663   1.743   0.589 -0.6071  0.4855 -0.0496
 6469TIP3   OH240821   2.533   3.501  10.970 -0.4890  1.1044 -0.3336
 6469TIP3    H140822   2.581   3.430  11.012 -0.3011  1.6122  0.3191
 6469TIP3    H240823   2.446   3.497  11.010  0.4125  3.1320  1.9370
 6470TIP3   OH240824   4.362   1.939  17.231  0.5049  0.2907  0.6248
 6470TIP3    H140825   4.282   1.907  17.272 -1.0425  2.8712 -0.2505
 6470TIP3    H240826   4.389   1.869  17.172 -1.7296 -0.1873  0.1268
 6471TIP3   OH240827   0.819   5.085   0.564 -0.3497  0.9698 -0.1515
 6471TIP3    H140828   0.833   5.026   0.491  1.2728  0.4650  0.5309
 6471TIP3    H240829   0.749   5.144   0.535 -1.5097 -0.8308 -1.0972
 6472TIP3   OH240830   5.787   6.065  14.239  0.0125 -0.1782 -0.7747
 6472TIP3    H140831   5.709   6.041  14.188 -0.7129 -1.0520  0.7261
 6472TIP3    H240832   5.807   5.987  14.290  2.0573 -0.0516 -1.3558
 6473TIP3   OH240833   5.570   4.313  12.633 -0.2627  0.4322 -0.4610
 6473TIP3    H140834   5.519   4.268  12.566  0.1056 -0.3735 -0.2017
 6473TIP3    H240835   5.598   4.394  12.591  2.0313 -1.1701 -2.1418
 6474TIP3   OH240836   5.272   6.333  17.238 -0.3910 -0.2544  0.1274
 6474TIP3    H140837   5.280   6.251  17.189 -1.1217 -0.2486 -0.0038
 6474TIP3    H240838   5.322   6.318  17.318  3.0954  0.6787 -1.7857
 6475TIP3   OH240839   2.156   5.066   3.980  0.0014 -0.2231 -0.8049
 6475TIP3    H140840   2.197   4.980   3.992 -0.3957 -0.1333  1.3932
 6475TIP3    H240841   2.201   5.104   3.905  3.3760 -0.4437  1.0265
 6476TIP3   OH240842   4.488   5.390   1.645  0.7384  0.2237  0.5202
 6476TIP3    H140843   4.511   5.408   1.736 -0.0826  0.6150  0.6616
 6476TIP3    H240844   4.392   5.380   1.646  0.9958 -2.7601  0.2158
 6477TIP3   OH240845   6.452   4.516  14.154  0.5596 -0.7439 -0.3246
 6477TIP3    H140846   6.448   4.540  14.062  0.8495  1.2783  0.1634
 6477TIP3    H240847   6.488   4.593  14.197 -0.5999 -1.2641  1.6360
 6478TIP3   OH240848   6.726   0.911  14.887  0.0434 -0.1527 -0.4580
 6478TIP3    H140849   6.804   0.946  14.930 -0.7900 -2.0099  2.7863
 6478TIP3    H240850   6.664   0.983  14.888 -0.1775 -0.3286  2.1879
 6479TIP3   OH240851   4.923   3.301  11.315 -1.0134 -0.2754  0.2598
 6479TIP3    H140852   4.869   3.378  11.294 -1.4408 -0.2863  1.2584
 6479TIP3    H240853   4.976   3.329  11.389 -0.6177 -0.6997  0.1364
 6480TIP3   OH240854   0.752   0.412   3.882 -0.1859  0.7018 -0.1844
 6480TIP3    H140855   0.784   0.430   3.970  0.1774 -1.0222  0.0627
 6480TIP3    H240856   0.818   0.353   3.844 -1.4978 -0.4241 -0.7661
 6481TIP3   OH240857   1.334   2.126  11.997 -0.0636 -0.3256  0.0004
 6481TIP3    H140858   1.347   2.128  12.092 -2.0916  0.2426  0.2805
 6481TIP3    H240859   1.285   2.045  11.981 -1.0130  0.3274 -0.3934
 6482TIP3   OH240860   2.400   3.581   5.290 -0.2853  0.0852 -0.4710
 6482TIP3    H140861   2.471   3.526   5.257  0.2684  1.3499 -1.4237
 6482TIP3    H240862   2.321   3.547   5.247 -0.0972 -0.6185 -0.2597
 6483TIP3   OH240863   5.054   3.748  11.411 -0.4874 -0.2800 -0.6346
 6483TIP3    H140864   5.126   3.693  11.443 -0.5950 -1.2616 -2.0568
 6483TIP3    H240865   5.020   3.702  11.335 -2.7889  0.0680  0.1454
 6484TIP3   OH240866   1.605   6.668   2.287 -0.3762 -0.6060  0.1952
 6484TIP3    H140867   1.598   6.587   2.236  0.2021  0.0981 -1.0371
 6484TIP3    H240868   1.556   6.733   2.236 -0.2556 -0.0165  0.8210
 6485TIP3   OH240869   5.609   0.531  12.202 -0.2258  0.3668  0.0039
 6485TIP3    H140870   5.577   0.470  12.268 -0.4066  1.6389  1.1198
 6485TIP3    H240871   5.696   0.556  12.232 -0.6002  1.5166  0.1519
 6486TIP3   OH240872   3.740   6.042   2.980  0.4127 -0.0471  0.4916
 6486TIP3    H140873   3.809   6.005   2.925 -1.3888 -1.6339 -0.7451
 6486TIP3    H240874   3.762   6.013   3.069  0.6371 -1.6095 -0.0671
 6487TIP3   OH240875   1.858   2.216   1.428  0.1042 -0.0721 -0.4209
 6487TIP3    H140876   1.829   2.256   1.345  0.8175  0.1755 -0.5575
 6487TIP3    H240877   1.811   2.264   1.495  0.6739  0.7592 -0.6076
 6488TIP3   OH240878   5.044   2.595  12.980  0.6699 -0.0602  0.0453
 6488TIP3    H140879   4.954   2.599  13.011  0.8676 -0.4375  0.6608
 6488TIP3    H240880   5.038   2.558  12.891  0.0226  1.8653 -0.7334
 6489TIP3   OH240881   5.727   3.698  14.361  0.2461 -0.7283  0.3554
 6489TIP3    H140882   5.688   3.652  14.435  0.2190  1.0014  1.4206
 6489TIP3    H240883   5.808   3.736  14.396  0.2062  0.1431 -0.4731
 6490TIP3   OH240884   1.042   2.326  16.343  0.0249 -0.4324 -0.9491
 6490TIP3    H140885   1.112   2.294  16.400 -0.8081  1.0012  0.9378
 6490TIP3    H240886   0.978   2.254  16.342 -0.4548 -0.0682  0.8404
 6491TIP3   OH240887   3.884   6.435  16.385 -0.5998 -0.3059 -0.4271
 6491TIP3    H140888   3.978   6.415  16.376 -0.4094 -0.1833  1.0637
 6491TIP3    H240889   3.869   6.505  16.323  0.3869 -0.0979 -0.4504
 6492TIP3   OH240890   0.125   3.636   3.062  0.2442  0.5255 -0.7196
 6492TIP3    H140891   0.046   3.681   3.031  0.0521  0.2560 -0.6285
 6492TIP3    H240892   0.107   3.543   3.046  0.9938  0.5469 -1.6984
 6493TIP3   OH240893   5.720   3.203  11.623  0.0225  0.3078  0.1332
 6493TIP3    H140894   5.707   3.194  11.529  0.6772  3.7226 -0.3364
 6493TIP3    H240895   5.804   3.160  11.640  0.6401  0.9999 -1.1088
 6494TIP3   OH240896   0.319   0.777   0.543  0.5071  0.1740 -0.3072
 6494TIP3    H140897   0.366   0.826   0.476 -0.4832 -0.5621 -1.5714
 6494TIP3    H240898   0.294   0.696   0.499 -3.4220  1.2681 -0.2498
 6495TIP3   OH240899   1.322   5.120  15.538 -0.2362  0.3540 -0.3597
 6495TIP3    H140900   1.340   5.125  15.632 -1.8434  4.1132 -0.1576
 6495TIP3    H240901   1.384   5.182  15.499  0.7116 -1.5035 -1.8680
 6496TIP3   OH240902   0.763   5.602   4.961 -0.1817 -0.2586  0.7007
 6496TIP3    H140903   0.808   5.517   4.957  2.6488  1.1895  0.1973
 6496TIP3    H240904   0.801   5.646   5.036 -0.5029  1.1652  0.0441
 6497TIP3   OH240905   2.244   4.606  16.282  0.4248 -0.6376  0.1802
 6497TIP3    H140906   2.226   4.670  16.214  0.0844 -0.0075  0.8461
 6497TIP3    H240907   2.165   4.608  16.337  1.1097 -0.3767  1.1680
 6498TIP3   OH240908   5.993   4.584  15.260  0.5642 -0.1894  0.0439
 6498TIP3    H140909   5.964   4.512  15.316  0.7139  0.2577  0.6943
 6498TIP3    H240910   5.917   4.604  15.205  0.7375 -1.2940 -0.6140
 6499TIP3   OH240911   1.638   2.476  13.723 -0.4394  0.2434  0.1821
 6499TIP3    H140912   1.542   2.472  13.723 -0.4471  0.2864 -0.9081
 6499TIP3    H240913   1.658   2.560  13.763 -0.8535  0.2078  0.4734
 6500TIP3   OH240914   3.411   4.942  15.316  0.1891  0.1962  0.1443
 6500TIP3    H140915   3.401   4.847  15.312  0.5767  0.1507  0.2361
 6500TIP3    H240916   3.407   4.970  15.225  0.4829  0.0495  0.0858
 6501TIP3   OH240917   4.013   4.141  15.423 -0.0763  0.2088 -0.0052
 6501TIP3    H140918   3.976   4.160  15.509  0.5461 -2.4915  0.9064
 6501TIP3    H240919   3.945   4.091  15.378  1.1170 -1.8125  0.4109
 6502TIP3   OH240920   0.011   6.213  16.952  0.3511  0.1473  0.2800
 6502TIP3    H140921  -0.068   6.191  16.904  0.3538 -0.5503  0.5994
 6502TIP3    H240922   0.074   6.145  16.929 -0.1377 -1.0906  2.4787
 6503TIP3   OH240923   4.257   1.537   3.124  0.1062  0.7307  0.0598
 6503TIP3    H140924   4.246   1.446   3.098  1.1154  0.7765 -0.5800
 6503TIP3    H240925   4.350   1.544   3.148  0.0330  1.5719  0.1229
 6504TIP3   OH240926   3.922   3.145   5.098 -0.4402  0.1270  0.3138
 6504TIP3    H140927   4.016   3.148   5.116 -0.4326  1.6875  0.0442
 6504TIP3    H240928   3.881   3.181   5.177 -0.6765  1.8385 -0.5603
 6505TIP3   OH240929   4.571   4.733   3.354  0.3813 -0.0809 -0.3038
 6505TIP3    H140930   4.531   4.706   3.271 -0.2078  0.3826 -0.1701
 6505TIP3    H240931   4.519   4.689   3.421  0.4051  0.1237 -0.1502
 6506TIP3   OH240932   0.079   6.344   2.581 -0.3290  0.1618 -0.1153
 6506TIP3    H140933   0.116   6.369   2.665 -0.0100  1.2378 -0.5554
 6506TIP3    H240934   0.043   6.426   2.546  0.3447 -0.0823 -1.4169
 6507TIP3   OH240935   3.069   0.930  14.806  0.0655 -0.3069  0.5107
 6507TIP3    H140936   3.044   0.899  14.719  1.9828  2.4989 -1.1306
 6507TIP3    H240937   2.986   0.937  14.853 -1.1221 -0.9237 -1.4174
 6508TIP3   OH240938   6.219   4.760  14.981  0.0146  0.7548  0.0881
 6508TIP3    H140939   6.200   4.848  15.011 -2.4079 -0.3852  2.1160
 6508TIP3    H240940   6.164   4.748  14.903  2.2917  1.8864 -1.7292
 6509TIP3   OH240941   4.696   3.841   1.353  0.1244 -0.3125 -0.4557
 6509TIP3    H140942   4.629   3.904   1.329 -0.3502 -0.7202 -0.1997
 6509TIP3    H240943   4.651   3.757   1.356  0.6092 -0.5671 -0.1428
 6510TIP3   OH240944   5.131   4.028   2.781  0.1517 -0.2796  0.5166
 6510TIP3    H140945   5.166   4.081   2.710 -0.8013  0.0909  0.3170
 6510TIP3    H240946   5.067   3.971   2.739 -0.8830  0.3864  1.1711
 6511TIP3   OH240947   3.475   4.041  11.760 -0.6535  0.5418 -0.0761
 6511TIP3    H140948   3.430   4.087  11.831 -0.5931  2.8854 -1.4987
 6511TIP3    H240949   3.437   4.078  11.680 -0.5583 -1.8928 -1.2808
 6512TIP3   OH240950   3.584   1.922  15.596 -0.3083 -0.1189 -0.1421
 6512TIP3    H140951   3.628   1.991  15.546 -0.2172  0.8327  1.2187
 6512TIP3    H240952   3.639   1.910  15.673 -3.2874  2.3564  2.5203
 6513TIP3   OH240953   2.844   4.318  13.789  0.5158 -0.1258  0.2709
 6513TIP3    H140954   2.788   4.375  13.736 -0.4521 -1.5903 -0.3231
 6513TIP3    H240955   2.809   4.230  13.774  1.1116 -0.7181  2.2603
 6514TIP3   OH240956   6.563   0.704   2.878  0.8942 -0.8335  0.0199
 6514TIP3    H140957   6.471   0.678   2.866  0.8165 -0.7159  0.3535
 6514TIP3    H240958   6.579   0.692   2.972  0.8136  0.4504  0.2026
 6515TIP3   OH240959   3.420   3.756   5.456 -0.2393  0.1101  0.2802
 6515TIP3    H140960   3.334   3.719   5.438 -0.5757  0.9602  0.1153
 6515TIP3    H240961   3.402   3.837   5.504  0.3763  1.3590 -1.5637
 6516TIP3   OH240962   3.092   2.544   3.550 -0.6676 -0.4778 -0.8658
 6516TIP3    H140963   3.136   2.462   3.527 -0.6240 -0.6327 -0.2395
 6516TIP3    H240964   3.065   2.581   3.466  1.0769 -0.1458 -1.3122
 6517TIP3   OH240965   3.449   1.540  15.017  0.5715  0.1742  0.2240
 6517TIP3    H140966   3.426   1.630  15.039  2.6003  0.6848  0.4245
 6517TIP3    H240967   3.500   1.547  14.936 -1.7302 -1.1052 -1.4156
 6518TIP3   OH240968   3.376   4.903  16.954  0.5470 -0.3726 -0.8462
 6518TIP3    H140969   3.346   4.978  16.903  3.3712 -0.5119 -2.8025
 6518TIP3    H240970   3.446   4.938  17.010 -0.0504 -0.9783  0.3034
 6519TIP3   OH240971   4.007   5.983  15.402  0.2457  0.1996  0.5361
 6519TIP3    H140972   4.049   6.066  15.382 -0.2958  0.4310  0.3598
 6519TIP3    H240973   4.045   5.956  15.486  1.0630  0.1931  0.1701
 6520TIP3   OH240974   5.282   3.918  11.024  0.0429 -0.8660  0.1279
 6520TIP3    H140975   5.296   4.012  11.023 -0.6332 -0.7540  1.4255
 6520TIP3    H240976   5.215   3.903  10.958  0.5536 -0.5189 -0.4831
 6521TIP3   OH240977   6.196   0.107   3.220  0.3807 -0.2342  0.6419
 6521TIP3    H140978   6.227   0.017   3.233  1.0819 -0.4120 -2.0166
 6521TIP3    H240979   6.268   0.151   3.175 -1.2456  0.7098 -1.0985
 6522TIP3   OH240980   3.318   6.649   3.190  0.3236  0.0932  0.2822
 6522TIP3    H140981   3.239   6.691   3.155 -0.3215 -1.7751 -0.5419
 6522TIP3    H240982   3.329   6.570   3.137  0.8409 -1.4145  2.5643
 6523TIP3   OH240983   1.890   2.093  12.281  0.7102  0.2748  0.8323
 6523TIP3    H140984   1.932   2.016  12.320 -2.3134 -1.6718  0.4405
 6523TIP3    H240985   1.799   2.066  12.269 -0.0150  3.3556 -0.9192
 6524TIP3   OH240986   1.652   5.948  15.157  0.0125 -0.4975  0.0813
 6524TIP3    H140987   1.576   5.933  15.213  1.4130  2.5771  3.0049
 6524TIP3    H240988   1.719   5.890  15.192 -0.1122 -1.0498 -0.5942
 6525TIP3   OH240989   5.098   5.239  16.302  0.0659 -0.5919 -0.0580
 6525TIP3    H140990   5.181   5.288  16.298 -0.8895  1.0222 -0.2887
 6525TIP3    H240991   5.060   5.250  16.215 -1.1945  0.0942  0.5753
 6526TIP3   OH240992   3.354   0.353  15.410 -0.0185 -0.1272  0.2695
 6526TIP3    H140993   3.405   0.328  15.486 -0.0592  0.4612  0.4893
 6526TIP3    H240994   3.324   0.442  15.428 -0.3867 -0.1397 -0.2412
 6527TIP3   OH240995   5.566   4.627  16.079 -0.6455  0.0345  0.4592
 6527TIP3    H140996   5.600   4.615  16.168  1.4711 -1.2916 -0.4872
 6527TIP3    H240997   5.616   4.701  16.044  0.9888 -1.5888 -0.7563
 6528TIP3   OH240998   4.695   4.707   4.965 -0.0524 -0.6206  0.0339
 6528TIP3    H140999   4.707   4.625   5.014 -1.3418 -0.3036  0.9020
 6528TIP3    H241000   4.608   4.699   4.925  1.2850 -1.2129 -2.9156
 6529TIP3   OH241001   4.939   2.865  12.861  0.2089 -0.1675 -0.5193
 6529TIP3    H141002   4.941   2.784  12.810  1.1504  0.2132 -1.1052
 6529TIP3    H241003   5.019   2.861  12.914  0.9749  1.0052 -1.5513
 6530TIP3   OH241004   5.580   0.617  15.985  0.1017  0.1457 -0.3308
 6530TIP3    H141005   5.507   0.588  15.931  0.4421 -1.0324 -0.1821
 6530TIP3    H241006   5.585   0.711  15.971  0.5162 -0.1938 -2.7749
 6531TIP3   OH241007   0.812   6.277   3.356 -0.3266 -0.3381  0.9907
 6531TIP3    H141008   0.805   6.186   3.329 -0.6994 -0.6685  2.1596
 6531TIP3    H241009   0.723   6.301   3.383 -0.0405  0.0915  1.5667
 6532TIP3   OH241010   3.296   1.259   3.657 -0.3852 -0.0894  0.2908
 6532TIP3    H141011   3.239   1.273   3.582 -2.4787  0.9797  2.0015
 6532TIP3    H241012   3.312   1.165   3.659 -0.7629 -0.1921 -1.1491
 6533TIP3   OH241013   1.940   3.345   0.797 -0.2749 -0.0167 -0.0898
 6533TIP3    H141014   1.909   3.358   0.707 -2.4920  0.2130  0.6565
 6533TIP3    H241015   1.965   3.253   0.801 -2.0897 -0.5529 -0.4323
 6534TIP3   OH241016   3.813   3.338   5.290 -0.3288 -0.5783 -0.4592
 6534TIP3    H141017   3.720   3.361   5.298 -0.3403 -0.5194 -0.7454
 6534TIP3    H241018   3.851   3.412   5.243  0.0044 -0.2628  0.2966
 6535TIP3   OH241019   3.731   4.926   0.960  0.4832  0.4475 -0.4526
 6535TIP3    H141020   3.786   4.998   0.992  0.4081  0.2095  0.2182
 6535TIP3    H241021   3.721   4.944   0.866  2.4704 -0.0222 -0.7740
 6536TIP3   OH241022   0.054   5.703   5.860 -0.1761 -0.3644 -0.5030
 6536TIP3    H141023   0.067   5.728   5.769 -0.3766 -1.2411 -0.7692
 6536TIP3    H241024   0.139   5.719   5.901  0.2685 -1.1186 -1.1128
 6537TIP3   OH241025   6.107   3.930  13.837 -0.2457  0.2304  0.3712
 6537TIP3    H141026   6.185   3.917  13.782 -0.0165 -1.4397  1.0470
 6537TIP3    H241027   6.142   3.933  13.926 -0.9468 -0.6062  0.6816
 6538TIP3   OH241028   2.930   0.807  12.111  0.2066 -0.1058  0.0684
 6538TIP3    H141029   2.839   0.806  12.078 -0.0877  0.3454  0.8574
 6538TIP3    H241030   2.982   0.832  12.034 -0.0834 -2.4937 -0.9537
 6539TIP3   OH241031   2.480   5.389   3.669 -0.2950 -0.2011 -0.3831
 6539TIP3    H141032   2.512   5.397   3.579  0.9958 -0.6782  0.0245
 6539TIP3    H241033   2.534   5.320   3.707 -1.2320 -0.4045  0.5858
 6540TIP3   OH241034   0.480   4.614   2.357  0.1146 -0.4523  0.0009
 6540TIP3    H141035   0.551   4.677   2.365 -0.6065  0.4307 -0.3895
 6540TIP3    H241036   0.496   4.550   2.426  2.6047 -1.5841 -1.5924
 6541TIP3   OH241037   0.323   4.436   1.414  0.5824 -0.0929 -0.3402
 6541TIP3    H141038   0.359   4.394   1.493  1.4527 -0.5470 -0.9673
 6541TIP3    H241039   0.292   4.363   1.360  0.3359  0.1948 -0.5914
 6542TIP3   OH241040   2.345   1.571  15.186  0.4746  0.1873  0.2251
 6542TIP3    H141041   2.371   1.663  15.185 -1.9142  0.9054  1.0505
 6542TIP3    H241042   2.291   1.561  15.264  0.3779 -1.8297 -0.0537
 6543TIP3   OH241043   5.458   1.329  16.791  0.5881 -0.2666  0.0549
 6543TIP3    H141044   5.540   1.379  16.792 -0.1241  1.0440 -2.1092
 6543TIP3    H241045   5.391   1.393  16.815  0.0780 -1.1041  0.8856
 6544TIP3   OH241046   0.654   3.619   2.564  0.0482 -0.4475  0.5591
 6544TIP3    H141047   0.570   3.575   2.557  0.0354 -0.2534 -0.6051
 6544TIP3    H241048   0.656   3.653   2.653 -0.9245 -0.8084  0.7239
 6545TIP3   OH241049   2.056   4.979   0.016 -0.1778 -0.3077  0.4423
 6545TIP3    H141050   1.998   4.996  -0.057 -0.5807 -0.5804  0.6960
 6545TIP3    H241051   2.117   4.912  -0.017 -0.9832 -1.1641  0.6738
 6546TIP3   OH241052   5.557   6.223   4.513  0.6267  0.0257  0.0555
 6546TIP3    H141053   5.563   6.249   4.605 -1.1283  0.5894  0.0224
 6546TIP3    H241054   5.561   6.128   4.515  0.9950  0.0507  0.6783
 6547TIP3   OH241055   1.218   6.093  16.121  0.0203  0.3249  0.0721
 6547TIP3    H141056   1.171   6.097  16.038  0.9744 -1.2999 -0.5691
 6547TIP3    H241057   1.284   6.163  16.114  0.6811 -0.3782 -0.9256
 6548TIP3   OH241058   6.673   5.133  13.557 -0.0677  0.5882  0.1737
 6548TIP3    H141059   6.650   5.110  13.467 -0.9895  1.6713  0.1149
 6548TIP3    H241060   6.762   5.100  13.568 -0.4564 -0.8003 -0.6724
 6549TIP3   OH241061   5.701   2.107   1.870  0.2009 -0.6814 -0.6793
 6549TIP3    H141062   5.735   2.196   1.858 -0.2203 -0.5320 -0.7927
 6549TIP3    H241063   5.610   2.120   1.899  0.6196 -1.0657  0.8351
 6550TIP3   OH241064   1.089   2.401  13.662  0.1039  0.3890  0.2110
 6550TIP3    H141065   1.129   2.481  13.628 -0.5661  0.8304  0.4362
 6550TIP3    H241066   1.090   2.340  13.589 -2.1853  1.6302 -0.9185
 6551TIP3   OH241067   4.523   3.623   3.844 -0.1276  0.0153 -0.1795
 6551TIP3    H141068   4.596   3.598   3.901 -0.8037 -2.3988 -0.3259
 6551TIP3    H241069   4.450   3.638   3.904 -0.0380  0.5398 -0.1927
 6552TIP3   OH241070   6.661   1.376   3.209  0.1758  0.3750  0.3990
 6552TIP3    H141071   6.634   1.343   3.294  0.5839 -0.5468  0.1762
 6552TIP3    H241072   6.607   1.328   3.146  2.3200 -1.5418 -0.0609
 6553TIP3   OH241073   2.093   0.146   2.165 -0.1445 -0.5689  0.1057
 6553TIP3    H141074   2.012   0.138   2.215 -0.6604 -2.3858 -0.9796
 6553TIP3    H241075   2.162   0.120   2.225 -0.4761 -0.0533  0.7090
 6554TIP3   OH241076   2.370   2.700  14.844 -0.0219  0.1887  0.4509
 6554TIP3    H141077   2.360   2.625  14.903 -2.1845  0.3885  0.3691
 6554TIP3    H241078   2.462   2.727  14.855  0.7450 -2.3177  0.6371
 6555TIP3   OH241079   1.473   4.370  15.691 -0.4952 -0.0217 -0.3171
 6555TIP3    H141080   1.527   4.300  15.654 -0.4469  0.0028 -0.2911
 6555TIP3    H241081   1.391   4.326  15.714 -0.6954  0.0528 -0.8752
 6556TIP3   OH241082   2.760   2.460  14.190  0.2836  0.1889  0.2192
 6556TIP3    H141083   2.683   2.510  14.217 -0.6770 -0.5308 -1.2072
 6556TIP3    H241084   2.746   2.372  14.226  0.6384  0.1587  0.2915
 6557TIP3   OH241085   4.041   4.221  14.370 -0.1417  0.3411  0.5491
 6557TIP3    H141086   4.017   4.295  14.426 -0.2931  1.7271 -1.3161
 6557TIP3    H241087   4.131   4.202  14.394 -0.2183  0.8761  1.3033
 6558TIP3   OH241088   0.146   3.174  12.006 -0.4609  0.0898 -0.0497
 6558TIP3    H141089   0.082   3.245  12.002 -0.7827 -0.2268 -0.5153
 6558TIP3    H241090   0.221   3.206  11.957  0.1201  0.8494  1.3134
 6559TIP3   OH241091   4.234   0.486  11.661 -0.0853  0.2280  0.0657
 6559TIP3    H141092   4.163   0.539  11.626 -0.3803  1.1288  1.9734
 6559TIP3    H241093   4.313   0.522  11.621 -0.5236  0.3459 -0.7100
 6560TIP3   OH241094   2.379   4.646  14.129 -0.2918 -0.3925 -0.8659
 6560TIP3    H141095   2.434   4.569  14.112  1.3310  0.8363 -1.2559
 6560TIP3    H241096   2.430   4.720  14.095 -1.9117  0.8426 -0.6549
 6561TIP3   OH241097   1.196   2.532   3.205 -0.4663 -0.0771  0.4233
 6561TIP3    H141098   1.285   2.515   3.174 -0.7508 -0.9428  0.0642
 6561TIP3    H241099   1.208   2.568   3.292  0.1411 -3.7133  1.9317
 6562TIP3   OH241100   1.225   6.260  13.167  0.6967  0.0516 -0.3649
 6562TIP3    H141101   1.293   6.326  13.181 -0.1266  0.7764  0.2794
 6562TIP3    H241102   1.149   6.292  13.217 -0.2580 -0.5198 -1.4179
 6563TIP3   OH241103   1.641   4.362  17.051 -0.0462 -0.1995  0.5897
 6563TIP3    H141104   1.588   4.441  17.046  1.5923  0.8782  0.0941
 6563TIP3    H241105   1.587   4.300  17.100 -1.4278  1.1394  0.7828
 6564TIP3   OH241106   4.959   2.314   1.575  0.5827  0.7347 -0.2296
 6564TIP3    H141107   4.904   2.388   1.601  0.5203  0.7505 -0.4092
 6564TIP3    H241108   4.905   2.237   1.595  1.2425  0.6725  1.4125
 6565TIP3   OH241109   1.729   3.270   4.678  0.1376  0.2805 -0.0689
 6565TIP3    H141110   1.797   3.208   4.653  0.1259  0.1777  0.1465
 6565TIP3    H241111   1.660   3.258   4.613  0.5586  0.7862 -0.6189
 6566TIP3   OH241112   1.169   4.639   4.566  0.4489  0.1628 -0.3287
 6566TIP3    H141113   1.173   4.635   4.661 -1.0005 -0.7668 -0.2929
 6566TIP3    H241114   1.239   4.581   4.536 -0.4324 -1.1915  0.1881
 6567TIP3   OH241115   0.862   0.323   4.628 -0.1230 -0.3152 -0.8025
 6567TIP3    H141116   0.849   0.320   4.533 -0.7037  1.5230 -0.8112
 6567TIP3    H241117   0.957   0.328   4.640  0.1099 -3.2566 -1.1599
 6568TIP3   OH241118   2.205   3.508   5.587  0.5984  0.1094  0.0793
 6568TIP3    H141119   2.190   3.570   5.659 -0.5437  0.8227 -0.7509
 6568TIP3    H241120   2.285   3.540   5.545  1.0992 -0.1310  0.8608
 6569TIP3   OH241121   0.730   3.455   0.279 -0.3016 -0.0878  0.7423
 6569TIP3    H141122   0.642   3.418   0.287 -0.6488  0.7222  0.7084
 6569TIP3    H241123   0.786   3.394   0.327 -0.7881 -0.9425  0.2397
 6570TIP3   OH241124   5.761   1.847  12.899  0.2810  0.5874  0.0323
 6570TIP3    H141125   5.752   1.754  12.917  2.3007  0.0131 -1.7481
 6570TIP3    H241126   5.832   1.876  12.957 -0.3104  0.9963  0.5501
 6571TIP3   OH241127   2.177   1.013  11.312  0.1117  0.0812 -0.5865
 6571TIP3    H141128   2.176   1.000  11.217  0.2318 -0.2947 -0.5363
 6571TIP3    H241129   2.249   1.074  11.327 -1.0236  1.5338 -0.9099
 6572TIP3   OH241130   1.991   1.123  16.109 -0.2972 -0.6032  0.4117
 6572TIP3    H141131   2.074   1.077  16.098  0.4862  0.7246  0.6337
 6572TIP3    H241132   1.982   1.175  16.029  0.3523  1.2071  1.5021
 6573TIP3   OH241133   5.523   1.259  15.956 -0.0398 -0.1001 -0.1134
 6573TIP3    H141134   5.536   1.219  15.870  1.7699  0.4670 -0.1209
 6573TIP3    H241135   5.487   1.189  16.010 -0.5994 -0.6334 -1.1646
 6574TIP3   OH241136   2.821   0.364   1.197  0.5277  0.2681  0.2351
 6574TIP3    H141137   2.782   0.382   1.282  0.2580 -0.5361  0.2900
 6574TIP3    H241138   2.912   0.393   1.206  1.1131 -1.8079  1.5375
 6575TIP3   OH241139   6.506   1.733  16.241 -0.2675 -0.6480  0.0348
 6575TIP3    H141140   6.533   1.645  16.268  0.3704 -0.8454 -1.2205
 6575TIP3    H241141   6.550   1.747  16.157 -1.0901  0.5132 -0.2136
 6576TIP3   OH241142   0.653   5.783   1.251 -0.1789  0.1231 -0.1086
 6576TIP3    H141143   0.583   5.793   1.187 -1.3096 -1.5237  0.8410
 6576TIP3    H241144   0.614   5.813   1.334  0.9017  1.1472  0.0532
 6577TIP3   OH241145   3.291   1.235   5.532  0.0845  0.1361 -0.3121
 6577TIP3    H141146   3.361   1.290   5.568 -0.1355 -0.1930  0.6528
 6577TIP3    H241147   3.253   1.193   5.609 -1.3682  0.5365 -0.7884
 6578TIP3   OH241148   5.746   6.290   5.959 -0.4779  0.1432  0.5688
 6578TIP3    H141149   5.759   6.246   5.875  3.0616 -0.3192  1.2723
 6578TIP3    H241150   5.714   6.222   6.018 -0.5887 -0.1078  0.2169
 6579TIP3   OH241151   4.957   6.356  14.519  0.1901 -0.5643 -0.5612
 6579TIP3    H141152   4.881   6.325  14.568 -0.2869  0.4007 -0.6779
 6579TIP3    H241153   4.972   6.288  14.453 -0.0585 -1.1580 -0.0154
 6580TIP3   OH241154   2.686   1.310  13.272 -0.9508 -0.2249  0.4286
 6580TIP3    H141155   2.738   1.303  13.193 -0.9608  0.5734  0.3475
 6580TIP3    H241156   2.739   1.270  13.340 -0.0995  0.8581  0.4088
 6581TIP3   OH241157   3.747   3.982  12.759 -0.7245 -0.2126 -0.6627
 6581TIP3    H141158   3.746   3.905  12.702  0.1405 -0.1686 -0.7358
 6581TIP3    H241159   3.705   3.952  12.840 -1.3008 -0.4736 -1.0490
 6582TIP3   OH241160   5.121   4.687  17.151  0.8014  0.4147  0.1691
 6582TIP3    H141161   5.081   4.686  17.064  0.2597  1.0192  0.4074
 6582TIP3    H241162   5.215   4.685  17.134  0.7079  1.0157 -0.4435
 6583TIP3   OH241163   5.280   0.279   5.127  0.7188 -0.7883 -0.5180
 6583TIP3    H141164   5.297   0.352   5.187  0.5554 -1.2473  0.0849
 6583TIP3    H241165   5.271   0.321   5.042 -2.0614  0.2449  0.2254
 6584TIP3   OH241166   1.354   5.093  16.276  0.5361  0.0688 -0.4953
 6584TIP3    H141167   1.325   5.184  16.282 -1.6614 -0.6773  0.6055
 6584TIP3    H241168   1.440   5.098  16.233  1.2953  2.8000  1.2074
 6585TIP3   OH241169   5.856   4.491   4.690 -0.4810 -0.5691  0.7728
 6585TIP3    H141170   5.936   4.467   4.643 -0.3725 -0.0127  0.6752
 6585TIP3    H241171   5.840   4.418   4.749  1.1513  0.1850  2.1660
 6586TIP3   OH241172   6.436   5.209   3.807  0.1427  0.6497  0.4869
 6586TIP3    H141173   6.526   5.180   3.793  0.0707  0.5289  0.2734
 6586TIP3    H241174   6.436   5.243   3.896 -0.4866 -2.7223  1.8375
 6587TIP3   OH241175   0.675   1.890   4.091  0.1564  0.0823  0.1663
 6587TIP3    H141176   0.609   1.847   4.038  0.0035 -0.9074  1.1309
 6587TIP3    H241177   0.676   1.981   4.061  0.8202 -0.6930 -2.2302
 6588TIP3   OH241178   5.232   4.405  12.030  0.4431  0.1123 -0.3027
 6588TIP3    H141179   5.142   4.388  12.058  0.5164  0.2212  0.0029
 6588TIP3    H241180   5.225   4.483  11.975  0.7805  2.0629  2.3480
 6589TIP3   OH241181   1.605   3.300   6.228 -0.2289  0.2062  0.0980
 6589TIP3    H141182   1.687   3.339   6.200 -0.1644 -1.5253 -2.1696
 6589TIP3    H241183   1.604   3.312   6.323  2.3069  0.8247  0.0613
 6590TIP3   OH241184   1.805   1.111   5.879 -0.5523  0.3334  0.1040
 6590TIP3    H141185   1.731   1.053   5.898 -1.9068  1.8787 -0.3401
 6590TIP3    H241186   1.880   1.069   5.921 -1.4866 -1.7671 -0.2753
 6591TIP3   OH241187   4.079   4.958  11.458  0.0019  0.1127 -0.4323
 6591TIP3    H141188   4.053   4.881  11.510 -0.4977  1.8526  2.0119
 6591TIP3    H241189   4.141   5.004  11.514  0.6952  1.2178 -2.0988
 6592TIP3   OH241190   4.666   5.233  12.128 -0.0310  0.1977  0.4843
 6592TIP3    H141191   4.622   5.313  12.158  0.7483  0.6592  0.4090
 6592TIP3    H241192   4.712   5.200  12.206  0.2330  0.2157  0.3368
 6593TIP3   OH241193   5.013   5.818  10.392  0.0632 -0.3681 -0.4494
 6593TIP3    H141194   4.921   5.819  10.419  0.6859  0.6740  1.7253
 6593TIP3    H241195   5.036   5.726  10.384 -1.1195 -0.6329 -0.8575
 6594TIP3   OH241196   1.936   5.893  13.916 -0.4436 -0.0644  0.0060
 6594TIP3    H141197   2.029   5.890  13.936 -0.3147  0.4308 -0.5159
 6594TIP3    H241198   1.908   5.981  13.942 -0.6401 -0.0094 -0.3897
 6595TIP3   OH241199   4.502   0.947  11.724 -0.2750 -0.6368 -0.2396
 6595TIP3    H141200   4.452   0.944  11.642 -0.4348 -0.6958 -0.1393
 6595TIP3    H241201   4.449   1.002  11.782  0.2575  0.1100 -0.4600
 6596TIP3   OH241202   5.848   6.738  11.541  0.4106 -0.5627  0.0054
 6596TIP3    H141203   5.910   6.810  11.546 -0.1838  0.0836 -1.5351
 6596TIP3    H241204   5.829   6.729  11.447 -1.7960 -0.7428  0.4442
 6597TIP3   OH241205   0.930   2.001  12.896 -0.7761 -0.0591  0.3328
 6597TIP3    H141206   0.906   1.917  12.935  0.7609 -0.6629  0.0220
 6597TIP3    H241207   0.904   1.992  12.804 -2.7457  0.6945  0.7894
 6598TIP3   OH241208   2.162   5.563   1.438  0.5755  0.2582 -0.6918
 6598TIP3    H141209   2.249   5.566   1.398  1.3583  2.3976  1.0866
 6598TIP3    H241210   2.172   5.505   1.514 -0.7286 -3.2043 -3.0430
 6599TIP3   OH241211   5.982   6.684  13.360 -0.3614 -0.3844  0.2998
 6599TIP3    H141212   5.945   6.743  13.293  0.4236  0.1284  0.3114
 6599TIP3    H241213   6.014   6.743  13.428  0.6995 -0.8033  0.1756
 6600TIP3   OH241214   5.742   0.255  13.383  0.5783 -0.2607  0.2470
 6600TIP3    H141215   5.802   0.319  13.420  0.6566  0.1444 -0.5728
 6600TIP3    H241216   5.799   0.192  13.338  0.3166  1.1587 -2.1604
 6601TIP3   OH241217   1.364   4.898  16.510 -0.1393  0.0618  0.3889
 6601TIP3    H141218   1.294   4.937  16.457  0.6922  1.5934  0.3701
 6601TIP3    H241219   1.433   4.964  16.509  0.6669 -0.7491  1.7407
 6602TIP3   OH241220   2.547   2.649  12.242  0.0423  0.4435  0.3839
 6602TIP3    H141221   2.515   2.566  12.205 -0.7358  1.8091 -2.1840
 6602TIP3    H241222   2.469   2.690  12.279  0.4112  0.0844  1.5716
 6603TIP3   OH241223   1.182   3.467   5.442 -0.3710  0.2573  0.0908
 6603TIP3    H141224   1.125   3.490   5.368 -0.6131  1.1915  0.5572
 6603TIP3    H241225   1.138   3.506   5.518  0.5999  0.4930  0.5280
 6604TIP3   OH241226   1.776   2.491  16.451  0.0184  0.5747 -0.0576
 6604TIP3    H141227   1.809   2.446  16.373 -1.7025 -0.5954 -0.1422
 6604TIP3    H241228   1.714   2.430  16.489 -1.1238  2.2150  0.7760
 6605TIP3   OH241229   5.589   6.013   3.406 -0.3008 -0.2476 -0.2373
 6605TIP3    H141230   5.636   5.967   3.337  0.0841 -0.0017 -0.1435
 6605TIP3    H241231   5.511   5.961   3.421  0.0720 -0.8076 -0.2132
 6606TIP3   OH241232   4.770   2.904  13.708 -0.0292 -0.2805 -0.1642
 6606TIP3    H141233   4.849   2.946  13.742 -1.0729  1.3884  0.2597
 6606TIP3    H241234   4.743   2.844  13.778  0.3017 -0.1325  0.0948
 6607TIP3   OH241235   4.137   3.416  11.480  0.2447  0.9648  0.4946
 6607TIP3    H141236   4.222   3.372  11.483  0.5478  1.4320 -0.8272
 6607TIP3    H241237   4.103   3.410  11.569  1.7262  0.8837  1.0549
 6608TIP3   OH241238   5.602   5.939  17.044 -0.6075 -0.2265 -0.4398
 6608TIP3    H141239   5.529   5.894  17.002 -2.3750  0.1818  2.0616
 6608TIP3    H241240   5.583   6.032  17.031 -0.6902 -0.1130  0.4439
 6609TIP3   OH241241   0.032   1.513   0.576  0.0473 -0.0078  0.3171
 6609TIP3    H141242   0.029   1.428   0.533 -0.8760 -0.7053  1.7071
 6609TIP3    H241243   0.016   1.576   0.506 -0.0595 -1.0270 -0.5881
 6610TIP3   OH241244   5.491   4.630  11.705  0.2702 -0.6978 -0.1910
 6610TIP3    H141245   5.579   4.618  11.741  0.6710  2.8479  0.2524
 6610TIP3    H241246   5.505   4.642  11.611  0.3843  0.4505 -0.0458
 6611TIP3   OH241247   0.893   6.483   5.302 -0.5674  0.2233 -0.4549
 6611TIP3    H141248   0.987   6.497   5.297 -0.6650  0.7308 -0.9636
 6611TIP3    H241249   0.864   6.535   5.377 -0.2450 -1.0501  0.5687
 6612TIP3   OH241250   1.780   4.705   1.753 -0.1562  0.1521  0.4492
 6612TIP3    H141251   1.723   4.677   1.682 -0.8187  0.1956  0.9639
 6612TIP3    H241252   1.866   4.670   1.730 -0.7120 -1.2523  0.4729
 6613TIP3   OH241253   2.588   2.756  15.009 -0.2947 -0.3074 -0.0911
 6613TIP3    H141254   2.638   2.831  15.041  0.4137 -0.0390 -1.8245
 6613TIP3    H241255   2.649   2.708  14.953 -1.4123 -0.9928 -0.7323
 6614TIP3   OH241256   1.236   2.241   4.859  0.0462  0.0266 -0.2946
 6614TIP3    H141257   1.195   2.160   4.829 -0.5391  0.4334 -0.5981
 6614TIP3    H241258   1.276   2.278   4.781  0.9794 -0.3565 -0.0052
 6615TIP3   OH241259   3.936   3.311  16.084 -0.2856 -0.2903 -0.3959
 6615TIP3    H141260   3.900   3.249  16.148 -2.3879 -1.1516 -2.3272
 6615TIP3    H241261   3.991   3.257  16.026 -0.8120 -0.0746 -1.1043
 6616TIP3   OH241262   3.943   6.478  12.661 -0.5680  0.6719 -1.0432
 6616TIP3    H141263   4.007   6.409  12.645 -0.5595  0.3134  0.4357
 6616TIP3    H241264   3.953   6.538  12.587 -0.2858 -0.6918 -2.1207
 6617TIP3   OH241265   1.877   0.034  12.531 -0.0034  0.4386  0.4281
 6617TIP3    H141266   1.892   0.074  12.445 -1.8423  0.2367 -0.0232
 6617TIP3    H241267   1.904   0.100  12.594  2.9040 -0.0081 -0.2719
 6618TIP3   OH241268   4.258   5.516  10.613  0.5055  0.5451 -0.5582
 6618TIP3    H141269   4.188   5.465  10.572  2.4494 -0.9704 -2.0975
 6618TIP3    H241270   4.278   5.585  10.551  1.1514  0.2775 -0.6551
 6619TIP3   OH241271   5.133   0.097  15.426  0.1375 -0.4427  0.3365
 6619TIP3    H141272   5.188   0.146  15.487 -1.7047  2.5844 -0.3195
 6619TIP3    H241273   5.050   0.084  15.473 -0.9283  1.0010 -1.0795
 6620TIP3   OH241274   6.008   3.482  16.349  0.5751  0.2100 -0.5504
 6620TIP3    H141275   6.014   3.387  16.346 -0.2942  0.0999  0.8300
 6620TIP3    H241276   5.965   3.501  16.432  0.9125  1.8194 -0.7270
 6621TIP3   OH241277   3.525   1.521   3.492 -1.0113 -0.1398  0.1051
 6621TIP3    H141278   3.573   1.588   3.444 -1.0167 -0.8679 -0.9328
 6621TIP3    H241279   3.451   1.568   3.530 -0.0960  0.7753  0.8183
 6622TIP3   OH241280   1.597   2.745  15.388  0.3170  0.0460 -0.1152
 6622TIP3    H141281   1.571   2.837  15.399  0.1409  0.1714 -1.4523
 6622TIP3    H241282   1.520   2.695  15.415  0.5795  0.2765  1.0692
 6623TIP3   OH241283   0.281   0.162  15.392 -0.3253  0.1507  0.7574
 6623TIP3    H141284   0.258   0.095  15.328 -0.7734  1.1734 -0.1573
 6623TIP3    H241285   0.197   0.197  15.421 -0.0497  1.3068  0.1732
 6624TIP3   OH241286   3.879   5.788   5.685  0.1764  0.0501  0.0493
 6624TIP3    H141287   3.858   5.829   5.769 -1.3811 -0.4317 -0.0821
 6624TIP3    H241288   3.889   5.695   5.705 -0.9073 -0.1722 -0.3987
 6625TIP3   OH241289   6.623   2.528   0.440  0.2496  0.0439 -0.0040
 6625TIP3    H141290   6.698   2.469   0.455  0.1438 -0.4326 -1.3085
 6625TIP3    H241291   6.557   2.499   0.502 -0.3232 -2.1600 -1.5815
 6626TIP3   OH241292   5.683   2.088   1.572  0.1740 -0.1695 -0.0201
 6626TIP3    H141293   5.680   2.050   1.659  0.0078  1.4961  0.7229
 6626TIP3    H241294   5.769   2.128   1.566  0.0757 -0.0293 -0.5101
 6627TIP3   OH241295   5.983   0.038  15.115 -0.0009  0.5368 -0.2773
 6627TIP3    H141296   5.954   0.017  15.026 -2.4214  2.3262  0.0544
 6627TIP3    H241297   5.918  -0.003  15.172  0.4760  1.0060  0.6198
 6628TIP3   OH241298   2.751   3.660  12.298 -0.2107  0.4850  0.2938
 6628TIP3    H141299   2.742   3.741  12.248 -0.9260  0.7963  0.9080
 6628TIP3    H241300   2.831   3.620  12.265 -0.7321  0.6199 -1.1855
 6629TIP3   OH241301   5.818   6.239  16.951 -0.0293 -0.0332  0.0703
 6629TIP3    H141302   5.735   6.203  16.982  0.6113  0.0350  1.8987
 6629TIP3    H241303   5.820   6.328  16.986  0.9165 -0.1131  0.2257
 6630TIP3   OH241304   5.851   6.596   2.325  0.4700 -0.4859  0.3359
 6630TIP3    H141305   5.852   6.581   2.231 -0.7162  0.6930  0.1128
 6630TIP3    H241306   5.942   6.587   2.352  1.4569  2.8430 -1.5635
 6631TIP3   OH241307   1.681   5.632   4.404  0.5020  0.7388  0.0189
 6631TIP3    H141308   1.716   5.550   4.368 -0.5451  0.0256  0.6113
 6631TIP3    H241309   1.631   5.605   4.480  0.7603  2.0175  0.6571
 6632TIP3   OH241310   0.899   3.796  10.714 -0.2038 -0.2211 -0.4393
 6632TIP3    H141311   0.945   3.741  10.649  3.4422  0.0731  1.7557
 6632TIP3    H241312   0.909   3.885  10.681  0.7541 -0.1734 -0.0561
 6633TIP3   OH241313   5.604   1.306   3.365  0.3204 -0.0577  0.2472
 6633TIP3    H141314   5.520   1.284   3.405  0.4060  0.2182  0.5769
 6633TIP3    H241315   5.588   1.388   3.319  1.2060  1.6165  2.8675
 6634TIP3   OH241316   1.593   2.850  12.471  0.3700 -0.0582 -0.1319
 6634TIP3    H141317   1.541   2.791  12.526  1.1588  0.5093  1.2807
 6634TIP3    H241318   1.588   2.813  12.383 -1.2376 -0.7899  0.2580
 6635TIP3   OH241319   0.922   1.251  12.219  0.1584  0.4924  0.3372
 6635TIP3    H141320   0.965   1.176  12.179 -0.2263  1.3085 -1.6842
 6635TIP3    H241321   0.884   1.217  12.300  0.4551 -1.3609 -0.2810
 6636TIP3   OH241322   4.685   4.711   2.235 -0.3197  0.0878  0.4508
 6636TIP3    H141323   4.728   4.649   2.176  1.7905 -1.2779  3.3259
 6636TIP3    H241324   4.745   4.785   2.242 -1.1030  0.7826  0.0033
 6637TIP3   OH241325   6.742   5.503   6.072  0.3409  0.5252 -0.4530
 6637TIP3    H141326   6.769   5.534   6.159  0.9598  0.8939 -0.7683
 6637TIP3    H241327   6.746   5.581   6.017  1.2047  0.0414 -1.0912
 6638TIP3   OH241328   1.533   0.152   3.513  0.4987 -0.3439  0.0378
 6638TIP3    H141329   1.539   0.077   3.454 -0.5612  0.1644 -0.7442
 6638TIP3    H241330   1.497   0.115   3.594 -1.7969 -0.4081 -0.9516
 6639TIP3   OH241331   0.304   3.185   1.783 -0.8543  0.1868 -0.4672
 6639TIP3    H141332   0.216   3.223   1.786 -1.8828 -2.2300  2.2960
 6639TIP3    H241333   0.292   3.101   1.739  0.0420 -0.2717  0.1572
 6640TIP3   OH241334   3.353   6.445   3.024  0.3891 -1.2896  0.4265
 6640TIP3    H141335   3.438   6.488   3.018  0.1539 -1.0020 -1.1956
 6640TIP3    H241336   3.345   6.397   2.941 -0.4239 -2.4473  1.1601
 6641TIP3   OH241337   0.954   4.503  12.763 -0.2844  0.2090  0.5696
 6641TIP3    H141338   0.866   4.470  12.779 -0.0936 -0.1227  0.9532
 6641TIP3    H241339   0.947   4.598  12.778 -1.3990  0.7681 -2.9925
 6642TIP3   OH241340   0.264   5.947  16.087 -0.3922 -0.6597 -0.6392
 6642TIP3    H141341   0.179   5.991  16.094  0.3909  0.7929 -0.0617
 6642TIP3    H241342   0.248   5.858  16.119 -1.4168 -0.0319  0.6279
 6643TIP3   OH241343   1.619   6.702  16.533  0.6485  0.1321  0.1654
 6643TIP3    H141344   1.524   6.694  16.529  0.5953  0.7596  0.0635
 6643TIP3    H241345   1.647   6.635  16.595  0.0669  0.4714  0.7887
 6644TIP3   OH241346   4.073   0.189   4.877  1.0307 -0.5301 -0.1120
 6644TIP3    H141347   4.108   0.105   4.906  0.2492 -1.1893 -1.0746
 6644TIP3    H241348   4.071   0.242   4.957  2.6565 -1.0159  0.2805
 6645TIP3   OH241349   5.754   3.541   0.497  0.3702  0.2359 -0.7134
 6645TIP3    H141350   5.666   3.578   0.499  0.0575 -0.5515  1.3512
 6645TIP3    H241351   5.804   3.595   0.559  0.4945 -1.3206  0.5761
 6646TIP3   OH241352   3.685   2.870   1.940 -0.2721  0.1746 -0.8732
 6646TIP3    H141353   3.599   2.832   1.953  0.2498 -1.5503 -2.2700
 6646TIP3    H241354   3.678   2.920   1.859  0.4672 -1.3552 -1.9047
 6647TIP3   OH241355   4.956   4.863   5.054  0.5898  0.4706 -0.0046
 6647TIP3    H141356   4.945   4.869   4.959 -0.5736  0.5065  0.1312
 6647TIP3    H241357   4.994   4.776   5.068  0.2115  0.2334 -0.4505
 6648TIP3   OH241358   6.615   6.178  12.357  0.7236  0.6656 -0.3496
 6648TIP3    H141359   6.696   6.147  12.398 -0.7312 -1.7577  0.8023
 6648TIP3    H241360   6.573   6.230  12.425 -0.8412 -1.9016  0.7469
 6649TIP3   OH241361   6.174   6.061   3.096  0.7507 -0.0776  0.1542
 6649TIP3    H141362   6.103   6.078   3.157  0.4974  0.4634 -0.2833
 6649TIP3    H241363   6.253   6.088   3.142  0.4865  1.0124 -0.0302
 6650TIP3   OH241364   2.858   0.947   0.498  0.5066 -0.1507  0.4243
 6650TIP3    H141365   2.798   0.943   0.424 -0.8282  0.4718  1.4563
 6650TIP3    H241366   2.927   0.885   0.476 -0.7668 -1.2508 -0.5488
 6651TIP3   OH241367   4.725   2.722  12.011 -0.4341 -0.1948 -0.4259
 6651TIP3    H141368   4.768   2.645  11.974 -0.2541  0.1170 -0.8756
 6651TIP3    H241369   4.699   2.774  11.935  1.8432  1.4876 -0.1253
 6652TIP3   OH241370   1.927   4.082  13.237  0.2177  0.6215 -0.1641
 6652TIP3    H141371   1.983   4.145  13.280 -0.1505  0.9842 -0.2126
 6652TIP3    H241372   1.923   4.008  13.297  1.7517  0.0667 -0.7151
 6653TIP3   OH241373   2.231   6.540  12.694 -0.0365 -0.0934 -0.0763
 6653TIP3    H141374   2.323   6.513  12.701  0.5261  1.6813 -0.1911
 6653TIP3    H241375   2.197   6.533  12.783  0.2271 -0.7370 -0.0261
 6654TIP3   OH241376   6.153   1.899   4.098  0.3436 -0.7960 -0.0797
 6654TIP3    H141377   6.109   1.857   4.024  0.3961  0.4600 -0.8489
 6654TIP3    H241378   6.166   1.989   4.069 -0.7110  0.0238  1.9430
 6655TIP3   OH241379   1.645   4.009  17.000  0.2316 -0.0551 -0.9768
 6655TIP3    H141380   1.686   3.937  16.953  0.1584 -0.7380 -0.0248
 6655TIP3    H241381   1.637   4.079  16.936  1.1001 -0.5959 -1.6858
 6656TIP3   OH241382   4.386   0.147   2.603 -0.7027 -0.0457  0.5363
 6656TIP3    H141383   4.302   0.167   2.560 -0.5373  0.9215  0.6537
 6656TIP3    H241384   4.452   0.182   2.544 -0.3538 -1.3869  0.1355
 6657TIP3   OH241385   3.966   3.643   2.745 -0.7049  0.1469  0.0316
 6657TIP3    H141386   3.919   3.627   2.663  1.1101 -2.7799 -0.5184
 6657TIP3    H241387   4.025   3.716   2.725 -1.4205  0.4971 -0.8040
 6658TIP3   OH241388   0.692   0.445   1.584 -0.4695 -0.0048 -0.1209
 6658TIP3    H141389   0.767   0.497   1.613 -1.2103 -0.2043  2.2970
 6658TIP3    H241390   0.730   0.373   1.533  0.7167  1.6798 -1.6748
 6659TIP3   OH241391   4.740   6.093  15.192  0.0623 -0.4389  0.0841
 6659TIP3    H141392   4.645   6.082  15.195  0.2920 -2.3388  1.0710
 6659TIP3    H241393   4.769   6.042  15.117  0.2052  1.0923 -0.9257
 6660TIP3   OH241394   0.617   0.784  14.688  0.7741  0.0099 -0.2374
 6660TIP3    H141395   0.678   0.746  14.626  1.7573 -0.6274  1.0928
 6660TIP3    H241396   0.648   0.874  14.701 -0.5910  0.8001 -2.1309
 6661TIP3   OH241397   4.281   3.271   5.657  0.0163  0.3231 -0.0528
 6661TIP3    H141398   4.364   3.320   5.655 -0.6469  1.4494 -2.0247
 6661TIP3    H241399   4.225   3.322   5.715  0.3464  0.1726  0.4004
 6662TIP3   OH241400   2.556   0.594  11.039  0.3164 -1.0616  0.6000
 6662TIP3    H141401   2.529   0.551  10.958 -1.5811  1.4292 -0.1274
 6662TIP3    H241402   2.645   0.562  11.053  1.1575 -0.6561 -3.1149
 6663TIP3   OH241403   1.097   2.464   4.625 -0.5262 -0.1082  0.1317
 6663TIP3    H141404   1.033   2.508   4.682 -0.6376  2.0142 -1.5493
 6663TIP3    H241405   1.182   2.488   4.662 -0.6021  1.1746 -0.4661
 6664TIP3   OH241406   5.215   2.483   3.521  0.1518  0.0183 -0.0582
 6664TIP3    H141407   5.194   2.574   3.540  2.6182  0.3502  1.3810
 6664TIP3    H241408   5.152   2.432   3.571  1.9257  0.9582  3.2860
 6665TIP3   OH241409   0.607   4.547   0.066  0.2562  0.6295 -0.1620
 6665TIP3    H141410   0.592   4.473   0.124 -0.2225  0.9075  0.0746
 6665TIP3    H241411   0.700   4.567   0.074  0.4677 -0.2001 -0.5326
 6666TIP3   OH241412   1.790   4.144  12.247  0.0428 -0.0824 -0.5240
 6666TIP3    H141413   1.817   4.124  12.336  2.8260 -0.3892 -1.3980
 6666TIP3    H241414   1.755   4.233  12.252  1.3698  0.3771  0.6353
 6667TIP3   OH241415   4.432   6.469  15.464  0.7932  0.0555 -0.3089
 6667TIP3    H141416   4.358   6.502  15.514  0.4957 -0.1461 -0.6129
 6667TIP3    H241417   4.419   6.504  15.376 -0.2766 -2.0031 -0.9938
 6668TIP3   OH241418   0.047   5.421   1.581  0.0237 -0.2131  0.2506
 6668TIP3    H141419   0.099   5.465   1.513  0.0419  0.7310  0.8535
 6668TIP3    H241420   0.110   5.403   1.651 -0.2771  0.1577  0.6231
 6669TIP3   OH241421   2.130   3.812  12.163  0.7153 -0.5268  0.2279
 6669TIP3    H141422   2.182   3.777  12.090 -1.6200 -1.2043 -1.1504
 6669TIP3    H241423   2.057   3.857  12.121  0.0785  0.2465  2.1384
 6670TIP3   OH241424   2.883   4.263   6.544 -0.7017 -1.0647  0.1835
 6670TIP3    H141425   2.931   4.204   6.602 -3.0130 -2.4870  0.6823
 6670TIP3    H241426   2.798   4.221   6.532 -1.2411  0.5930 -2.0261
 6671TIP3   OH241427   3.244   1.946   6.526 -0.0087  0.4030 -0.0601
 6671TIP3    H141428   3.255   1.854   6.502  1.1748  0.0350  1.7606
 6671TIP3    H241429   3.154   1.954   6.556 -0.7197  0.3020 -2.1356
 6672TIP3   OH241430   4.478   4.306   4.348 -0.1153 -0.3092 -0.2081
 6672TIP3    H141431   4.391   4.265   4.352 -1.4010  2.2650 -0.7054
 6672TIP3    H241432   4.461   4.399   4.363  2.7828  0.0069  1.3166
 6673TIP3   OH241433   2.058   5.933   1.027  0.4143 -0.2199  0.3892
 6673TIP3    H141434   2.118   5.986   0.973  0.1521  0.9194  1.1918
 6673TIP3    H241435   2.116   5.883   1.084  0.6128  1.6658  1.8952
 6674TIP3   OH241436   4.371   6.759   5.744  0.1483  0.2588 -0.2802
 6674TIP3    H141437   4.358   6.812   5.822  0.4825 -0.5568  0.3301
 6674TIP3    H241438   4.454   6.713   5.759 -1.8537 -3.1812  0.7859
 6675TIP3   OH241439   6.480   2.623   3.839  0.0447 -0.4734 -0.2173
 6675TIP3    H141440   6.425   2.582   3.773 -0.5680  0.7341 -0.4739
 6675TIP3    H241441   6.488   2.714   3.811  0.4132 -0.1282  0.9659
 6676TIP3   OH241442   2.726   1.130  10.446  0.1696  0.0709  0.0111
 6676TIP3    H141443   2.705   1.042  10.414 -1.3299  0.0169  1.0855
 6676TIP3    H241444   2.660   1.148  10.513  2.4600  0.6716  2.1949
 6677TIP3   OH241445   5.613   5.781   4.258  0.4832  0.6511  0.1550
 6677TIP3    H141446   5.651   5.747   4.339  2.2124  0.7819 -0.5763
 6677TIP3    H241447   5.564   5.708   4.222  0.8495  0.1702  0.6209
 6678TIP3   OH241448   4.704   1.078   3.966  0.4523 -0.2502 -0.1472
 6678TIP3    H141449   4.756   1.045   3.892  1.6227 -2.3152  1.5529
 6678TIP3    H241450   4.730   1.170   3.974 -0.1234  0.1662 -2.6499
 6679TIP3   OH241451   2.434   4.616  15.389 -0.5061  0.2601  0.3253
 6679TIP3    H141452   2.445   4.596  15.297  0.1895  3.0272 -0.2404
 6679TIP3    H241453   2.345   4.589  15.410 -0.5051 -0.8001 -1.0273
 6680TIP3   OH241454   1.133   4.348   0.100 -0.3931  0.6538  0.1443
 6680TIP3    H141455   1.211   4.371   0.050 -0.3481 -1.2468 -0.7044
 6680TIP3    H241456   1.106   4.430   0.142  2.4914  1.1431  1.1025
 6681TIP3   OH241457   1.542   2.574   0.177 -0.1867  0.3387  0.2583
 6681TIP3    H141458   1.462   2.589   0.225  0.1014 -0.5862  1.0419
 6681TIP3    H241459   1.513   2.547   0.089 -0.7429 -0.6548  0.7399
 6682TIP3   OH241460   5.823   0.738  11.549 -0.2680 -0.9930 -0.3294
 6682TIP3    H141461   5.896   0.677  11.555 -0.3621 -1.0063  0.6815
 6682TIP3    H241462   5.747   0.682  11.533 -0.1455 -1.0262 -0.7948
 6683TIP3   OH241463   3.523   3.934  13.275 -0.1788  0.1956 -0.5022
 6683TIP3    H141464   3.610   3.908  13.304 -0.5130 -0.9521 -0.4980
 6683TIP3    H241465   3.535   4.021  13.237  0.7987  0.4350  0.3418
 6684TIP3   OH241466   6.383   2.025   2.115 -0.8639  0.0875  0.7180
 6684TIP3    H141467   6.424   1.941   2.097 -0.9653 -0.3588  2.4140
 6684TIP3    H241468   6.363   2.062   2.029  2.4034 -0.0049 -0.1662
 6685TIP3   OH241469   5.035   4.852  15.430  0.3277 -0.1329 -0.6721
 6685TIP3    H141470   5.102   4.917  15.450 -0.5763  0.4368  0.5453
 6685TIP3    H241471   5.083   4.782  15.385  1.9510 -0.2332  1.1212
 6686TIP3   OH241472   6.105   3.440  12.678 -0.2670 -0.2677 -0.3267
 6686TIP3    H141473   6.153   3.507  12.727 -0.7323  0.6175 -1.0644
 6686TIP3    H241474   6.068   3.487  12.603 -1.2919 -1.1805 -0.4068
 6687TIP3   OH241475   3.898   5.861   0.596 -0.3772  0.7634  1.0419
 6687TIP3    H141476   3.943   5.786   0.635  0.3226  0.8818  0.4636
 6687TIP3    H241477   3.904   5.846   0.502  0.7772  2.1159  0.8809
 6688TIP3   OH241478   2.533   4.499  16.313 -0.3427  0.5209  0.8098
 6688TIP3    H141479   2.583   4.567  16.267 -0.5606  0.2958  0.2387
 6688TIP3    H241480   2.442   4.514  16.287 -0.1739 -1.1503 -0.8126
 6689TIP3   OH241481   0.120   4.757  12.945 -0.7561 -0.1431  0.4908
 6689TIP3    H141482   0.092   4.834  12.995 -0.1223 -0.0449  0.6997
 6689TIP3    H241483   0.075   4.684  12.987  1.1666 -0.2963  2.3752
 6690TIP3   OH241484   1.080   3.959  10.573 -0.0295 -0.3317 -0.6710
 6690TIP3    H141485   1.030   4.019  10.628 -0.6801 -1.0305 -0.4857
 6690TIP3    H241486   1.162   3.946  10.621 -0.0357  0.1176 -0.5360
 6691TIP3   OH241487   3.037   6.757  15.319  0.2769  0.2747  0.1234
 6691TIP3    H141488   2.960   6.723  15.365 -0.7726  2.0917 -0.2551
 6691TIP3    H241489   3.065   6.831  15.373  2.2177 -0.8225  0.6538
 6692TIP3   OH241490   5.773   0.350   6.252  0.0599  0.3942 -0.4532
 6692TIP3    H141491   5.809   0.376   6.337  1.8484  0.5303 -1.2373
 6692TIP3    H241492   5.726   0.428   6.222  0.3310  0.7096 -0.0790
 6693TIP3   OH241493   4.953   6.071   1.309 -0.3230 -0.0235  0.2494
 6693TIP3    H141494   4.988   6.110   1.229 -2.7723  1.0620 -0.3404
 6693TIP3    H241495   4.927   6.146   1.362  0.4090 -0.7642  1.6632
 6694TIP3   OH241496   4.151   6.587   3.382 -0.4407 -0.5475 -0.9626
 6694TIP3    H141497   4.131   6.678   3.402  1.2253 -0.9298  2.9453
 6694TIP3    H241498   4.093   6.536   3.440  0.6249 -1.9032 -1.0509
 6695TIP3   OH241499   1.991   3.116   0.506 -0.1387 -0.3340  0.1807
 6695TIP3    H141500   2.081   3.146   0.515  0.0070 -0.6943 -0.0671
 6695TIP3    H241501   1.939   3.196   0.502  0.1103 -0.1290  0.9411
 6696TIP3   OH241502   3.347   4.116   1.955 -0.7497  0.3384 -0.4276
 6696TIP3    H141503   3.258   4.092   1.928 -0.4061 -1.1905 -0.2983
 6696TIP3    H241504   3.399   4.108   1.875  0.0463 -3.0122  0.3479
 6697TIP3   OH241505   6.697   1.946   1.546  0.2002  0.1480 -0.1442
 6697TIP3    H141506   6.732   2.013   1.486 -0.4574  0.0627 -0.6300
 6697TIP3    H241507   6.640   1.893   1.491  1.6479 -1.5669 -0.0262
 6698TIP3   OH241508   2.670   2.500  13.889  0.0890  0.2154 -0.5537
 6698TIP3    H141509   2.597   2.455  13.930  0.6606 -1.6767 -1.5622
 6698TIP3    H241510   2.744   2.440  13.899  0.7498  0.6831 -2.3932
 6699TIP3   OH241511   5.198   3.958  12.282 -0.2148 -0.1400 -0.0586
 6699TIP3    H141512   5.230   3.932  12.196 -0.4388  0.2486 -0.2607
 6699TIP3    H241513   5.104   3.941  12.278 -0.1376 -0.6864  0.3161
 6700TIP3   OH241514   5.015   5.950   0.981  0.2796  0.2008  0.2174
 6700TIP3    H141515   5.106   5.924   0.993  0.2564  0.3165  0.6516
 6700TIP3    H241516   5.009   5.978   0.889  0.3405 -1.1919 -0.2155
 6701TIP3   OH241517   3.659   1.093  17.006 -0.2584 -0.0304 -0.4022
 6701TIP3    H141518   3.707   1.013  17.026 -2.0759 -1.0685 -0.1029
 6701TIP3    H241519   3.718   1.164  17.032  0.9667 -1.2887  0.2669
 6702TIP3   OH241520   4.048   0.999   2.801 -0.8460 -0.4679  0.5309
 6702TIP3    H141521   4.047   1.023   2.894 -0.5853 -0.7510  0.6093
 6702TIP3    H241522   4.127   0.944   2.792 -0.0183  0.8234 -0.1806
 6703TIP3   OH241523   0.561   1.509   4.081  0.1499  0.2591  0.0597
 6703TIP3    H141524   0.622   1.533   4.011 -0.5349  0.4727 -0.4736
 6703TIP3    H241525   0.548   1.415   4.069  1.0397  0.0471  0.7122
 6704TIP3   OH241526   4.701   1.363   3.883  0.1574  0.7418  0.2042
 6704TIP3    H141527   4.637   1.296   3.860 -1.1627  2.1547 -0.3525
 6704TIP3    H241528   4.750   1.378   3.802  2.3387 -1.4759  1.0290
 6705TIP3   OH241529   3.449   0.777   4.715  0.0154  0.0079 -0.2370
 6705TIP3    H141530   3.507   0.735   4.652 -1.8980 -1.1445 -1.2474
 6705TIP3    H241531   3.506   0.840   4.760  2.6580 -2.7494  0.4750
 6706TIP3   OH241532   6.373   2.313  10.555 -0.8306  0.4430  0.1822
 6706TIP3    H141533   6.329   2.327  10.471 -1.5613  0.8553  0.6343
 6706TIP3    H241534   6.463   2.342  10.540 -0.1249 -2.3351 -1.3557
 6707TIP3   OH241535   1.102   1.531   0.739 -0.4945  0.1114  0.5046
 6707TIP3    H141536   1.036   1.470   0.770 -0.7929 -0.1250 -0.5787
 6707TIP3    H241537   1.123   1.586   0.815 -1.6890 -0.0224  0.9263
 6708TIP3   OH241538   1.364   4.299   1.803 -0.0139  0.2200 -0.2738
 6708TIP3    H141539   1.437   4.325   1.746 -0.0096  0.6792 -0.0556
 6708TIP3    H241540   1.391   4.327   1.890 -0.3059  0.0819 -0.1394
 6709TIP3   OH241541   5.999   6.009  13.924  0.6847 -0.1455  0.0216
 6709TIP3    H141542   6.048   5.991  14.005  1.0886  0.0627 -0.1751
 6709TIP3    H241543   5.954   5.927  13.904  1.7648 -0.6548 -0.3505
 6710TIP3   OH241544   2.892   4.702   3.600  0.5606  0.1813  0.3562
 6710TIP3    H141545   2.915   4.673   3.512 -2.0263  1.0646 -0.6516
 6710TIP3    H241546   2.858   4.623   3.643 -0.9332  0.4033 -0.4157
 6711TIP3   OH241547   1.884   4.877   1.534 -0.8724  0.0003 -0.0307
 6711TIP3    H141548   1.918   4.889   1.445  1.7508  0.5891  0.9957
 6711TIP3    H241549   1.901   4.785   1.554 -2.0853 -0.3082 -0.3535
 6712TIP3   OH241550   3.835   4.047   1.580  0.1750  0.5559  0.4071
 6712TIP3    H141551   3.818   4.017   1.491 -2.3134 -1.1898  1.4447
 6712TIP3    H241552   3.824   4.142   1.575 -1.2194  0.3407 -0.8557
 6713TIP3   OH241553   3.800   5.002   3.606 -0.1641 -0.3056 -0.2761
 6713TIP3    H141554   3.894   4.992   3.623 -0.1736 -0.4403 -0.2997
 6713TIP3    H241555   3.758   4.979   3.689 -0.2689 -2.1789 -0.8287
 6714TIP3   OH241556   1.777   1.957   3.236  0.0986  0.3531  0.5736
 6714TIP3    H141557   1.752   1.866   3.249  0.8755 -0.0236 -0.4618
 6714TIP3    H241558   1.867   1.962   3.269  0.9392  0.1388 -1.6091
 6715TIP3   OH241559   1.219   4.169  17.067  0.4047  0.7867  0.6077
 6715TIP3    H141560   1.138   4.143  17.024  1.5501 -0.2470 -0.9758
 6715TIP3    H241561   1.228   4.107  17.140  0.9472 -0.6047 -0.6173
 6716TIP3   OH241562   0.728   2.996   3.081  0.5670  0.6536 -0.0881
 6716TIP3    H141563   0.758   3.009   2.991 -1.4470  2.9328 -0.5030
 6716TIP3    H241564   0.745   3.080   3.124 -0.9554  0.4966  0.8816
 6717TIP3   OH241565   4.743   5.614  16.913  0.4993  0.1156 -0.5489
 6717TIP3    H141566   4.696   5.696  16.930 -0.2795 -0.4860  0.2385
 6717TIP3    H241567   4.675   5.551  16.891  0.9837 -0.6284  0.0675
 6718TIP3   OH241568   1.556   3.474  14.197  0.0892 -0.3457  0.7299
 6718TIP3    H141569   1.581   3.451  14.107 -1.8785 -0.5165  0.2150
 6718TIP3    H241570   1.498   3.403  14.225 -1.0658  0.8189  1.3371
 6719TIP3   OH241571   4.927   6.506   5.870 -0.4363  0.7683 -0.0013
 6719TIP3    H141572   5.011   6.461   5.864  0.6819  2.9057 -0.4844
 6719TIP3    H241573   4.884   6.466   5.946  1.7488  0.8847  1.3204
 6720TIP3   OH241574   4.417   5.781  12.010  0.1578  0.4668 -0.2581
 6720TIP3    H141575   4.395   5.797  12.102 -0.5146 -0.4418 -0.2558
 6720TIP3    H241576   4.419   5.868  11.970  0.9991  0.9132  0.7313
 6721TIP3   OH241577   1.447   5.588   4.103 -0.2098  0.2137  0.0006
 6721TIP3    H141578   1.532   5.554   4.077  0.0388  2.0325 -1.7211
 6721TIP3    H241579   1.466   5.669   4.150 -0.9152 -0.3531  1.2856
 6722TIP3   OH241580   5.849   0.412  11.579  0.0268 -0.5128  0.5082
 6722TIP3    H141581   5.839   0.325  11.616  0.1191  0.1640  2.1536
 6722TIP3    H241582   5.920   0.452  11.630 -0.4128  0.7263  0.1596
 6723TIP3   OH241583   2.288   2.142   5.466 -0.1388 -0.1534 -0.2300
 6723TIP3    H141584   2.270   2.085   5.541 -0.5510  2.9817  2.1124
 6723TIP3    H241585   2.372   2.111   5.433  0.4831 -1.0254  2.0532
 6724TIP3   OH241586   2.725   5.070  12.195  0.5746 -0.1097 -0.2602
 6724TIP3    H141587   2.735   5.020  12.114  0.0096 -0.8059  0.0949
 6724TIP3    H241588   2.791   5.034  12.254  0.3876 -0.2112 -0.1132
 6725TIP3   OH241589   2.582   1.317  13.745  0.6771  0.0784 -0.8429
 6725TIP3    H141590   2.489   1.328  13.729  0.5566  0.9806  0.3991
 6725TIP3    H241591   2.593   1.223  13.760  0.2893 -0.3122 -2.8572
 6726TIP3   OH241592   2.845   4.272  14.307  0.3466 -0.0107  0.1306
 6726TIP3    H141593   2.787   4.336  14.347 -0.9474 -0.9154 -0.2708
 6726TIP3    H241594   2.932   4.296  14.338 -0.3209  0.9101  1.3305
 6727TIP3   OH241595   4.858   0.477   0.573  0.7455 -0.2935 -0.6305
 6727TIP3    H141596   4.845   0.549   0.635  1.5934 -0.1524 -0.6070
 6727TIP3    H241597   4.855   0.519   0.487 -1.4379 -0.6414 -0.7385
 6728TIP3   OH241598   4.555   5.319  14.564  0.2014  0.0288 -0.1515
 6728TIP3    H141599   4.606   5.240  14.578  2.3935  1.4551  0.1501
 6728TIP3    H241600   4.538   5.321  14.470  1.1973 -0.1740 -0.3375
 6729TIP3   OH241601   2.779   0.055   5.367 -0.0550 -0.4476 -0.3078
 6729TIP3    H141602   2.794  -0.028   5.412  0.7763 -0.6675 -0.9652
 6729TIP3    H241603   2.726   0.032   5.290 -0.2119 -0.3020 -0.2430
 6730TIP3   OH241604   4.947   3.858  16.120  0.1614  0.3030 -0.4886
 6730TIP3    H141605   4.873   3.845  16.179  0.1724  0.4600 -0.4392
 6730TIP3    H241606   4.999   3.777  16.128  1.2252  1.1046  1.2275
 6731TIP3   OH241607   2.981   4.329   0.104 -0.0213 -0.2825 -1.0753
 6731TIP3    H141608   2.989   4.421   0.130  1.7258 -0.6335 -0.3329
 6731TIP3    H241609   2.902   4.299   0.149 -0.3910  0.7522 -1.0146
 6732TIP3   OH241610   2.130   0.286  12.895  0.4471 -0.3065 -0.0234
 6732TIP3    H141611   2.201   0.264  12.836  0.5025  0.5484 -0.2815
 6732TIP3    H241612   2.088   0.202  12.916  0.3558 -0.5954 -1.3608
 6733TIP3   OH241613   0.901   5.411  14.745 -0.0637  0.3910 -0.0561
 6733TIP3    H141614   0.963   5.465  14.696 -0.6125  0.2919 -0.8864
 6733TIP3    H241615   0.877   5.341  14.684  1.2031 -1.2439  1.2644
 6734TIP3   OH241616   0.108   6.130  14.983  0.9400  0.2402 -0.2349
 6734TIP3    H141617   0.081   6.152  14.894 -0.8597  3.3091  1.0011
 6734TIP3    H241618   0.034   6.081  15.019  0.7983  0.8022  0.2379
 6735TIP3   OH241619   6.394   1.570   2.252 -0.2766 -0.1851  0.2664
 6735TIP3    H141620   6.333   1.528   2.192 -1.7052 -0.3576  1.8000
 6735TIP3    H241621   6.455   1.501   2.277 -1.1499 -0.7341  0.8960
 6736TIP3   OH241622   3.696   6.673  16.122  0.3463  0.4997 -0.3427
 6736TIP3    H141623   3.711   6.658  16.215  0.6546  1.1456 -0.2787
 6736TIP3    H241624   3.781   6.702  16.089  0.5275 -0.8261 -1.0649
 6737TIP3   OH241625   4.821   0.514   2.719  0.7520  0.0994  0.3223
 6737TIP3    H141626   4.725   0.517   2.714  0.7960  3.1636  0.4275
 6737TIP3    H241627   4.846   0.448   2.654 -1.3709 -0.0156 -0.4354
 6738TIP3   OH241628   1.222   4.841  15.119  0.1982 -0.1307  0.2744
 6738TIP3    H141629   1.264   4.927  15.113 -0.4391  0.3019  1.7602
 6738TIP3    H241630   1.284   4.787  15.168  0.0773 -0.1760  0.3780
 6739TIP3   OH241631   3.415   4.002   3.166 -0.2215 -0.1820 -0.1587
 6739TIP3    H141632   3.403   3.986   3.259  0.1816 -0.7883 -0.2103
 6739TIP3    H241633   3.498   4.048   3.161  0.4304 -1.3581 -0.3343
 6740TIP3   OH241634   3.036   1.934  14.002  0.0561 -0.5473  0.4461
 6740TIP3    H141635   3.026   1.839  13.999  1.7798 -0.7831  1.4745
 6740TIP3    H241636   3.023   1.963  13.912  3.7948 -2.2250 -0.7130
 6741TIP3   OH241637   0.559   2.776  11.838  0.3691  0.1890  0.1201
 6741TIP3    H141638   0.502   2.746  11.909  1.0703 -0.0625  0.5803
 6741TIP3    H241639   0.499   2.802  11.769 -0.3288  0.4932  0.8279
 6742TIP3   OH241640   4.667   4.782   1.748  0.1528  0.1508 -0.2229
 6742TIP3    H141641   4.638   4.871   1.726  0.9719  1.1243  2.5169
 6742TIP3    H241642   4.598   4.747   1.803  1.9702  0.8450  2.5967
 6743TIP3   OH241643   4.310   1.446  17.206 -0.1125  0.1629 -0.1684
 6743TIP3    H141644   4.307   1.520  17.267 -0.2322  0.4534 -0.5242
 6743TIP3    H241645   4.404   1.434  17.189 -0.0799  0.1015  0.0428
 6744TIP3   OH241646   4.469   3.466  11.653 -0.5365  0.4826 -0.1299
 6744TIP3    H141647   4.426   3.423  11.579 -0.3743 -0.7654  0.5044
 6744TIP3    H241648   4.410   3.451  11.727 -0.2135  0.8872  0.2121
 6745TIP3   OH241649   5.821   3.509  12.885  0.2005 -0.0445  0.9197
 6745TIP3    H141650   5.784   3.591  12.916 -1.9722  0.1059 -1.9015
 6745TIP3    H241651   5.766   3.441  12.926 -0.2401  0.0357  0.4682
 6746TIP3   OH241652   6.320   4.860   4.716 -0.3198 -0.0778 -0.4324
 6746TIP3    H141653   6.249   4.871   4.654 -0.7841 -1.1423 -0.1012
 6746TIP3    H241654   6.277   4.850   4.801  0.2910  0.9845  0.0112
 6747TIP3   OH241655   1.115   5.126   5.499 -0.2595  0.2325  0.0699
 6747TIP3    H141656   1.189   5.174   5.536  0.4446 -0.9978  0.2960
 6747TIP3    H241657   1.132   5.035   5.522 -0.4200 -0.4211 -2.2460
 6748TIP3   OH241658   5.535   5.880   2.953 -0.2467 -0.4509 -0.1105
 6748TIP3    H141659   5.507   5.970   2.971  0.5120 -0.1637 -0.3130
 6748TIP3    H241660   5.550   5.879   2.858  2.7876  0.1225  0.3037
 6749TIP3   OH241661   1.746   3.673  14.305 -0.2782 -0.0710 -0.1789
 6749TIP3    H141662   1.687   3.713  14.369  0.4901 -1.0546  1.1894
 6749TIP3    H241663   1.711   3.585  14.291 -1.2273  0.6047 -2.1815
 6750TIP3   OH241664   3.452   1.058   5.927  0.5451 -0.2510 -0.1590
 6750TIP3    H141665   3.437   1.149   5.955 -1.6190 -1.0867  1.4625
 6750TIP3    H241666   3.456   1.063   5.832  0.0492  1.4941 -0.1037
 6751TIP3   OH241667   0.886   4.609   3.659 -0.4988  0.2628  0.4641
 6751TIP3    H141668   0.869   4.530   3.607  0.0272 -0.4313  1.3462
 6751TIP3    H241669   0.916   4.577   3.743 -3.8380  1.3139  2.1699
 6752TIP3   OH241670   3.922   1.180   6.151 -0.2404 -0.0102  0.1031
 6752TIP3    H141671   3.843   1.139   6.118  0.3190 -0.4493 -0.7135
 6752TIP3    H241672   3.942   1.133   6.232 -1.1685  0.5368  0.6535
 6753TIP3   OH241673   2.255   5.622  16.445  0.1215  0.5420 -0.3517
 6753TIP3    H141674   2.180   5.648  16.499 -0.8824 -0.6420 -1.1308
 6753TIP3    H241675   2.300   5.703  16.425 -0.2933  1.1494  1.0897
 6754TIP3   OH241676   1.478   0.803  13.434  0.5051 -0.8532  0.0209
 6754TIP3    H141677   1.568   0.777  13.414 -0.3286 -3.1187 -0.9624
 6754TIP3    H241678   1.425   0.750  13.375 -1.4490  1.0294  0.0457
 6755TIP3   OH241679   5.637   5.250   3.951 -0.2350  0.6941  0.4691
 6755TIP3    H141680   5.640   5.182   4.019  0.3974 -0.5328 -0.7707
 6755TIP3    H241681   5.727   5.282   3.945  0.0321 -0.2510 -0.8191
 6756TIP3   OH241682   0.551   6.415   1.765 -0.3182  0.1638 -0.2150
 6756TIP3    H141683   0.525   6.418   1.673  1.0342 -1.2996 -0.6748
 6756TIP3    H241684   0.470   6.396   1.812 -1.0045  0.8283 -1.1100
 6757TIP3   OH241685   5.137   2.772  10.637  0.7224  0.2444 -0.3752
 6757TIP3    H141686   5.069   2.704  10.648  0.1227  0.9318  0.2359
 6757TIP3    H241687   5.092   2.854  10.657  1.7136  0.7238 -0.0766
 6758TIP3   OH241688   5.582   3.783   2.164  0.0878 -0.2599 -0.4127
 6758TIP3    H141689   5.555   3.851   2.103  0.3063 -0.5139 -0.7983
 6758TIP3    H241690   5.613   3.831   2.241 -3.5226  0.0148  0.9772
 6759TIP3   OH241691   2.007   3.401  17.161  0.4303 -0.0833 -0.7506
 6759TIP3    H141692   2.052   3.317  17.164  0.7413  0.1345  2.7431
 6759TIP3    H241693   1.914   3.378  17.162  0.5139 -0.4011  0.3607
 6760TIP3   OH241694   0.336   0.878  12.708 -0.9013  0.3429  0.3365
 6760TIP3    H141695   0.252   0.840  12.730 -0.1448 -1.4152  0.2595
 6760TIP3    H241696   0.401   0.812  12.735  0.5204  2.2081  1.6080
 6761TIP3   OH241697   6.066   0.600  11.642 -0.1171  0.3096 -0.4609
 6761TIP3    H141698   6.158   0.581  11.623  0.2176 -0.4043  1.7472
 6761TIP3    H241699   6.060   0.601  11.737 -2.4738 -0.0352 -0.5528
 6762TIP3   OH241700   0.594   5.067  15.140  0.3125 -0.0173  0.2213
 6762TIP3    H141701   0.564   5.003  15.205 -2.0402  1.0540  0.2611
 6762TIP3    H241702   0.625   5.014  15.066 -2.2929 -1.2376 -0.0591
 6763TIP3   OH241703   5.036   0.469   5.347  0.2711 -0.3976  0.0174
 6763TIP3    H141704   5.021   0.390   5.296 -0.4689 -0.2790  0.0543
 6763TIP3    H241705   5.068   0.438   5.432 -1.9867 -0.7531  0.7646
 6764TIP3   OH241706   2.310   4.116   5.523 -0.1803  0.0061 -0.1363
 6764TIP3    H141707   2.220   4.098   5.497 -0.0440  0.7859 -1.1991
 6764TIP3    H241708   2.340   4.183   5.462  0.8577  0.3540  0.7243
 6765TIP3   OH241709   4.858   1.861   4.999 -0.5201 -0.5130 -0.3222
 6765TIP3    H141710   4.896   1.925   5.060  0.1726 -1.5312  0.3266
 6765TIP3    H241711   4.775   1.835   5.039 -1.0539  0.3617 -0.8457
 6766TIP3   OH241712   2.807   1.624  13.702 -0.0804  0.2591  0.0116
 6766TIP3    H141713   2.724   1.663  13.726 -1.2103 -2.6727  1.1567
 6766TIP3    H241714   2.784   1.537  13.669  2.4407 -0.1799 -0.7265
 6767TIP3   OH241715   4.261   2.727  14.792  0.9294 -0.2778 -0.0011
 6767TIP3    H141716   4.166   2.739  14.782  0.9300  0.1997  0.5280
 6767TIP3    H241717   4.274   2.632  14.784  0.6080 -0.1955 -1.6746
 6768TIP3   OH241718   0.917   1.942   3.209  0.7771 -0.2499  0.0298
 6768TIP3    H141719   0.990   1.933   3.147  0.1756 -0.2570 -0.6886
 6768TIP3    H241720   0.849   1.884   3.175  0.1905  0.2546  0.3293
 6769TIP3   OH241721   3.716   5.557  13.382  0.1899 -0.0984  0.0061
 6769TIP3    H141722   3.645   5.530  13.325 -1.3617  1.9742  0.8612
 6769TIP3    H241723   3.679   5.551  13.470  1.5879 -0.4774  0.5730
 6770TIP3   OH241724   1.668   3.159  16.816 -0.0796  0.1948  0.2012
 6770TIP3    H141725   1.619   3.181  16.737 -1.1191 -1.2539  0.4142
 6770TIP3    H241726   1.620   3.203  16.887  0.3095  0.7304  0.1297
 6771TIP3   OH241727   3.336   6.698  10.421  0.1114  0.1273 -0.0451
 6771TIP3    H141728   3.284   6.737  10.491  0.8892 -2.5209  2.0729
 6771TIP3    H241729   3.284   6.624  10.390  0.7566 -0.0240 -0.7795
 6772TIP3   OH241730   3.782   1.560   1.482  0.6285 -0.1350 -0.2462
 6772TIP3    H141731   3.793   1.546   1.576 -1.5787 -1.6761 -0.1870
 6772TIP3    H241732   3.806   1.652   1.468  1.4660 -0.0313  1.7171
 6773TIP3   OH241733   4.451   1.084   4.494 -0.0103 -0.0708  0.2677
 6773TIP3    H141734   4.501   1.153   4.450 -0.3453 -0.8870 -1.4158
 6773TIP3    H241735   4.403   1.130   4.563  0.2204  1.2853 -0.4511
 6774TIP3   OH241736   2.820   6.458   0.092  0.4766  1.0012 -0.5394
 6774TIP3    H141737   2.820   6.435   0.185  0.9509  0.1570 -0.7388
 6774TIP3    H241738   2.901   6.420   0.059 -0.3935  0.0263 -1.6005
 6775TIP3   OH241739   0.214   1.338  14.873  0.3084  0.2865  0.0133
 6775TIP3    H141740   0.178   1.423  14.847 -0.6042 -0.6813 -2.0176
 6775TIP3    H241741   0.231   1.293  14.790  1.5735 -1.1925  1.0541
 6776TIP3   OH241742   4.298   0.662  16.395  0.0150 -0.5148  0.1352
 6776TIP3    H141743   4.391   0.664  16.376  0.1394 -0.9331  0.6871
 6776TIP3    H241744   4.260   0.729  16.338  0.5934 -0.6181 -0.3727
 6777TIP3   OH241745   6.069   0.417  12.840 -0.3542  0.3500 -0.2936
 6777TIP3    H141746   6.125   0.383  12.909 -0.0497 -1.6898 -1.5301
 6777TIP3    H241747   5.995   0.357  12.837 -1.0697  1.2366 -0.7991
 6778TIP3   OH241748   0.767   1.139  13.707 -0.2753 -0.1538 -0.1753
 6778TIP3    H141749   0.786   1.049  13.681 -1.2623 -0.7300  1.0295
 6778TIP3    H241750   0.673   1.150  13.693 -0.8111 -0.4226  2.8315
 6779TIP3   OH241751   1.935   1.438  12.213  0.5584 -0.5177 -0.3181
 6779TIP3    H141752   1.939   1.428  12.308  0.2651  0.7226 -0.1580
 6779TIP3    H241753   1.849   1.403  12.189  0.7344 -1.0611 -0.1590
 6780TIP3   OH241754   4.399   4.659   2.184  0.3250  0.3875 -0.0659
 6780TIP3    H141755   4.325   4.684   2.238 -0.7962 -1.0500 -0.9265
 6780TIP3    H241756   4.476   4.680   2.238 -0.7650 -1.7996  2.4318
 6781TIP3   OH241757   2.211   5.289  11.553 -0.7076  0.4364  0.0328
 6781TIP3    H141758   2.193   5.383  11.556 -0.1857  0.5036  1.7486
 6781TIP3    H241759   2.124   5.248  11.544 -0.7972  1.1138 -2.7758
 6782TIP3   OH241760   0.314   5.386  12.954  0.5505  0.9400  0.1059
 6782TIP3    H141761   0.392   5.434  12.926  1.4966 -0.1517  0.8628
 6782TIP3    H241762   0.248   5.410  12.889  1.6429  1.4955 -0.8300
 6783TIP3   OH241763   6.259   2.283   3.086 -0.1023 -0.0376 -0.1026
 6783TIP3    H141764   6.163   2.284   3.088 -0.0825  0.2143  0.7738
 6783TIP3    H241765   6.281   2.264   2.994 -0.9981 -1.2172 -0.0879
 6784TIP3   OH241766   0.062   2.764  15.200  0.0321  0.4935 -0.4649
 6784TIP3    H141767   0.092   2.842  15.247  0.3107 -0.5527  1.1399
 6784TIP3    H241768   0.140   2.710  15.190 -0.2479  0.2118 -1.1542
 6785TIP3   OH241769   2.322   5.664   6.753 -0.0988 -0.3273 -0.7244
 6785TIP3    H141770   2.404   5.710   6.737  0.9157 -1.4148  1.1821
 6785TIP3    H241771   2.334   5.577   6.715 -0.3633 -0.4930 -0.4375
 6786TIP3   OH241772   6.395   2.090  13.649 -0.2524 -0.1303  0.3230
 6786TIP3    H141773   6.370   2.173  13.689  0.2378 -0.0577  0.4803
 6786TIP3    H241774   6.366   2.024  13.712  1.0588  0.0099  1.0997
 6787TIP3   OH241775   2.475   3.907  12.136  0.1851 -0.0002 -0.2577
 6787TIP3    H141776   2.469   3.923  12.230 -2.6942  0.0248 -0.4141
 6787TIP3    H241777   2.454   3.814  12.126 -0.5446  0.2375 -0.9724
 6788TIP3   OH241778   0.351   3.616   5.579 -0.2037 -0.2271 -0.3625
 6788TIP3    H141779   0.387   3.699   5.550 -0.7005 -0.6122 -2.1077
 6788TIP3    H241780   0.268   3.607   5.532 -0.7936 -1.0868  0.8066
 6789TIP3   OH241781   5.568   5.656   0.201 -0.1561  0.4685 -0.0546
 6789TIP3    H141782   5.516   5.699   0.133 -1.8097 -2.2545 -0.5874
 6789TIP3    H241783   5.508   5.644   0.274  0.4870 -0.1934  0.3799
 6790TIP3   OH241784   3.853   1.546   2.048 -1.1228  0.1582  0.0041
 6790TIP3    H141785   3.863   1.537   2.142  1.0321 -1.0183 -0.3016
 6790TIP3    H241786   3.762   1.519   2.031 -1.4639  0.1878  1.7024
 6791TIP3   OH241787   0.159   6.734   6.830  0.1148  0.2708  0.6764
 6791TIP3    H141788   0.159   6.829   6.845 -0.5913 -0.0601  2.9671
 6791TIP3    H241789   0.244   6.716   6.791  0.0129  1.9288 -0.3688
 6792TIP3   OH241790   1.234   4.630   3.153  1.0561 -0.5336  0.6745
 6792TIP3    H141791   1.267   4.576   3.081 -0.6076 -0.8660  0.1418
 6792TIP3    H241792   1.224   4.717   3.115  0.9110 -0.5343  0.7100
 6793TIP3   OH241793   0.732   0.607   1.030  0.5405 -0.6895 -0.1802
 6793TIP3    H141794   0.646   0.566   1.024 -0.6327  1.8597 -1.3203
 6793TIP3    H241795   0.729   0.680   0.969  2.9219  0.5043  1.0347
 6794TIP3   OH241796   6.669   1.759   0.420 -0.1689  0.3388  0.1471
 6794TIP3    H141797   6.717   1.724   0.345  0.8845  0.0619  0.9388
 6794TIP3    H241798   6.665   1.854   0.404 -0.2585  0.2384 -0.4283
 6795TIP3   OH241799   3.735   2.214  16.661 -0.3145 -0.3505 -0.2808
 6795TIP3    H141800   3.779   2.160  16.595  0.4043  0.8650 -0.8137
 6795TIP3    H241801   3.798   2.284  16.681 -0.8497 -0.2356  1.0965
 6796TIP3   OH241802   3.992   5.470  16.935 -0.1114  0.9555  0.6089
 6796TIP3    H141803   4.065   5.442  16.990  0.6790 -0.2191 -0.9848
 6796TIP3    H241804   3.934   5.395  16.930 -0.5201  1.2804  0.4195
 6797TIP3   OH241805   2.042   6.647   1.257 -0.1716 -0.0822 -0.1244
 6797TIP3    H141806   2.005   6.582   1.198  1.0879  1.2411 -2.4155
 6797TIP3    H241807   2.136   6.644   1.240  0.1157  0.9244  1.2212
 6798TIP3   OH241808   4.141   1.124   0.701 -0.3770 -0.4948 -0.0550
 6798TIP3    H141809   4.223   1.076   0.709 -0.1229 -0.0707 -0.0963
 6798TIP3    H241810   4.073   1.059   0.719  0.0254 -0.4503  1.7229
 6799TIP3   OH241811   6.153   0.205   1.426  0.4139  0.0053 -0.3316
 6799TIP3    H141812   6.181   0.120   1.458  0.0483 -0.1867 -0.5227
 6799TIP3    H241813   6.233   0.248   1.398  0.6495 -0.1141  0.1482
 6800TIP3   OH241814   1.800   1.769   4.430 -0.0533  0.0439 -0.0490
 6800TIP3    H141815   1.731   1.763   4.364  0.2821 -0.9584 -0.3074
 6800TIP3    H241816   1.849   1.688   4.422  2.2897  1.5316 -1.1252
 6801TIP3   OH241817   2.525   2.628   2.102  0.7167  0.0903  0.4765
 6801TIP3    H141818   2.540   2.712   2.144 -0.8505  0.2948  0.6555
 6801TIP3    H241819   2.603   2.576   2.123  0.9254  0.9225  1.8002
 6802TIP3   OH241820   4.673   5.998   2.795 -0.8126  0.6242 -0.3780
 6802TIP3    H141821   4.583   5.990   2.763 -1.9700 -2.3434  3.2542
 6802TIP3    H241822   4.664   6.042   2.879  1.0909  0.0757  0.1211
 6803TIP3   OH241823   1.216   6.192  13.628 -1.1108  0.3984  0.2468
 6803TIP3    H141824   1.309   6.192  13.652 -1.6924  0.1171  2.6420
 6803TIP3    H241825   1.182   6.275  13.662 -1.7073  0.6125 -0.8380
 6804TIP3   OH241826   3.393   3.026  16.203  0.4833  0.5243  0.3390
 6804TIP3    H141827   3.449   3.099  16.230  1.3240  0.2197 -0.5173
 6804TIP3    H241828   3.442   2.948  16.229  0.2103  0.2575  0.0561
 6805TIP3   OH241829   1.552   2.024  12.801 -0.3146  0.4405  0.4136
 6805TIP3    H141830   1.542   1.932  12.776  1.2709 -0.0762  1.5937
 6805TIP3    H241831   1.463   2.054  12.820 -0.5613 -1.6827  2.8091
 6806TIP3   OH241832   3.862   1.072   2.589 -0.2123  0.5881  0.5074
 6806TIP3    H141833   3.926   1.056   2.658 -0.1663  0.7686  0.5061
 6806TIP3    H241834   3.882   1.007   2.522  0.4500  1.1367  0.1682
 6807TIP3   OH241835   4.237   5.137   2.662 -0.0346 -0.2129 -0.0925
 6807TIP3    H141836   4.149   5.099   2.665 -0.2007 -0.2093 -3.3908
 6807TIP3    H241837   4.233   5.210   2.724 -1.9348 -1.0231  0.7875
 6808TIP3   OH241838   5.843   1.101   2.017  0.1499 -0.1861 -0.2681
 6808TIP3    H141839   5.789   1.180   2.020  0.8476  0.3534 -1.4757
 6808TIP3    H241840   5.786   1.032   2.049 -0.6221  0.7261  0.3601
 6809TIP3   OH241841   4.938   1.953  16.967  0.0864 -0.0562 -0.1432
 6809TIP3    H141842   4.911   1.938  17.058  0.9346  0.8867  0.2666
 6809TIP3    H241843   4.892   2.032  16.941 -0.8221 -0.7996 -0.8274
 6810TIP3   OH241844   3.647   3.884  12.391  0.1768  0.1675 -0.2645
 6810TIP3    H141845   3.687   3.953  12.444  1.2367  0.3658 -1.2932
 6810TIP3    H241846   3.619   3.929  12.311  2.9073 -0.9627 -1.9167
 6811TIP3   OH241847   2.054   4.682   4.134 -0.4994 -0.2418  0.0629
 6811TIP3    H141848   2.097   4.649   4.213  0.8727  0.7836 -0.2575
 6811TIP3    H241849   2.061   4.777   4.140 -1.3020 -0.1209 -0.8006
 6812TIP3   OH241850   0.229   4.312  11.474 -0.1891  0.7420  0.4350
 6812TIP3    H141851   0.133   4.309  11.471 -0.2267 -0.2560  2.2603
 6812TIP3    H241852   0.250   4.404  11.458 -1.3975  0.8189 -0.8708
 6813TIP3   OH241853   5.412   1.713  11.718  0.2273  0.0484 -0.1919
 6813TIP3    H141854   5.422   1.662  11.799  0.9989  1.2395  0.4845
 6813TIP3    H241855   5.407   1.804  11.748  0.2260  0.4781 -1.4765
 6814TIP3   OH241856   0.482   2.597   5.114  0.5576 -0.4161  0.2675
 6814TIP3    H141857   0.521   2.675   5.154 -1.0211  0.6637 -0.2904
 6814TIP3    H241858   0.482   2.532   5.185  0.0530  0.7047  1.3118
 6815TIP3   OH241859   4.842   1.359  12.581  0.2162 -0.4241  0.7491
 6815TIP3    H141860   4.837   1.264  12.567 -0.7347 -0.4691  1.3890
 6815TIP3    H241861   4.793   1.397  12.508 -1.3089 -0.5117  1.7197
 6816TIP3   OH241862   2.894   1.161  11.461  0.2376  0.0694 -0.2381
 6816TIP3    H141863   2.835   1.103  11.413 -0.1029  0.5682 -0.4185
 6816TIP3    H241864   2.931   1.219  11.394  0.3733  0.2386 -0.0174
 6817TIP3   OH241865   4.688   6.309  10.972 -0.7541  0.4015 -0.2776
 6817TIP3    H141866   4.766   6.321  11.026 -3.3448  0.5414  3.5435
 6817TIP3    H241867   4.677   6.393  10.927  0.9644  0.5636 -0.4408
 6818TIP3   OH241868   1.482   4.781   5.327 -0.5697 -0.3124 -0.0350
 6818TIP3    H141869   1.434   4.757   5.406 -2.3757  1.9760 -0.4052
 6818TIP3    H241870   1.554   4.836   5.358  0.5932 -1.9666  0.2919
 6819TIP3   OH241871   2.879   2.497  12.294 -0.3026 -0.1422  0.5738
 6819TIP3    H141872   2.869   2.592  12.293 -1.6793 -0.2650  1.4638
 6819TIP3    H241873   2.879   2.472  12.201  2.4858  0.9373  0.2424
 6820TIP3   OH241874   5.054   6.599  14.042  0.4842  0.8163  0.3126
 6820TIP3    H141875   4.979   6.563  13.995 -1.7814  1.3131  3.3877
 6820TIP3    H241876   5.090   6.526  14.092  0.0013  1.2895  1.3774
 6821TIP3   OH241877   4.897   5.292  11.937 -0.3562  0.6625 -0.5718
 6821TIP3    H141878   4.805   5.267  11.938  0.2025 -1.4332  0.0838
 6821TIP3    H241879   4.908   5.348  12.014 -0.4076 -1.6909  1.1990
 6822TIP3   OH241880   0.462   4.552   1.931 -0.3999 -0.2773  0.2619
 6822TIP3    H141881   0.489   4.622   1.990 -1.4963  1.1300 -0.8627
 6822TIP3    H241882   0.397   4.502   1.980  0.5545 -0.6705  1.1516
 6823TIP3   OH241883   6.100   3.292  12.225 -0.2610 -0.5627  0.4009
 6823TIP3    H141884   6.069   3.378  12.253  0.3702 -0.1922 -0.0273
 6823TIP3    H241885   6.121   3.303  12.133  1.7231 -0.6250  0.8150
 6824TIP3   OH241886   4.596   6.143  13.461  0.5250 -0.9456  0.2725
 6824TIP3    H141887   4.559   6.227  13.490  2.3917 -0.8976  2.6364
 6824TIP3    H241888   4.545   6.121  13.383 -1.2813  1.4423  0.7001
 6825TIP3   OH241889   6.702   5.629  11.450 -0.3276  0.2928 -0.1299
 6825TIP3    H141890   6.734   5.563  11.390 -0.5538  0.4512 -0.4257
 6825TIP3    H241891   6.674   5.702  11.394  2.5785  1.8169  0.3384
 6826TIP3   OH241892   2.690   3.708  14.594  0.2253  0.2164 -0.0842
 6826TIP3    H141893   2.634   3.634  14.618 -1.0782  2.1449  3.1049
 6826TIP3    H241894   2.754   3.714  14.665  0.3912  2.0522 -0.3682
 6827TIP3   OH241895   3.570   3.095   3.928  0.0072 -0.3568 -0.2775
 6827TIP3    H141896   3.604   3.015   3.967  0.1614 -0.2779 -0.2516
 6827TIP3    H241897   3.608   3.097   3.840  0.3818 -0.0679 -0.1116
 6828TIP3   OH241898   3.233   5.746   0.382  0.1915 -0.0552  0.3283
 6828TIP3    H141899   3.192   5.692   0.449 -0.1182 -0.8848 -0.5233
 6828TIP3    H241900   3.227   5.835   0.416  1.5492 -0.6397  2.1752
 6829TIP3   OH241901   3.807   2.711  12.912 -0.1908  0.3257  0.5639
 6829TIP3    H141902   3.851   2.784  12.956  2.7077  0.2132 -1.9428
 6829TIP3    H241903   3.721   2.746  12.889  0.4074  2.3068  1.2125
 6830TIP3   OH241904   0.472   2.327   1.272 -0.0603  0.2831  0.1970
 6830TIP3    H141905   0.521   2.405   1.246  2.0304 -0.7724  0.8377
 6830TIP3    H241906   0.512   2.302   1.356  0.0292 -2.0965 -0.5444
 6831TIP3   OH241907   2.191   3.175  16.351 -0.2550  0.3474  0.1291
 6831TIP3    H141908   2.097   3.160  16.351 -0.2350 -0.1201 -2.4638
 6831TIP3    H241909   2.216   3.179  16.443 -2.7461  0.0959  0.8237
 6832TIP3   OH241910   2.042   4.386  13.646 -0.3770  0.0864  0.4484
 6832TIP3    H141911   2.067   4.474  13.617  0.8175 -1.1356 -2.4181
 6832TIP3    H241912   2.122   4.349  13.682 -0.4169 -0.4989 -0.0635
 6833TIP3   OH241913   3.633   5.853   0.730  0.0205 -0.2873 -0.7095
 6833TIP3    H141914   3.581   5.811   0.661  2.3147 -2.6913 -1.0390
 6833TIP3    H241915   3.723   5.849   0.698  0.7853  1.1638  1.1680
 6834TIP3   OH241916   0.214   2.631   2.637 -0.1959  0.2098  0.2055
 6834TIP3    H141917   0.245   2.548   2.674 -0.1726  0.1723  0.1017
 6834TIP3    H241918   0.267   2.644   2.559 -1.1015 -0.3419 -0.5145
 6835TIP3   OH241919   0.177   6.519  12.456 -0.3942  0.0637 -0.1720
 6835TIP3    H141920   0.192   6.496  12.548  0.0960  1.5638  0.1318
 6835TIP3    H241921   0.201   6.611  12.450 -1.5319  0.2775 -1.5609
 6836TIP3   OH241922   6.361   1.073   4.929 -0.1554 -0.1336 -0.0527
 6836TIP3    H141923   6.345   0.990   4.974 -1.1142  0.4172  0.6372
 6836TIP3    H241924   6.325   1.059   4.841  1.0558 -0.9620 -0.4244
 6837TIP3   OH241925   6.539   2.614   1.165 -0.1701 -0.4324 -0.5076
 6837TIP3    H141926   6.581   2.534   1.134  1.4243 -0.2323  1.0872
 6837TIP3    H241927   6.581   2.684   1.115  0.5065 -0.3409  0.1874
 6838TIP3   OH241928   3.598   0.444  12.148 -0.2815 -0.1832  0.4555
 6838TIP3    H141929   3.616   0.468  12.239 -0.4495 -3.8997  1.5585
 6838TIP3    H241930   3.503   0.439  12.142 -0.2958  0.6173 -0.1009
 6839TIP3   OH241931   6.620   0.368   1.764 -0.6725  0.2199  0.2803
 6839TIP3    H141932   6.552   0.300   1.755 -0.0968 -0.3567  0.2372
 6839TIP3    H241933   6.686   0.328   1.821 -0.3225  0.7456  0.2467
 6840TIP3   OH241934   6.126   5.317   3.411  0.5568  0.0415 -0.2886
 6840TIP3    H141935   6.034   5.338   3.426  0.7375 -0.1294  1.1193
 6840TIP3    H241936   6.127   5.274   3.326 -0.7672 -0.5478 -0.0250
 6841TIP3   OH241937   2.096   1.927   5.347 -0.2879 -0.0602 -0.2237
 6841TIP3    H141938   2.166   1.881   5.392 -0.3777  0.4675  0.4625
 6841TIP3    H241939   2.068   1.995   5.408 -0.9225  0.1822 -0.7692
 6842TIP3   OH241940   3.870   1.096  11.928 -0.8773  0.7600 -0.0177
 6842TIP3    H141941   3.911   1.057  12.005  0.3524  0.7527 -0.6616
 6842TIP3    H241942   3.819   1.169  11.963  0.4085  1.3244  0.7210
 6843TIP3   OH241943   2.905   0.760  11.787  0.1002  0.3005  0.4634
 6843TIP3    H141944   2.943   0.845  11.763  0.8053 -0.3581 -0.7560
 6843TIP3    H241945   2.815   0.763  11.754  0.8717 -0.3640 -1.7814
 6844TIP3   OH241946   5.734   5.484  13.852 -0.3627  0.1632  0.4462
 6844TIP3    H141947   5.703   5.463  13.764 -0.2328 -0.9115  0.6476
 6844TIP3    H241948   5.707   5.575  13.866 -0.7058  0.2261 -0.5571
 6845TIP3   OH241949   3.607   2.752  14.722 -0.1424 -0.0162  0.0213
 6845TIP3    H141950   3.512   2.748  14.716 -0.1221 -0.4812  0.0025
 6845TIP3    H241951   3.632   2.671  14.766  0.0892  1.0301  1.8839
 6846TIP3   OH241952   4.707   5.381  15.772  0.1351  1.0019 -0.2910
 6846TIP3    H141953   4.622   5.362  15.732  0.0337 -1.7994  1.1499
 6846TIP3    H241954   4.690   5.378  15.866  0.7770  5.5786  0.0726
 6847TIP3   OH241955   0.392   0.166  16.727  0.0005  0.2869  0.7938
 6847TIP3    H141956   0.474   0.207  16.755  0.1778  0.4302  0.0826
 6847TIP3    H241957   0.419   0.102  16.660 -0.7353  2.3411 -1.5294
 6848TIP3   OH241958   0.282   4.179   5.773 -0.6513  0.1123 -0.3994
 6848TIP3    H141959   0.262   4.143   5.686  0.1508  0.6741 -0.8210
 6848TIP3    H241960   0.199   4.175   5.820 -0.7076 -1.8212 -0.5987
 6849TIP3   OH241961   1.334   5.915  17.169  0.1402 -0.3072 -0.1083
 6849TIP3    H141962   1.271   5.919  17.240  1.2943 -2.2360  1.0478
 6849TIP3    H241963   1.402   5.978  17.193 -0.9307  1.2257 -0.9972
 6850TIP3   OH241964   4.975   1.322  11.870 -0.5636 -0.0194  0.3196
 6850TIP3    H141965   5.069   1.328  11.883 -0.1951  1.9698 -2.7595
 6850TIP3    H241966   4.940   1.303  11.957  2.3611  3.0540  2.2971
 6851TIP3   OH241967   3.356   2.440  15.838 -0.1995 -0.0295  1.0985
 6851TIP3    H141968   3.337   2.381  15.765 -0.0084 -1.0701  1.8913
 6851TIP3    H241969   3.395   2.517  15.796  0.4584 -0.8608  0.1571
 6852TIP3   OH241970   5.024   3.664   2.988  0.4841 -0.2984  0.0946
 6852TIP3    H141971   5.038   3.740   3.044  2.1355 -0.9623  0.6200
 6852TIP3    H241972   5.060   3.690   2.903 -1.3364  0.4373 -0.4697
 6853TIP3   OH241973   0.407   0.739   3.312  0.3266  0.2125 -0.4560
 6853TIP3    H141974   0.462   0.779   3.379  0.5763  0.4000 -0.7694
 6853TIP3    H241975   0.407   0.646   3.333 -0.6729  0.4360  0.5752
 6854TIP3   OH241976   0.879   6.503   4.974 -0.3825  0.2243  0.0801
 6854TIP3    H141977   0.842   6.505   5.063  1.0417 -1.4555  0.7384
 6854TIP3    H241978   0.956   6.560   4.980  0.1398 -0.4916  0.1140
 6855TIP3   OH241979   5.992   0.363   6.690 -1.0701  0.4744  0.6706
 6855TIP3    H141980   5.904   0.350   6.727 -0.5913  0.8175  1.9529
 6855TIP3    H241981   6.029   0.434   6.742 -0.0415  0.3494  0.1089
 6856TIP3   OH241982   4.952   6.610   3.204  0.2161 -0.2046  0.5085
 6856TIP3    H141983   5.011   6.552   3.156 -0.6446 -0.0697 -0.7367
 6856TIP3    H241984   5.006   6.648   3.273  1.1782 -1.2902  0.3682
 6857TIP3   OH241985   3.214   2.266   5.544  0.0955  0.2087 -0.7372
 6857TIP3    H141986   3.130   2.311   5.530  0.6279  1.1879 -0.8324
 6857TIP3    H241987   3.244   2.244   5.456  0.4309  0.7829 -0.7699
 6858TIP3   OH241988   0.738   6.550  11.376  0.2989 -0.5797 -0.5834
 6858TIP3    H141989   0.676   6.477  11.383 -0.0208 -0.2078  0.5778
 6858TIP3    H241990   0.772   6.544  11.287 -3.0761  0.5879 -2.0214
 6859TIP3   OH241991   4.967   1.278  13.067 -0.0525  0.3662 -0.3306
 6859TIP3    H141992   4.958   1.207  13.003  2.5457  0.5880 -1.0356
 6859TIP3    H241993   5.050   1.259  13.112 -0.8064  1.3625  1.5150
 6860TIP3   OH241994   5.386   3.777  11.229  0.0029  0.0107  0.3782
 6860TIP3    H141995   5.330   3.830  11.172  2.3447  3.7697  1.4310
 6860TIP3    H241996   5.354   3.795  11.317  0.3790 -0.8741  0.6931
 6861TIP3   OH241997   5.200   4.821   5.430 -0.5723  0.0311  0.1339
 6861TIP3    H141998   5.165   4.747   5.380  0.8772 -1.2896  1.0022
 6861TIP3    H241999   5.177   4.898   5.378 -1.5298 -1.0820 -1.1376
 6862TIP3   OH242000   2.214   6.034   2.617 -0.2957 -0.5768 -0.5926
 6862TIP3    H142001   2.274   6.108   2.609  0.1283 -0.9006 -0.4044
 6862TIP3    H242002   2.127   6.071   2.598 -0.1612  0.0857  0.0926
 6863TIP3   OH242003   3.955   3.663  11.337 -0.3815  0.5338  0.0891
 6863TIP3    H142004   4.004   3.677  11.418  0.7660 -1.3125 -0.2521
 6863TIP3    H242005   3.982   3.734  11.279  1.3777 -0.0669  0.1561
 6864TIP3   OH242006   3.347   0.776  16.657 -0.0591  0.1804 -0.2344
 6864TIP3    H142007   3.256   0.785  16.685 -0.7404 -2.4165 -1.4952
 6864TIP3    H242008   3.346   0.793  16.563  0.8506  0.6657 -0.1656
 6865TIP3   OH242009   1.202   5.926   2.670 -0.0248  0.0141 -0.6611
 6865TIP3    H142010   1.160   6.004   2.634  0.9424  0.7289 -0.2454
 6865TIP3    H242011   1.295   5.946   2.669  0.1501 -0.6762  0.5005
 6866TIP3   OH242012   0.657   4.374   1.877  0.5170 -0.2584 -0.0296
 6866TIP3    H142013   0.588   4.432   1.909  0.2073 -0.9133  0.4901
 6866TIP3    H242014   0.622   4.286   1.890  1.8131 -0.6159  1.0699
 6867TIP3   OH242015   2.987   2.072   5.480 -0.0041 -0.7478 -0.1837
 6867TIP3    H142016   2.937   2.144   5.517 -0.1250  0.0060 -1.7438
 6867TIP3    H242017   3.000   2.011   5.552  0.0628  0.8248  1.1432
 6868TIP3   OH242018   4.343   6.127  12.821 -0.1714 -0.4097 -0.1109
 6868TIP3    H142019   4.399   6.202  12.841 -1.0400  0.5084 -1.0850
 6868TIP3    H242020   4.319   6.091  12.906  0.5561  0.1914  0.3490
 6869TIP3   OH242021   6.232   1.493  11.789  0.1345 -0.4465  0.1886
 6869TIP3    H142022   6.252   1.494  11.695 -1.1991 -1.8721 -0.1213
 6869TIP3    H242023   6.318   1.501  11.831  0.5800  2.2628 -1.1262
 6870TIP3   OH242024   5.643   0.724  15.597  0.2274  0.0874  0.2859
 6870TIP3    H142025   5.584   0.799  15.610 -0.4226 -0.0793 -1.5165
 6870TIP3    H242026   5.650   0.683  15.683 -1.8637  0.4328  0.6382
 6871TIP3   OH242027   5.972   6.723   4.422 -0.2193 -0.1113 -0.6889
 6871TIP3    H142028   6.002   6.637   4.392 -3.3192 -2.2785  2.0057
 6871TIP3    H242029   5.999   6.728   4.514 -0.1093  1.7942 -0.8002
 6872TIP3   OH242030   0.952   4.120  13.328 -0.3095 -0.0214 -0.0605
 6872TIP3    H142031   1.044   4.118  13.305 -0.6666 -0.6661 -1.4875
 6872TIP3    H242032   0.921   4.031  13.311 -1.8419  0.9036 -2.4163
 6873TIP3   OH242033   1.762   0.463  12.893 -0.8204  0.4853  0.6715
 6873TIP3    H142034   1.726   0.446  12.806 -1.3474  0.2086  0.9401
 6873TIP3    H242035   1.810   0.545  12.884 -0.2603  0.0860 -0.0597
 6874TIP3   OH242036   4.704   2.530   2.948 -0.7070  0.2568 -1.0606
 6874TIP3    H142037   4.680   2.450   2.995  0.2936  0.4372 -0.2123
 6874TIP3    H242038   4.687   2.601   3.011  1.5983  0.4230 -0.5618
 6875TIP3   OH242039   1.422   3.822  14.776  0.3183 -0.4819 -0.1315
 6875TIP3    H142040   1.364   3.767  14.722  0.2757 -0.0349 -0.5429
 6875TIP3    H242041   1.384   3.817  14.864 -0.5837  0.1272 -0.4796
 6876TIP3   OH242042   3.080   3.163   4.204  0.0037 -0.0324 -0.3984
 6876TIP3    H142043   3.093   3.087   4.147 -0.8201  0.3670 -1.1394
 6876TIP3    H242044   3.032   3.129   4.279  2.4983 -0.8798  0.8357
 6877TIP3   OH242045   0.200   2.291  14.645  0.4976 -0.4892 -0.2623
 6877TIP3    H142046   0.236   2.269  14.731  0.5919  0.2368 -0.1148
 6877TIP3    H242047   0.275   2.325  14.596  0.4282 -0.8275 -0.6103
 6878TIP3   OH242048   6.028   3.306   2.388  0.0139  0.0961 -0.2886
 6878TIP3    H142049   6.018   3.355   2.469  0.0204 -0.9309  0.3453
 6878TIP3    H242050   5.950   3.328   2.337 -0.6221 -0.2196  0.5276
 6879TIP3   OH242051   0.515   5.006   4.152 -0.8252 -0.0234 -0.0407
 6879TIP3    H142052   0.538   4.933   4.095 -0.2196  0.1271  0.0080
 6879TIP3    H242053   0.530   4.973   4.241  0.8514  0.6119 -0.0574
 6880TIP3   OH242054   5.581   0.167  14.861 -0.2876 -0.2642 -0.2253
 6880TIP3    H142055   5.653   0.207  14.812 -0.6707 -0.2218 -0.7597
 6880TIP3    H242056   5.624   0.105  14.920  0.0790 -1.5954 -1.8245
 6881TIP3   OH242057   0.502   4.789   6.037  0.3296 -0.2150 -0.1395
 6881TIP3    H142058   0.572   4.780   6.103  0.9211  0.2773 -0.6872
 6881TIP3    H242059   0.514   4.877   6.002 -1.0737  0.1662  0.3225
 6882TIP3   OH242060   5.223   3.044  10.812 -0.1294  0.1595  0.3208
 6882TIP3    H142061   5.138   3.030  10.853 -0.9198 -1.2805 -1.6926
 6882TIP3    H242062   5.223   3.136  10.786 -1.8476 -0.2682 -1.3092
 6883TIP3   OH242063   2.344   0.727   4.694  0.0395 -0.2169 -0.2590
 6883TIP3    H142064   2.373   0.693   4.778  1.4268  0.8145 -0.2923
 6883TIP3    H242065   2.418   0.779   4.662 -0.2141 -1.0842 -2.3997
 6884TIP3   OH242066   1.037   0.582   4.715  0.0213  0.1653  0.1802
 6884TIP3    H142067   0.974   0.524   4.673  2.2856 -0.8654 -1.8906
 6884TIP3    H242068   1.047   0.655   4.654 -0.0950  0.9370  1.0772
 6885TIP3   OH242069   6.246   1.937   4.505  0.1617  0.2796 -0.0635
 6885TIP3    H142070   6.331   1.934   4.462  0.6155 -0.4934  0.8574
 6885TIP3    H242071   6.263   1.977   4.590 -0.0484 -1.5276  0.8542
 6886TIP3   OH242072   0.432   4.610   3.321 -0.1514 -0.0972 -0.3497
 6886TIP3    H142073   0.345   4.571   3.311 -0.3251  0.1412  0.2351
 6886TIP3    H242074   0.440   4.628   3.415  0.6266 -0.3505 -0.3617
 6887TIP3   OH242075   4.330   6.068  12.078 -0.2328 -0.2197  0.1458
 6887TIP3    H142076   4.242   6.036  12.057  0.9276 -3.8061  0.3762
 6887TIP3    H242077   4.377   6.064  11.995  0.1023  0.3626  0.3097
 6888TIP3   OH242078   2.738   3.778   4.325 -0.2615  0.1401  0.3746
 6888TIP3    H142079   2.666   3.776   4.262 -0.4422  0.6385  0.5672
 6888TIP3    H242080   2.804   3.834   4.284 -0.2111  0.1333  0.4476
 6889TIP3   OH242081   5.624   0.728  13.350  0.9115 -0.1610  0.3455
 6889TIP3    H142082   5.531   0.744  13.368  0.2349 -2.3192 -1.1250
 6889TIP3    H242083   5.642   0.643  13.390  1.8433 -0.5037 -0.8007
 6890TIP3   OH242084   6.263   0.826  15.636  0.1374  0.3086  0.1333
 6890TIP3    H142085   6.179   0.859  15.667 -0.2797 -0.3089 -0.3323
 6890TIP3    H242086   6.256   0.730  15.644 -0.9625 -0.0960 -4.2130
 6891TIP3   OH242087   6.407   2.978  14.580 -0.2236 -0.0030 -0.0617
 6891TIP3    H142088   6.469   3.045  14.610  0.2401  0.1511 -1.3052
 6891TIP3    H242089   6.331   3.027  14.550 -0.1117 -0.0687 -0.4522
 6892TIP3   OH242090   5.345   0.749   2.811  0.3531 -0.1441 -0.0281
 6892TIP3    H142091   5.275   0.756   2.746 -1.9752 -2.7339  2.0591
 6892TIP3    H242092   5.357   0.839   2.843 -1.0175  0.5627 -1.4221
 6893TIP3   OH242093   6.664   0.773   0.406 -0.0067 -0.3751 -0.6564
 6893TIP3    H142094   6.636   0.801   0.494 -3.2030 -0.6368 -1.5373
 6893TIP3    H242095   6.741   0.719   0.422  1.3154  2.0722  1.7471
 6894TIP3   OH242096   0.572   0.113   2.976  0.0829  0.4298  0.7255
 6894TIP3    H142097   0.600   0.053   2.907 -1.7775  0.6643 -0.2520
 6894TIP3    H242098   0.494   0.157   2.941  0.0130  1.6873  2.3581
 6895TIP3   OH242099   1.110   2.221   2.940  0.0575 -0.5037 -0.0475
 6895TIP3    H142100   1.133   2.250   3.028 -0.8059  1.6965 -0.4978
 6895TIP3    H242101   1.015   2.213   2.941 -0.1046  0.9964 -1.1640
 6896TIP3   OH242102   0.152   1.433  11.751  0.1748 -0.0811  0.1591
 6896TIP3    H142103   0.112   1.348  11.768 -0.0102  0.1780  1.0686
 6896TIP3    H242104   0.123   1.456  11.663 -0.0229 -0.8259  0.0307
 6897TIP3   OH242105   5.353   3.907   2.371  0.0477 -0.4205  0.5439
 6897TIP3    H142106   5.418   3.971   2.341  1.2494  0.0967  3.9735
 6897TIP3    H242107   5.298   3.891   2.295  3.3654  0.1870 -2.0992
 6898TIP3   OH242108   1.586   5.940   3.131 -0.5163  0.2882 -0.1905
 6898TIP3    H142109   1.527   5.909   3.200 -0.3363  0.2373 -0.0611
 6898TIP3    H242110   1.671   5.902   3.153 -0.6799 -0.5867 -1.0151
 6899TIP3   OH242111   5.289   3.227  11.101 -0.3121  0.7845 -0.1352
 6899TIP3    H142112   5.279   3.260  11.012  0.8870  0.4428 -0.4096
 6899TIP3    H242113   5.346   3.291  11.144 -0.9555  0.9898  0.4043
 6900TIP3   OH242114   1.406   5.015  13.760 -0.0217  0.7073 -0.4819
 6900TIP3    H142115   1.481   5.047  13.810 -1.4691  0.1711  2.1229
 6900TIP3    H242116   1.341   5.085  13.765 -0.2938  0.5285 -1.3737
 6901TIP3   OH242117   5.712   5.793   5.219 -0.0343  0.2462  0.0734
 6901TIP3    H142118   5.668   5.878   5.226 -0.1151  0.2061  0.0544
 6901TIP3    H242119   5.645   5.734   5.185  0.3600  0.4349 -1.0282
 6902TIP3   OH242120   2.919   4.593   3.342  0.1245  0.4271  0.2185
 6902TIP3    H142121   2.892   4.501   3.339  4.6208 -0.9975  0.0030
 6902TIP3    H242122   2.891   4.628   3.257  0.3678 -1.3521 -0.6179
 6903TIP3   OH242123   6.140   4.000  12.565  0.6302 -0.4138  0.9860
 6903TIP3    H142124   6.149   3.905  12.558 -0.3546 -0.4132 -0.5095
 6903TIP3    H242125   6.226   4.030  12.594  1.3974 -1.6130  0.0213
 6904TIP3   OH242126   1.101   6.089  16.406 -0.0807  0.0994 -0.1428
 6904TIP3    H142127   1.099   6.015  16.345 -0.7865 -0.3693  0.4343
 6904TIP3    H242128   1.077   6.165  16.352  1.1240 -0.0042 -0.8429
 6905TIP3   OH242129   5.420   5.111   4.200 -0.2598 -0.2537  0.5018
 6905TIP3    H142130   5.391   5.036   4.251 -1.5021 -2.4211 -3.2066
 6905TIP3    H242131   5.509   5.089   4.174  0.6911  1.2428  2.3880
 6906TIP3   OH242132   5.808   4.922   2.761 -0.1360  0.3012 -0.1384
 6906TIP3    H142133   5.870   4.898   2.830 -0.5043  0.2413  0.1726
 6906TIP3    H242134   5.724   4.932   2.806 -0.4929 -0.2858 -0.6697
 6907TIP3   OH242135   0.811   4.971  17.166  0.0845 -0.2505 -0.2762
 6907TIP3    H142136   0.905   4.964  17.152  0.0115  0.8985 -1.4057
 6907TIP3    H242137   0.794   5.065  17.168 -1.3044 -0.4406 -1.9897
 6908TIP3   OH242138   1.418   6.354   2.684 -0.5612  0.3730  0.6715
 6908TIP3    H142139   1.481   6.332   2.752 -1.1287  1.7677  1.6667
 6908TIP3    H242140   1.459   6.425   2.635 -0.1419 -0.6394 -0.4952
 6909TIP3   OH242141   3.847   1.243   4.986  0.3593  0.2794 -0.3897
 6909TIP3    H142142   3.871   1.309   4.921 -0.2344 -0.6155 -1.5466
 6909TIP3    H242143   3.769   1.201   4.949 -2.6088  2.6219  2.8723
 6910TIP3   OH242144   2.990   1.940  13.196 -0.3284 -0.7620  0.4681
 6910TIP3    H142145   2.944   2.020  13.172  0.5599 -0.5890 -0.7298
 6910TIP3    H242146   3.080   1.969  13.213  0.3519 -1.6824 -1.3829
 6911TIP3   OH242147   4.718   6.720   2.852  0.3370  0.3158 -0.1603
 6911TIP3    H142148   4.689   6.712   2.761  0.1034 -0.0373 -0.0549
 6911TIP3    H242149   4.737   6.814   2.863 -1.1941  0.6314 -0.0969
 6912TIP3   OH242150   3.168   4.446   3.672 -0.7304  0.2581 -0.4014
 6912TIP3    H142151   3.113   4.381   3.628 -1.4049  0.9216 -0.5478
 6912TIP3    H242152   3.114   4.479   3.743 -0.8472  1.5348 -1.0677
 6913TIP3   OH242153   5.428   5.859  10.459 -0.0499 -0.6065 -0.1115
 6913TIP3    H142154   5.524   5.865  10.456 -0.0552 -0.9201 -1.4108
 6913TIP3    H242155   5.405   5.885  10.548  1.0018  2.7832 -0.7599
 6914TIP3   OH242156   0.449   5.297   2.328  0.4427  0.0414  0.2055
 6914TIP3    H142157   0.370   5.257   2.291  0.5292 -0.3459  0.4362
 6914TIP3    H242158   0.469   5.243   2.404 -0.1157  1.2261  1.2078
 6915TIP3   OH242159   4.804   5.394  13.171  0.1616 -0.3326 -0.5372
 6915TIP3    H142160   4.769   5.318  13.218  1.3275 -0.2314  0.5371
 6915TIP3    H242161   4.890   5.365  13.141  0.0273  0.0998 -1.3559
 6916TIP3   OH242162   3.882   4.459  13.986  0.3453 -0.7627 -0.4084
 6916TIP3    H142163   3.817   4.525  14.008  0.3258 -0.7574 -0.4818
 6916TIP3    H242164   3.867   4.388  14.049  0.8378 -0.3905  0.1285
 6917TIP3   OH242165   2.663   5.157   5.374 -0.1731  0.0313  0.3158
 6917TIP3    H142166   2.604   5.086   5.348 -0.9967  1.0529 -0.6170
 6917TIP3    H242167   2.693   5.195   5.292  2.2414 -0.8301  0.7635
 6918TIP3   OH242168   1.924   1.017  12.850  0.3060  0.1592  0.3029
 6918TIP3    H142169   2.020   1.022  12.858  0.3396 -1.5515  1.2544
 6918TIP3    H242170   1.897   0.961  12.922 -1.6325  2.1164  1.1609
 6919TIP3   OH242171   5.468   1.308  12.710 -0.0366  0.7158  0.4951
 6919TIP3    H142172   5.551   1.320  12.664 -0.4886 -2.2899 -1.2094
 6919TIP3    H242173   5.470   1.218  12.742 -1.8659  1.1839  2.0553
 6920TIP3   OH242174   2.323   6.436   3.735 -0.6125  0.0992  0.3195
 6920TIP3    H142175   2.321   6.433   3.831  1.5452 -3.5105  0.3492
 6920TIP3    H242176   2.415   6.453   3.714 -1.1444  1.3294 -1.1600
 6921TIP3   OH242177   3.064   1.018   4.345  0.6847 -0.1598 -0.4825
 6921TIP3    H142178   3.043   0.956   4.415  1.0905 -0.7305 -0.8591
 6921TIP3    H242179   3.159   1.030   4.352  0.4571  1.2613  0.2785
 6922TIP3   OH242180   6.500   5.962   2.426 -0.2771  0.2069  0.9205
 6922TIP3    H142181   6.517   5.879   2.382  1.7805  0.9604  0.2366
 6922TIP3    H242182   6.558   5.961   2.503 -1.4020  0.3292  1.7772
 6923TIP3   OH242183   6.398   0.360   4.760  0.0662  0.7613 -0.5341
 6923TIP3    H142184   6.400   0.432   4.822 -0.8077 -0.3176  0.7850
 6923TIP3    H242185   6.468   0.301   4.790 -1.8690 -0.8943  0.8737
 6924TIP3   OH242186   3.650   5.561  12.485 -0.1650  0.7307  0.0554
 6924TIP3    H142187   3.670   5.479  12.530  0.4912  1.3042  0.8349
 6924TIP3    H242188   3.717   5.568  12.417 -0.4657  0.4201 -0.2715
 6925TIP3   OH242189   0.847   3.502  11.535  0.1856 -0.0050  0.3059
 6925TIP3    H142190   0.934   3.510  11.574 -0.0660 -0.3657  0.9487
 6925TIP3    H242191   0.789   3.489  11.610 -0.4942  0.8163 -0.0757
 6926TIP3   OH242192   0.117   0.043  12.438 -0.6454  0.0354 -0.6294
 6926TIP3    H142193   0.067   0.081  12.510 -0.6684  4.0239 -2.6268
 6926TIP3    H242194   0.052  -0.002  12.385 -1.4538  1.3206 -0.7591
 6927TIP3   OH242195   0.662   0.973  16.852 -0.8652 -0.2645  0.2602
 6927TIP3    H142196   0.690   1.060  16.825 -2.1393  0.0894  0.0314
 6927TIP3    H242197   0.691   0.965  16.943 -0.9443  0.4936  0.3581
 6928TIP3   OH242198   1.766   1.466  11.531 -0.5000 -0.1675 -0.0153
 6928TIP3    H142199   1.716   1.547  11.532 -0.3391 -0.0608 -0.3953
 6928TIP3    H242200   1.737   1.418  11.608 -1.0912 -0.0501 -0.1652
 6929TIP3   OH242201   3.328   6.322  14.984 -0.5687  0.3057  0.2585
 6929TIP3    H142202   3.335   6.341  15.078 -2.1366  0.9489  0.2681
 6929TIP3    H242203   3.342   6.227  14.977  1.3378  0.5254  0.9228
 6930TIP3   OH242204   3.818   5.987   3.511  0.4978 -0.5328 -0.0526
 6930TIP3    H142205   3.886   5.922   3.495 -0.2951 -1.8608  1.8284
 6930TIP3    H242206   3.814   5.995   3.606 -2.1604 -0.6919 -0.1252
 6931TIP3   OH242207   1.963   1.876   3.886 -0.1752  0.3919 -0.1171
 6931TIP3    H142208   1.946   1.793   3.842  1.3276  0.7924 -1.4840
 6931TIP3    H242209   1.931   1.943   3.825  0.2910  0.8890  0.1742
 6932TIP3   OH242210   5.125   4.263   1.656  0.3615 -0.2021 -0.4251
 6932TIP3    H142211   5.149   4.212   1.733 -0.5877  0.2276  0.1730
 6932TIP3    H242212   5.030   4.249   1.647  0.0739  1.5109 -0.1913
 6933TIP3   OH242213   5.979   4.537   5.638  0.4107 -0.1264  0.0069
 6933TIP3    H142214   6.031   4.580   5.571  0.2429 -0.2337 -0.1929
 6933TIP3    H242215   6.027   4.553   5.720 -0.3033  1.5391  0.1264
 6934TIP3   OH242216   6.578   1.467  13.832 -0.0816  0.6427 -0.4060
 6934TIP3    H142217   6.632   1.526  13.885  0.7463 -0.2074 -0.2994
 6934TIP3    H242218   6.543   1.523  13.763 -1.3539  1.8077  1.1612
 6935TIP3   OH242219   2.555   5.085  15.660  0.2498  0.0030  0.1890
 6935TIP3    H142220   2.479   5.055  15.710 -0.8951  0.0457 -1.4878
 6935TIP3    H242221   2.561   5.178  15.681  0.1602 -0.1143  0.7466
 6936TIP3   OH242222   3.751   3.463  16.722 -0.6462  0.3250 -0.2022
 6936TIP3    H142223   3.824   3.443  16.663 -0.5044 -0.4055  0.2164
 6936TIP3    H242224   3.701   3.531  16.676 -1.7780 -1.7729 -2.1689
 6937TIP3   OH242225   6.045   6.399   1.702 -0.2863 -0.0643 -0.1038
 6937TIP3    H142226   6.093   6.339   1.759  0.6328  1.8216  1.1618
 6937TIP3    H242227   6.092   6.396   1.619 -0.7810 -1.7489 -0.3436
 6938TIP3   OH242228   5.811   3.641  14.061 -0.0001  0.2689  0.7178
 6938TIP3    H142229   5.777   3.724  14.096 -0.3831  0.2023  0.5103
 6938TIP3    H242230   5.837   3.591  14.138 -2.3636 -0.5423  1.0259
 6939TIP3   OH242231   5.780   2.799  15.492  0.3736  0.0783 -0.2137
 6939TIP3    H142232   5.713   2.730  15.503 -0.8335  1.4154  0.9645
 6939TIP3    H242233   5.748   2.851  15.418  0.5473  0.2396 -0.1737
 6940TIP3   OH242234   2.763   4.362  13.137 -0.1965  0.0286 -0.2382
 6940TIP3    H142235   2.734   4.422  13.206  0.1347  1.9178 -1.6806
 6940TIP3    H242236   2.717   4.280  13.155 -1.6187  1.0898  1.0842
 6941TIP3   OH242237   0.688   6.026   4.786  0.3582 -0.0213  0.2470
 6941TIP3    H142238   0.682   5.946   4.732  1.0997 -0.5332  0.9116
 6941TIP3    H242239   0.703   5.993   4.875 -1.9789  0.7814  0.9693
 6942TIP3   OH242240   3.888   6.660  11.881 -0.3415 -0.0079  0.0135
 6942TIP3    H142241   3.809   6.613  11.907  0.2877 -1.0173  0.1657
 6942TIP3    H242242   3.958   6.621  11.935  0.6836 -0.9066 -1.9058
 6943TIP3   OH242243   5.498   5.618   5.163 -0.1671 -0.1286 -0.1148
 6943TIP3    H142244   5.462   5.624   5.074  0.8926  1.6110 -0.4351
 6943TIP3    H242245   5.421   5.607   5.219 -1.0437  1.2311 -1.0168
 6944TIP3   OH242246   1.050   2.456  16.911  0.3338  0.3473 -0.4007
 6944TIP3    H142247   0.968   2.477  16.865  0.0378 -1.6393 -0.8357
 6944TIP3    H242248   1.096   2.398  16.851  1.2481  0.0102  0.6268
 6945TIP3   OH242249   5.058   1.514  16.899  1.0902  0.2275 -0.0002
 6945TIP3    H142250   5.044   1.433  16.947  0.8751  0.3368  0.1292
 6945TIP3    H242251   4.984   1.520  16.839  0.8321  0.5812  0.3520
 6946TIP3   OH242252   5.764   5.264  14.682 -0.0278 -0.3103  0.0685
 6946TIP3    H142253   5.756   5.173  14.712 -0.8117 -0.2922 -0.0598
 6946TIP3    H242254   5.826   5.261  14.610  2.2617 -0.2843  1.9880
 6947TIP3   OH242255   4.288   4.200   3.890  0.0521 -0.0134 -0.2433
 6947TIP3    H142256   4.292   4.199   3.795  0.2053  2.1618 -0.2994
 6947TIP3    H242257   4.340   4.277   3.915  0.7159 -1.0370  1.6294
 6948TIP3   OH242258   5.313   3.978  10.465  0.5775 -0.0700 -0.0557
 6948TIP3    H142259   5.289   3.912  10.399  0.4302 -1.4865  1.3761
 6948TIP3    H242260   5.408   3.982  10.461  0.5222  0.5652 -1.0137
 6949TIP3   OH242261   4.492   4.390  13.301 -0.1633 -0.5045  0.1772
 6949TIP3    H142262   4.484   4.382  13.396  0.7415  3.4623  0.6622
 6949TIP3    H242263   4.564   4.332  13.278  1.4959  0.6699  2.3159
 6950TIP3   OH242264   2.600   5.002  13.456  0.1869 -0.9678 -0.3285
 6950TIP3    H142265   2.557   4.983  13.539  3.2315  0.0593  1.5797
 6950TIP3    H242266   2.530   5.035  13.399 -1.6018  0.4114  2.5357
 6951TIP3   OH242267   2.922   0.121   3.867  0.3569  0.0665  0.2657
 6951TIP3    H142268   2.984   0.182   3.827  0.0361 -0.5197 -1.1493
 6951TIP3    H242269   2.861   0.098   3.797 -0.4110 -0.7386  1.1698
 6952TIP3   OH242270   6.702   4.846   2.274  0.2596  0.5863  0.0502
 6952TIP3    H142271   6.701   4.810   2.185 -0.4304  0.5440  0.0734
 6952TIP3    H242272   6.761   4.788   2.322  1.9751  1.5883 -0.7776
 6953TIP3   OH242273   4.364   1.793   1.427 -0.3918 -0.1354 -0.2304
 6953TIP3    H142274   4.271   1.795   1.403 -0.5744 -1.0871  0.3330
 6953TIP3    H242275   4.376   1.869   1.484 -0.8775 -0.1321 -0.1317
 6954TIP3   OH242276   0.569   3.316   0.542 -0.1492  0.1197  0.1721
 6954TIP3    H142277   0.658   3.295   0.570 -0.3306  1.1093  1.5138
 6954TIP3    H242278   0.574   3.315   0.446  0.8418 -1.7482  0.2153
 6955TIP3   OH242279   5.604   1.949  12.474 -0.0460 -0.2632 -0.2929
 6955TIP3    H142280   5.515   1.982  12.464  0.6674  1.6717 -0.3755
 6955TIP3    H242281   5.606   1.911  12.562 -0.5013  1.1273  0.3301
 6956TIP3   OH242282   2.984   0.039  11.078 -0.2592 -1.3741  0.4887
 6956TIP3    H142283   2.898   0.076  11.100  0.4362  0.1234  0.7652
 6956TIP3    H242284   3.025   0.106  11.023  0.2541 -2.6246 -0.6653
 6957TIP3   OH242285   1.747   2.415   0.331 -0.9464 -0.9640  0.0908
 6957TIP3    H142286   1.717   2.379   0.414 -1.5702  0.8453  0.6704
 6957TIP3    H242287   1.675   2.470   0.301  0.6862  1.2317  0.1118
 6958TIP3   OH242288   6.424   5.335  11.532 -0.2132 -0.5187  0.0443
 6958TIP3    H142289   6.472   5.350  11.451  0.5569  0.5070  0.6940
 6958TIP3    H242290   6.406   5.422  11.567 -0.0142 -0.9585  1.2850
 6959TIP3   OH242291   0.083   3.700  15.440 -0.1296  0.0165 -0.1423
 6959TIP3    H142292   0.123   3.696  15.527 -0.7037  0.4813  0.1495
 6959TIP3    H242293   0.051   3.612  15.424  1.6423 -0.5366 -0.6783
 6960TIP3   OH242294   1.717   5.252   0.528 -0.1587  0.5220  0.1811
 6960TIP3    H142295   1.788   5.225   0.587  1.7266 -1.6131 -2.8857
 6960TIP3    H242296   1.646   5.192   0.547  0.1810  0.2882  0.7423
 6961TIP3   OH242297   6.049   3.194   5.900  0.8288  0.8159 -0.7913
 6961TIP3    H142298   6.006   3.244   5.970 -1.6791 -1.1241 -0.8476
 6961TIP3    H242299   6.134   3.171   5.936 -1.1857 -1.9271  2.5606
 6962TIP3   OH242300   0.513   6.002   0.839 -0.4159 -0.3578 -0.0876
 6962TIP3    H142301   0.450   6.064   0.803 -0.5448 -0.4821 -0.0771
 6962TIP3    H242302   0.494   5.999   0.932 -1.1377 -1.2394 -0.2518
 6963TIP3   OH242303   2.770   2.177  11.801  0.3495  0.5807  0.1100
 6963TIP3    H142304   2.756   2.268  11.775  1.4630  1.0112  0.9981
 6963TIP3    H242305   2.710   2.164  11.874  0.3424  0.6518  0.1175
 6964TIP3   OH242306   3.560   3.932   4.956  0.7461 -0.1050  0.0349
 6964TIP3    H142307   3.567   3.955   5.049 -1.1677 -3.3825  1.0825
 6964TIP3    H242308   3.633   3.871   4.942  1.8280  1.3860 -1.0078
 6965TIP3   OH242309   3.214   3.802  14.199 -0.3030  0.0256 -0.2360
 6965TIP3    H142310   3.161   3.850  14.135 -0.9292  0.0809  0.3313
 6965TIP3    H242311   3.248   3.870  14.257 -0.3798 -0.1141 -0.0279
 6966TIP3   OH242312   2.078   4.954  11.949 -0.5242 -0.3933  0.4523
 6966TIP3    H142313   1.986   4.977  11.933 -0.9820  0.2191  3.5191
 6966TIP3    H242314   2.096   4.990  12.036  2.4431 -1.0689  0.1539
 6967TIP3   OH242315   4.980   5.568  16.796 -0.1661  0.1680  0.0787
 6967TIP3    H142316   4.897   5.582  16.843 -0.7357 -1.1592 -0.4944
 6967TIP3    H242317   5.033   5.515  16.856  0.3528  1.1890  0.5251
 6968TIP3   OH242318   3.518   3.686  12.732 -0.2357  0.5765 -0.2056
 6968TIP3    H142319   3.606   3.719  12.713 -0.0493 -0.5051 -1.2898
 6968TIP3    H242320   3.460   3.737  12.675 -0.2090  0.6631 -0.1552
 6969TIP3   OH242321   5.063   5.402   2.199 -0.3195 -0.4048 -0.6073
 6969TIP3    H142322   5.119   5.350   2.142  1.3163  1.1712 -0.4919
 6969TIP3    H242323   5.091   5.492   2.184 -0.7027  0.1395  1.7591
 6970TIP3   OH242324   5.752   1.745   4.342  0.3713 -0.0652 -0.4999
 6970TIP3    H142325   5.837   1.786   4.360 -0.3999  0.7346  1.3770
 6970TIP3    H242326   5.704   1.810   4.290  0.1016  0.3564  0.2803
 6971TIP3   OH242327   2.150   1.018   2.679 -0.0791  0.1538  0.3639
 6971TIP3    H142328   2.112   1.009   2.766 -1.7945 -0.9693 -0.4708
 6971TIP3    H242329   2.104   1.093   2.640  0.1919  0.2301  0.1906
 6972TIP3   OH242330   0.364   0.887  11.846  0.5091  0.1580  0.2887
 6972TIP3    H142331   0.316   0.915  11.924  1.0849  0.3149  0.5933
 6972TIP3    H242332   0.418   0.963  11.822 -0.1794  0.3486 -0.6696
 6973TIP3   OH242333   0.999   5.979  12.525  0.0980  0.1411  0.4408
 6973TIP3    H142334   1.036   5.894  12.546  0.9137  0.5242  0.6055
 6973TIP3    H242335   1.016   6.032  12.603  0.4983  0.7389 -0.0491
 6974TIP3   OH242336   6.577   6.717  16.141 -0.2315 -0.3475 -0.1810
 6974TIP3    H142337   6.666   6.740  16.114  0.0171 -1.7821 -0.6320
 6974TIP3    H242338   6.525   6.727  16.061 -0.3300 -0.2660 -0.1075
 6975TIP3   OH242339   3.609   5.199   6.123  0.3334  0.8331  0.3790
 6975TIP3    H142340   3.703   5.216   6.130  0.1504  1.2369  1.9966
 6975TIP3    H242341   3.602   5.103   6.129  0.6987  0.7231 -0.7180
 6976TIP3   OH242342   2.194   6.561  17.180 -0.6589 -0.2245 -0.3241
 6976TIP3    H142343   2.151   6.588  17.261 -1.5045 -1.7229 -0.2597
 6976TIP3    H242344   2.245   6.484  17.204  0.5112  0.3791 -0.8334
 6977TIP3   OH242345   2.003   0.704   0.288  0.1139  0.0302  0.5754
 6977TIP3    H142346   1.928   0.645   0.277  1.3610 -1.5417  0.3594
 6977TIP3    H242347   1.975   0.786   0.247 -0.9512 -1.0051 -0.8346
 6978TIP3   OH242348   0.616   0.717   5.578 -0.0658 -0.2346  0.1067
 6978TIP3    H142349   0.569   0.757   5.504 -0.3089  1.1178  0.9721
 6978TIP3    H242350   0.707   0.741   5.564 -0.0349 -0.4433 -0.0485
 6979TIP3   OH242351   2.304   1.144   5.925 -0.0355  0.2090 -0.4887
 6979TIP3    H142352   2.226   1.166   5.874 -0.1734  0.7411 -0.0450
 6979TIP3    H242353   2.363   1.218   5.911  1.0366 -0.9086 -2.1138
 6980TIP3   OH242354   1.369   4.035  12.064  0.7470  0.2903  0.0012
 6980TIP3    H142355   1.277   4.057  12.055  0.8363  1.4076  1.5569
 6980TIP3    H242356   1.369   3.942  12.088  0.0012  0.3704  0.3303
 6981TIP3   OH242357   2.168   3.121  15.118  0.1219 -0.4511  0.0509
 6981TIP3    H142358   2.115   3.125  15.198  0.7944  1.5951  0.4069
 6981TIP3    H242359   2.233   3.053  15.137  0.1282 -0.1443  1.1563
 6982TIP3   OH242360   2.306   0.958   4.889 -0.0456  0.2893 -0.1703
 6982TIP3    H142361   2.373   0.918   4.944  1.5546  1.1537 -1.4477
 6982TIP3    H242362   2.284   0.890   4.825 -0.8643 -0.2127  0.6308
 6983TIP3   OH242363   0.591   0.993  15.409  0.1891 -0.0480  0.0858
 6983TIP3    H142364   0.617   0.987  15.317  1.0855 -0.1242  0.3425
 6983TIP3    H242365   0.597   0.903  15.442 -1.8891 -0.3501 -0.2356
 6984TIP3   OH242366   4.194   0.058   2.860 -0.9493  0.2002 -0.2701
 6984TIP3    H142367   4.122   0.065   2.797 -0.3634 -0.6291 -1.0360
 6984TIP3    H242368   4.269   0.097   2.814 -0.1553 -1.7543 -0.6688
 6985TIP3   OH242369   2.684   0.412  10.347  0.3711 -0.6126  0.2590
 6985TIP3    H142370   2.746   0.367  10.405  0.5424 -0.1130  0.4732
 6985TIP3    H242371   2.634   0.342  10.306 -0.5683 -0.9464  1.9036
 6986TIP3   OH242372   2.221   1.634   2.863 -0.3179 -0.1555  0.4365
 6986TIP3    H142373   2.216   1.671   2.951  0.0069 -0.3318  0.5305
 6986TIP3    H242374   2.308   1.659   2.832 -0.4288 -0.1013  0.1686
 6987TIP3   OH242375   6.506   4.087   0.631 -0.6220 -0.2172  0.6973
 6987TIP3    H142376   6.600   4.074   0.621 -0.4499  0.9128  0.6992
 6987TIP3    H242377   6.466   4.033   0.563  0.0794  0.0526  0.0680
 6988TIP3   OH242378   6.029   6.419   0.153 -0.0327 -0.1224  0.1668
 6988TIP3    H142379   6.020   6.370   0.071 -0.0168  0.0660  0.0513
 6988TIP3    H242380   6.082   6.363   0.209 -0.2384 -0.3533  0.1286
 6989TIP3   OH242381   3.045   2.755   4.282  0.3785 -0.3823 -0.1409
 6989TIP3    H142382   3.089   2.671   4.288 -0.7945 -1.0970 -1.3287
 6989TIP3    H242383   3.110   2.819   4.313  2.5951 -1.2769 -2.7541
 6990TIP3   OH242384   2.798   5.494  13.010 -0.3639 -0.2579  0.0862
 6990TIP3    H142385   2.748   5.515  12.931 -0.8200 -0.8727  0.2075
 6990TIP3    H242386   2.778   5.402  13.027 -0.9203  0.0908  1.3811
 6991TIP3   OH242387   4.447   0.030   0.086 -1.0446 -0.1529 -0.3489
 6991TIP3    H142388   4.495   0.097   0.135 -0.1070 -0.6237 -0.5967
 6991TIP3    H242389   4.400  -0.020   0.153 -0.1984 -0.4525  0.0342
 6992TIP3   OH242390   0.043   0.245   0.522  0.7402 -0.4599 -0.0713
 6992TIP3    H142391   0.127   0.255   0.567  0.5564 -0.0335  0.1754
 6992TIP3    H242392   0.038   0.152   0.502  1.8980 -0.2690 -1.3148
 6993TIP3   OH242393   1.883   6.463   1.902 -0.3063 -0.1258  0.4722
 6993TIP3    H142394   1.945   6.436   1.970 -0.0572 -1.2717 -0.1827
 6993TIP3    H242395   1.929   6.533   1.855 -0.5528  0.7956  1.5756
 6994TIP3   OH242396   3.367   0.702   2.817 -0.0061 -0.4620  0.6666
 6994TIP3    H142397   3.341   0.769   2.880 -0.3203  1.5653 -1.5812
 6994TIP3    H242398   3.300   0.633   2.827  0.7045 -0.8174  3.4577
 6995TIP3   OH242399   4.852   6.432  10.603  0.0462 -0.0966  0.3474
 6995TIP3    H142400   4.781   6.369  10.594 -0.0722 -0.0018  0.5987
 6995TIP3    H242401   4.923   6.382  10.644 -0.0560 -0.0611  0.5696
 6996TIP3   OH242402   4.478   3.728   1.645 -0.5716 -0.6295 -0.1141
 6996TIP3    H142403   4.546   3.677   1.600 -0.0515 -0.9287  1.0011
 6996TIP3    H242404   4.416   3.663   1.676 -0.6123 -0.4739  0.1299
 6997TIP3   OH242405   3.343   0.600   6.515 -0.5772  0.5702 -0.0232
 6997TIP3    H142406   3.278   0.633   6.577 -0.6969  2.0273 -0.9029
 6997TIP3    H242407   3.323   0.646   6.433  0.3110 -0.4590 -0.8277
 6998TIP3   OH242408   5.718   0.111   3.385  0.4916 -0.1539  0.5308
 6998TIP3    H142409   5.763   0.105   3.300 -4.2700  0.0303 -2.1718
 6998TIP3    H242410   5.735   0.026   3.426  1.6801 -0.8094 -1.2334
 6999TIP3   OH242411   1.409   6.173   3.731 -0.7265 -0.4320  0.0896
 6999TIP3    H142412   1.396   6.237   3.660 -2.2435 -1.6509 -0.7657
 6999TIP3    H242413   1.504   6.172   3.745 -0.6335  1.5837 -0.2782
 7000TIP3   OH242414   1.098   2.557   4.375 -0.1476  0.4056 -0.5118
 7000TIP3    H142415   1.162   2.628   4.371  0.0736  0.3937  2.1777
 7000TIP3    H242416   1.109   2.520   4.462 -2.9220 -0.4437 -0.4888
 7001TIP3   OH242417   5.817   2.357   0.704 -0.2775  0.1388  0.3048
 7001TIP3    H142418   5.838   2.314   0.621  0.5431 -0.9262  1.0509
 7001TIP3    H242419   5.821   2.451   0.684 -1.1271 -0.1080 -1.1048
 7002TIP3   OH242420   2.912   2.667   4.054 -0.1010  0.3729 -0.0476
 7002TIP3    H142421   2.952   2.581   4.042  0.2964  0.7532 -1.5803
 7002TIP3    H242422   2.957   2.704   4.130  0.1202 -0.5423  0.2720
 7003TIP3   OH242423   1.706   2.096  10.588 -0.1006  0.2208  0.2082
 7003TIP3    H142424   1.695   2.049  10.505 -0.6364  1.6392 -0.5527
 7003TIP3    H242425   1.796   2.128  10.585 -0.1513  0.3567  0.1252
 7004TIP3   OH242426   1.639   2.593  16.045 -0.0037  0.3589 -0.7194
 7004TIP3    H142427   1.710   2.622  16.102 -0.1515 -1.2036  0.2814
 7004TIP3    H242428   1.659   2.501  16.026 -1.8418 -0.1501 -0.2826
 7005TIP3   OH242429   0.890   4.193  16.587 -0.1541 -0.4532 -0.4205
 7005TIP3    H142430   0.810   4.141  16.592 -2.3230  2.7002 -1.6090
 7005TIP3    H242431   0.905   4.223  16.677 -2.8671  2.6018 -0.8996
 7006TIP3   OH242432   2.692   4.736  12.412 -0.3695 -0.5096  0.4826
 7006TIP3    H142433   2.650   4.653  12.388 -1.0969  0.2260 -0.8193
 7006TIP3    H242434   2.642   4.803  12.366  1.2100  0.5327  0.2339
 7007TIP3   OH242435   4.258   2.490  13.230  0.2162  0.8725  0.7793
 7007TIP3    H142436   4.248   2.406  13.274 -0.6162  1.1826  1.2077
 7007TIP3    H242437   4.201   2.483  13.153 -0.8538  1.4917  1.4975
 7008TIP3   OH242438   3.061   6.422   3.203  0.4894 -0.5524  0.1505
 7008TIP3    H142439   3.045   6.328   3.199  2.5400 -0.9807  1.6561
 7008TIP3    H242440   3.125   6.439   3.134 -1.6089  0.1692 -1.7036
 7009TIP3   OH242441   1.953   6.265   0.936 -0.1126 -0.3121  0.4158
 7009TIP3    H142442   1.935   6.359   0.929 -1.2310 -0.5994 -0.8653
 7009TIP3    H242443   1.871   6.228   0.969  0.9000 -0.6279  2.6036
 7010TIP3   OH242444   6.402   6.209  16.237 -0.0982 -0.4213 -0.2398
 7010TIP3    H142445   6.399   6.304  16.224 -0.2528 -0.5505 -1.1998
 7010TIP3    H242446   6.402   6.198  16.332  1.1284  0.5697 -0.1140
 7011TIP3   OH242447   1.405   0.774   3.112 -0.0827  0.1605  0.2017
 7011TIP3    H142448   1.374   0.720   3.040 -1.1478  0.9958  0.0217
 7011TIP3    H242449   1.339   0.843   3.121  0.4994  0.5863  1.3802
 7012TIP3   OH242450   4.206   6.238  10.786 -0.3692  0.2317  0.0239
 7012TIP3    H142451   4.169   6.243  10.874 -0.2902  0.3218  0.0520
 7012TIP3    H242452   4.301   6.243  10.800 -0.3187 -0.5013 -0.0037
 7013TIP3   OH242453   2.938   2.933  15.829 -0.0326 -0.1739 -0.3633
 7013TIP3    H142454   2.959   3.024  15.851  0.0757 -0.1031 -0.7452
 7013TIP3    H242455   2.888   2.939  15.747 -0.1029 -0.4516 -0.3403
 7014TIP3   OH242456   5.491   5.200  11.673 -0.1660  0.4282 -0.0602
 7014TIP3    H142457   5.551   5.252  11.726  0.3924  1.4467 -1.6680
 7014TIP3    H242458   5.547   5.148  11.616 -0.7471 -1.1978  0.7975
 7015TIP3   OH242459   4.101   0.103  14.118  0.1150  0.2498  0.1697
 7015TIP3    H142460   4.035   0.092  14.187  0.1875  1.3303  0.4216
 7015TIP3    H242461   4.173   0.149  14.161  0.9341 -0.6805 -0.1747
 7016TIP3   OH242462   1.471   2.276   1.417  0.7405 -0.2917 -0.2740
 7016TIP3    H142463   1.477   2.256   1.324  0.3053 -1.0349 -0.1514
 7016TIP3    H242464   1.525   2.354   1.429  1.2230 -0.4983 -1.0595
 7017TIP3   OH242465   6.025   2.434  13.503 -0.4067  0.0050  0.1372
 7017TIP3    H142466   5.999   2.353  13.547  2.8691 -0.3461  1.5387
 7017TIP3    H242467   6.000   2.504  13.564 -0.1698 -0.1682  0.4310
 7018TIP3   OH242468   0.073   0.556   3.986 -0.1932  0.4588  0.2832
 7018TIP3    H142469   0.049   0.492   3.919 -2.4309  0.5368  0.9527
 7018TIP3    H242470   0.047   0.514   4.069 -1.4016  2.0630  0.7446
 7019TIP3   OH242471   3.443   1.045   2.613 -0.5416 -0.3414 -0.2327
 7019TIP3    H142472   3.492   1.046   2.695 -1.4255 -0.7148  0.2923
 7019TIP3    H242473   3.390   0.966   2.617 -1.1191  0.0134 -0.8530
 7020TIP3   OH242474   2.908   2.173   1.692  0.2566  0.4931  0.6002
 7020TIP3    H142475   2.873   2.161   1.603  0.0172  0.6847  0.6713
 7020TIP3    H242476   2.856   2.114   1.746  0.0099  0.8164  0.7142
 7021TIP3   OH242477   5.479   4.977  16.271 -0.4748  0.3394  0.4322
 7021TIP3    H142478   5.392   5.003  16.241 -0.3636  1.0538  0.7179
 7021TIP3    H242479   5.537   4.997  16.197 -0.7496 -1.5006 -0.3190
 7022TIP3   OH242480   4.068   2.301   0.843  0.3992 -0.0986 -0.2829
 7022TIP3    H142481   4.062   2.262   0.756  1.9310 -0.9394 -0.0247
 7022TIP3    H242482   4.153   2.272   0.877 -0.6549 -0.7117  1.9383
 7023TIP3   OH242483   4.719   2.494   4.769  0.0032  0.4605 -0.6533
 7023TIP3    H142484   4.807   2.500   4.805 -0.1887 -2.0288  0.3500
 7023TIP3    H242485   4.661   2.514   4.843 -0.3350 -2.1157 -0.1855
 7024TIP3   OH242486   2.989   1.520   2.162  0.3417 -0.3476 -0.7436
 7024TIP3    H142487   2.947   1.571   2.093 -0.5401  0.8621  0.6733
 7024TIP3    H242488   3.083   1.539   2.151  0.0235  1.5614 -0.2461
 7025TIP3   OH242489   0.380   2.890  12.798 -0.3375  0.3553  0.5753
 7025TIP3    H142490   0.385   2.852  12.711  0.6744  0.1694  0.7053
 7025TIP3    H242491   0.471   2.907  12.822 -0.5251 -0.5593  2.0154
 7026TIP3   OH242492   1.379   3.417  12.824 -0.6444 -0.1310  0.8847
 7026TIP3    H142493   1.409   3.508  12.825 -1.3348  0.1336 -0.5528
 7026TIP3    H242494   1.450   3.369  12.781 -1.2283  0.1111 -0.3832
 7027TIP3   OH242495   0.848   0.785  12.522  0.3841  0.0572 -0.0667
 7027TIP3    H142496   0.788   0.829  12.583  0.6475 -0.9318  0.9256
 7027TIP3    H242497   0.791   0.744  12.457  0.0753  0.7075 -0.2038
 7028TIP3   OH242498   3.803   1.113  12.414  0.5884  0.1332 -0.0956
 7028TIP3    H142499   3.777   1.023  12.393 -0.8255  1.2014 -3.0258
 7028TIP3    H242500   3.733   1.167  12.380  2.7112  2.5512 -0.7280
 7029TIP3   OH242501   1.313   6.703   2.017 -0.1409  0.0374  0.4391
 7029TIP3    H142502   1.296   6.761   1.943 -2.0889  1.3789  1.8870
 7029TIP3    H242503   1.370   6.754   2.075  3.5075 -1.9545 -1.2536
 7030TIP3   OH242504   3.978   0.206   1.219  0.2622  0.2223 -0.1451
 7030TIP3    H142505   3.891   0.242   1.206  0.6690  0.8951 -1.0906
 7030TIP3    H242506   4.020   0.267   1.280 -0.4036 -0.9031  1.4764
 7031TIP3   OH242507   1.054   5.129   3.808  0.0807 -0.1586 -0.4140
 7031TIP3    H142508   1.043   5.202   3.748  0.0198 -0.1463 -0.3876
 7031TIP3    H242509   1.128   5.155   3.863  0.4472 -0.3836 -0.7994
 7032TIP3   OH242510   5.548   3.850  15.415  0.1530 -0.2093  0.0858
 7032TIP3    H142511   5.637   3.878  15.436 -0.2206  0.4113  0.8135
 7032TIP3    H242512   5.560   3.776  15.354  1.1749 -0.6825  0.8575
 7033TIP3   OH242513   2.044   6.168   2.230 -0.0254  0.0948  0.5566
 7033TIP3    H142514   2.084   6.082   2.245  1.0118  0.6427  0.9731
 7033TIP3    H242515   2.038   6.207   2.318 -3.7421 -0.9586  0.8349
 7034TIP3   OH242516   2.101   4.627  13.561  0.2065 -1.0405 -0.3620
 7034TIP3    H142517   2.068   4.645  13.472 -0.1708 -0.3155 -0.0784
 7034TIP3    H242518   2.191   4.658  13.559  0.0298 -0.5258 -0.3308
 7035TIP3   OH242519   1.822   0.818  15.330 -0.4007 -0.1048  0.6641
 7035TIP3    H142520   1.834   0.867  15.411 -0.5795  0.3960  0.3872
 7035TIP3    H242521   1.773   0.877  15.273 -1.9897 -1.1676  0.8866
 7036TIP3   OH242522   4.524   2.861  12.144 -0.0939 -0.1966 -0.4104
 7036TIP3    H142523   4.585   2.789  12.130  1.9244  1.2518  0.6818
 7036TIP3    H242524   4.558   2.932  12.090  1.3163  1.7796  2.9372
 7037TIP3   OH242525   5.973   0.778  16.280  0.1057 -0.0972 -1.1685
 7037TIP3    H142526   5.940   0.718  16.346  0.6718  0.2686 -0.5449
 7037TIP3    H242527   5.999   0.722  16.207  0.8655 -0.6462 -0.4898
 7038TIP3   OH242528   3.968   6.060  11.555  0.0252  0.5464 -0.1195
 7038TIP3    H142529   4.053   6.102  11.564 -0.4714  1.4117  0.6973
 7038TIP3    H242530   3.942   6.039  11.644 -0.1785 -0.6041 -0.4501
 7039TIP3   OH242531   2.761   1.203  10.910  0.0211  0.2224 -0.1380
 7039TIP3    H142532   2.791   1.199  10.819  2.3110  1.1104  0.5307
 7039TIP3    H242533   2.706   1.281  10.914  1.4413  1.2429 -0.3426
 7040TIP3   OH242534   1.234   2.436   0.788  0.2950 -0.1440  0.3636
 7040TIP3    H142535   1.327   2.416   0.773  0.3190  0.7684 -0.7518
 7040TIP3    H242536   1.187   2.366   0.744  0.4439 -0.0010 -0.0280
 7041TIP3   OH242537   1.851   6.763  14.391 -0.3518 -0.1465 -0.4912
 7041TIP3    H142538   1.946   6.757  14.385 -0.3718  0.2955 -1.3183
 7041TIP3    H242539   1.820   6.736  14.304 -1.2417 -5.3884  1.2407
 7042TIP3   OH242540   3.498   1.315   4.179 -0.6319 -0.2223  0.0323
 7042TIP3    H142541   3.503   1.321   4.084  3.4354 -0.5934  0.1566
 7042TIP3    H242542   3.477   1.403   4.208 -1.4040 -0.0056 -1.1826
 7043TIP3   OH242543   0.132   5.808   0.632  0.0797 -0.4897 -0.1776
 7043TIP3    H142544   0.214   5.808   0.583  0.0823 -1.0134 -0.1744
 7043TIP3    H242545   0.159   5.797   0.723 -0.1522 -3.7488 -0.4579
 7044TIP3   OH242546   1.005   5.916   5.909  0.2143  0.3623 -0.0492
 7044TIP3    H142547   1.086   5.867   5.902  0.4196  0.8263 -1.1083
 7044TIP3    H242548   1.004   5.971   5.831 -1.7770 -0.6527 -0.7908
 7045TIP3   OH242549   6.132   6.013  13.137  0.4323  0.2958 -0.4881
 7045TIP3    H142550   6.145   6.002  13.042  2.2244  1.3407 -0.4010
 7045TIP3    H242551   6.101   6.103  13.146 -1.1654 -0.2835 -0.1907
 7046TIP3   OH242552   1.443   5.373  11.532  0.0043 -0.1071  0.1215
 7046TIP3    H142553   1.422   5.378  11.626 -0.7378 -1.0816  0.0169
 7046TIP3    H242554   1.386   5.304  11.499  1.8155 -1.2847 -0.6188
 7047TIP3   OH242555   0.553   5.275   4.068  0.8831  0.0948  0.4036
 7047TIP3    H142556   0.477   5.322   4.101  1.8515  0.0662  2.7969
 7047TIP3    H242557   0.550   5.190   4.111  2.4059  0.2005  0.7619
 7048TIP3   OH242558   6.519   6.405   1.095  0.6323 -0.1172  0.4216
 7048TIP3    H142559   6.482   6.434   1.178 -1.0436  1.0273 -0.6895
 7048TIP3    H242560   6.456   6.341   1.062  0.0030  1.2501 -1.1114
 7049TIP3   OH242561   1.286   5.014  12.858  0.4610 -0.6223 -0.3194
 7049TIP3    H142562   1.236   5.077  12.910 -1.7057 -0.7186 -2.2182
 7049TIP3    H242563   1.241   4.931  12.871  0.6798 -0.9002 -1.3262
 7050TIP3   OH242564   1.424   3.050   6.168 -0.4819 -0.1035 -0.9042
 7050TIP3    H142565   1.406   3.111   6.239  0.4163  0.6685 -1.3316
 7050TIP3    H242566   1.342   3.002   6.156 -1.3647  1.4032 -0.9371
 7051TIP3   OH242567   2.243   6.020   5.445 -0.6418  0.7851  0.1913
 7051TIP3    H142568   2.311   6.084   5.424 -0.7975  0.5525 -1.0655
 7051TIP3    H242569   2.228   6.031   5.539 -0.6656  2.6200  0.0048
 7052TIP3   OH242570   6.452   5.617   4.421 -0.1593  0.4759 -0.1750
 7052TIP3    H142571   6.419   5.529   4.402  1.1452 -0.3483  1.1478
 7052TIP3    H242572   6.413   5.639   4.506 -0.1881  1.0116 -0.3289
 7053TIP3   OH242573   4.850   0.702  12.961 -0.0963 -0.6846  0.4792
 7053TIP3    H142574   4.826   0.611  12.943  1.5100 -0.8747 -0.9527
 7053TIP3    H242575   4.838   0.746  12.877 -3.8722  1.1844  1.8976
 7054TIP3   OH242576   6.042   3.782   3.328  0.3161  0.0010 -0.1625
 7054TIP3    H142577   5.984   3.847   3.288 -1.1129 -1.3908 -0.4028
 7054TIP3    H242578   6.087   3.742   3.254 -0.5510 -0.9096 -0.2026
 7055TIP3   OH242579   4.127   4.685   2.270 -0.2233  0.2858  0.1577
 7055TIP3    H142580   4.086   4.601   2.290  1.0320 -1.3191 -3.6406
 7055TIP3    H242581   4.079   4.717   2.193 -0.7173  3.1183  1.5738
 7056TIP3   OH242582   0.399   1.050   0.723  0.2167 -0.1047 -0.3373
 7056TIP3    H142583   0.488   1.080   0.743  1.0199 -0.8645 -2.6001
 7056TIP3    H242584   0.390   0.968   0.772  0.7140  0.0432  0.0087
 7057TIP3   OH242585   0.860   6.352  15.110  0.0729  0.4596 -0.3177
 7057TIP3    H142586   0.781   6.371  15.161 -0.2347  0.8865 -0.9455
 7057TIP3    H242587   0.905   6.283  15.159  0.4560  1.7861  1.2378
 7058TIP3   OH242588   0.016   0.573  15.363 -0.1076  0.2915 -0.0192
 7058TIP3    H142589   0.055   0.580  15.275  0.5276  0.4764  0.2767
 7058TIP3    H242590  -0.052   0.640  15.364 -0.7864 -0.3705 -0.7160
 7059TIP3   OH242591   1.668   0.407   1.707  0.4352  0.1853 -0.0805
 7059TIP3    H142592   1.742   0.468   1.704 -0.0195  0.7105 -0.9550
 7059TIP3    H242593   1.670   0.365   1.621  1.7050 -2.1966  1.0778
 7060TIP3   OH242594   5.934   0.678  15.555 -0.4381 -0.2211 -0.6675
 7060TIP3    H142595   5.849   0.709  15.587 -0.0194 -1.2708  1.5127
 7060TIP3    H242596   5.935   0.585  15.574  1.3084 -0.1797 -0.4456
 7061TIP3   OH242597   5.523   0.902  11.292 -0.4703  0.0427  0.0515
 7061TIP3    H142598   5.613   0.934  11.285 -0.6181  0.1207 -1.7059
 7061TIP3    H242599   5.485   0.919  11.206 -2.3614  0.5704  0.9771
 7062TIP3   OH242600   0.157   3.262  16.961 -0.4926 -0.1438  0.9339
 7062TIP3    H142601   0.211   3.185  16.977 -0.0537 -0.0416 -0.0055
 7062TIP3    H242602   0.168   3.316  17.039  2.3609  0.8000 -0.0308
 7063TIP3   OH242603   4.656   3.963   0.641  0.3164 -0.6767 -0.1041
 7063TIP3    H142604   4.661   3.990   0.549 -1.2923 -1.0607 -0.3160
 7063TIP3    H242605   4.581   4.010   0.676 -0.1517 -1.8841  0.5519
 7064TIP3   OH242606   6.753   0.408   2.930 -0.4930 -0.0734 -0.0877
 7064TIP3    H142607   6.735   0.424   2.838  0.1072 -1.1984 -0.4188
 7064TIP3    H242608   6.667   0.405   2.972 -0.8110 -0.4944 -0.7713
 7065TIP3   OH242609   1.970   2.720   1.913  0.1191 -0.3678 -0.4734
 7065TIP3    H142610   1.935   2.807   1.935  0.0035 -0.5309  0.0003
 7065TIP3    H242611   2.046   2.710   1.970 -0.6973 -1.1555  0.4939
 7066TIP3   OH242612   4.524   0.629  12.983  0.1145 -0.0369 -0.3730
 7066TIP3    H142613   4.533   0.557  13.045 -2.2983  1.0118  1.2510
 7066TIP3    H242614   4.576   0.700  13.020 -1.9818  0.8534  0.8703
 7067TIP3   OH242615   2.739   5.350   4.896  0.4538  0.1436 -0.9180
 7067TIP3    H142616   2.766   5.387   4.812  1.8068 -0.9522 -0.9693
 7067TIP3    H242617   2.820   5.336   4.944 -0.2362 -0.2991  0.1343
 7068TIP3   OH242618   6.655   2.683  12.925 -0.6388  0.6792 -0.2286
 7068TIP3    H142619   6.733   2.666  12.977 -0.9275 -1.8752 -0.5400
 7068TIP3    H242620   6.688   2.708  12.839 -0.1762  1.9640  0.3157
 7069TIP3   OH242621   5.766   1.842  15.596 -0.3905 -0.5434 -0.5056
 7069TIP3    H142622   5.822   1.846  15.518 -0.4816 -1.2963 -0.6102
 7069TIP3    H242623   5.678   1.831  15.561 -0.2460 -2.6253 -0.2578
 7070TIP3   OH242624   3.710   0.211   1.140  0.1945  0.1757  0.3204
 7070TIP3    H142625   3.689   0.118   1.149  0.5338 -0.0631 -1.2248
 7070TIP3    H242626   3.660   0.240   1.064  1.9177  0.6701 -0.6456
 7071TIP3   OH242627   3.088   2.534  13.287  0.1558 -0.0226  0.1841
 7071TIP3    H142628   3.004   2.567  13.255  0.4418 -0.9437 -1.5633
 7071TIP3    H242629   3.091   2.562  13.379 -1.1727  1.7325 -0.2744
 7072TIP3   OH242630   3.090   6.759  16.860 -0.4704 -0.2581 -0.3459
 7072TIP3    H142631   3.063   6.807  16.782  0.3698  1.6513  0.4902
 7072TIP3    H242632   3.036   6.795  16.931  0.0641 -0.6513  0.2695
 7073TIP3   OH242633   1.167   5.061   0.231  0.5742  0.2656  0.4194
 7073TIP3    H142634   1.157   4.968   0.252 -1.3568  0.1750 -0.7671
 7073TIP3    H242635   1.146   5.066   0.138  0.3826  1.9461  0.5520
 7074TIP3   OH242636   0.110   2.765  16.118  0.3533  0.3428 -0.2829
 7074TIP3    H142637   0.016   2.785  16.117  0.4691  0.9393 -1.8016
 7074TIP3    H242638   0.134   2.763  16.210 -1.4152 -1.0505  0.1652
 7075TIP3   OH242639   4.565   5.456   5.838 -0.9958  0.0157  0.1039
 7075TIP3    H142640   4.470   5.455   5.842 -0.9660 -3.5686  2.1663
 7075TIP3    H242641   4.593   5.471   5.929  0.4242  0.9031 -0.4522
 7076TIP3   OH242642   2.963   6.775   1.839 -0.6274 -0.0165 -0.6862
 7076TIP3    H142643   2.918   6.850   1.878  1.2137  0.9046 -0.2764
 7076TIP3    H242644   2.941   6.780   1.746 -1.6742  0.1732 -0.4394
 7077TIP3   OH242645   2.745   5.603  17.215 -0.3616  0.3973  0.1980
 7077TIP3    H142646   2.676   5.536  17.211 -0.6505  0.7093 -0.1065
 7077TIP3    H242647   2.803   5.573  17.285 -0.9618  0.2773  0.6510
 7078TIP3   OH242648   6.009   1.335  11.314  0.8450 -0.0284  0.1747
 7078TIP3    H142649   6.076   1.289  11.264  0.9022  1.0436 -0.7517
 7078TIP3    H242650   5.986   1.410  11.260 -0.3213  0.2165  0.9873
 7079TIP3   OH242651   2.670   6.040   2.322 -0.0897 -0.1175  0.0118
 7079TIP3    H142652   2.673   6.073   2.232 -0.5898 -0.5108 -0.1520
 7079TIP3    H242653   2.691   6.116   2.376  0.3360  0.0941 -0.4391
 7080TIP3   OH242654   4.174   1.271   6.301 -0.2690  0.1658  0.1043
 7080TIP3    H142655   4.105   1.294   6.363 -0.3481  0.2446 -0.0134
 7080TIP3    H242656   4.134   1.206   6.243  0.4214 -1.4476  1.3925
 7081TIP3   OH242657   4.708   1.672   5.497 -0.4546 -0.4159  0.0830
 7081TIP3    H142658   4.706   1.620   5.577  0.6688 -0.6332 -0.0281
 7081TIP3    H242659   4.738   1.612   5.429  0.3272  0.2257 -0.1559
 7082TIP3   OH242660   1.176   1.412   3.653  0.1330 -0.2025 -0.1960
 7082TIP3    H142661   1.146   1.457   3.731 -1.0599 -1.0265 -0.1626
 7082TIP3    H242662   1.271   1.404   3.665  0.1499  0.9249  0.4890
 7083TIP3   OH242663   4.494   5.339   2.662 -0.5458  0.6548 -0.2663
 7083TIP3    H142664   4.519   5.270   2.600 -0.4892  1.0287 -0.6634
 7083TIP3    H242665   4.543   5.318   2.742  0.2413  0.7919 -0.7049
 7084TIP3   OH242666   3.368   4.528  14.159 -0.1583 -0.7153  0.1764
 7084TIP3    H142667   3.278   4.497  14.149 -0.0669 -0.9648  0.1288
 7084TIP3    H242668   3.360   4.623  14.167 -0.2973 -0.5851 -1.4426
 7085TIP3   OH242669   2.214   0.525  12.065  0.1304  0.8157  0.3690
 7085TIP3    H142670   2.277   0.533  12.137  0.0004 -0.1516  0.5993
 7085TIP3    H242671   2.132   0.560  12.101  0.0589  0.3060  0.6962
 7086TIP3   OH242672   0.964   0.641   6.027 -0.0442 -0.3545  0.7535
 7086TIP3    H142673   0.980   0.557   6.071  0.6785  0.0165  1.2102
 7086TIP3    H242674   0.934   0.616   5.939 -0.5058 -1.0909  1.1122
 7087TIP3   OH242675   2.770   4.284  12.341  0.3280 -0.4622 -0.3896
 7087TIP3    H142676   2.689   4.251  12.381  0.0288  0.0635 -0.5671
 7087TIP3    H242677   2.834   4.281  12.412 -0.5624  1.8393  0.5405
 7088TIP3   OH242678   2.802   6.406  15.035  0.1137 -0.5878 -0.2636
 7088TIP3    H142679   2.849   6.489  15.037  1.2298 -1.2057  0.1889
 7088TIP3    H242680   2.872   6.340  15.034 -0.7560 -1.5312  0.5477
 7089TIP3   OH242681   4.486   0.622   1.517  0.5620 -0.2638 -0.2707
 7089TIP3    H142682   4.434   0.683   1.570  0.5109  0.0424 -0.6714
 7089TIP3    H242683   4.554   0.677   1.477  0.4435 -0.4500 -0.7288
 7090TIP3   OH242684   3.534   0.616  12.753  0.1360 -0.1480  0.8191
 7090TIP3    H142685   3.453   0.621  12.805 -0.3032 -1.3523  0.2689
 7090TIP3    H242686   3.602   0.648  12.812 -0.6394  0.1917  1.5359
 7091TIP3   OH242687   5.653   0.459  14.632 -0.3325  0.8993 -0.2177
 7091TIP3    H142688   5.683   0.490  14.547  1.1069 -0.7668 -0.3569
 7091TIP3    H242689   5.712   0.386  14.653 -2.1289 -0.2120  1.1430
 7092TIP3   OH242690   5.538   0.695   0.820  0.2631 -0.5508  0.4910
 7092TIP3    H142691   5.606   0.652   0.872  0.4299  1.0986  1.7053
 7092TIP3    H242692   5.572   0.784   0.806  0.0575 -0.8596 -2.1730
 7093TIP3   OH242693   3.828   5.983  11.328  0.3160  0.9515  0.1980
 7093TIP3    H142694   3.878   6.020  11.401  4.6799  0.7519 -2.5622
 7093TIP3    H242695   3.809   5.893  11.355  1.1199  1.1356  1.4014
 7094TIP3   OH242696   2.694   5.908   5.069  0.2800  0.1417 -0.1900
 7094TIP3    H142697   2.667   5.939   5.155 -1.8921 -0.4271 -0.6235
 7094TIP3    H242698   2.744   5.980   5.032 -1.3126  1.5800  0.3870
 7095TIP3   OH242699   0.757   2.209   1.042  0.2827  0.3846 -0.1732
 7095TIP3    H142700   0.798   2.286   1.002 -0.1246  0.4758 -0.4197
 7095TIP3    H242701   0.807   2.195   1.123  0.4380  0.8317 -0.1882
 7096TIP3   OH242702   3.890   6.534  11.549 -0.4478 -0.1443 -0.4465
 7096TIP3    H142703   3.811   6.584  11.533  0.0223  0.8963  0.4371
 7096TIP3    H242704   3.952   6.597  11.586  0.3912 -1.2136  0.0045
 7097TIP3   OH242705   0.976   1.209   1.939  0.0557 -0.9290  0.0466
 7097TIP3    H142706   0.943   1.175   2.022  0.8342 -0.1559  0.6915
 7097TIP3    H242707   0.974   1.304   1.951  1.8306 -0.8482 -0.1468
 7098TIP3   OH242708   1.067   3.774   4.377 -0.4957 -0.4817  0.1361
 7098TIP3    H142709   1.048   3.682   4.393  1.4635 -1.2083 -1.3556
 7098TIP3    H242710   0.990   3.808   4.332 -0.5934 -1.8401 -0.7506
 7099TIP3   OH242711   3.900   1.430  14.464  0.2953  0.3455 -0.0972
 7099TIP3    H142712   3.936   1.369  14.400  1.1137  0.1456  0.5475
 7099TIP3    H242713   3.805   1.422  14.455  0.4073 -0.1779 -0.8049
 7100TIP3   OH242714   5.133   0.091   5.648  0.1786 -0.3101  0.2557
 7100TIP3    H142715   5.118  -0.003   5.642 -3.3292  0.2270 -0.3042
 7100TIP3    H242716   5.123   0.112   5.741  2.2098 -0.6195  0.5801
 7101TIP3   OH242717   2.511   4.008  10.906 -0.2388  0.1816  0.3170
 7101TIP3    H142718   2.487   4.004  10.814  1.5725  0.1708 -0.1927
 7101TIP3    H242719   2.437   4.050  10.949 -0.8375  0.7517 -1.2384
 7102TIP3   OH242720   0.973   2.995  11.834 -0.5765 -0.1384 -0.3530
 7102TIP3    H142721   0.935   3.045  11.761 -2.0504  0.1395  0.5795
 7102TIP3    H242722   0.980   2.906  11.801  1.1587  0.4581 -1.7031
 7103TIP3   OH242723   3.288   5.638   5.128  0.3938  0.5868 -0.2433
 7103TIP3    H142724   3.257   5.688   5.203  0.3039  0.8927 -0.4825
 7103TIP3    H242725   3.279   5.698   5.054 -1.2434 -0.3227 -0.8042
 7104TIP3   OH242726   1.482   3.451   4.597  0.6936 -1.0821  0.1803
 7104TIP3    H142727   1.502   3.491   4.512 -2.6492 -2.1091 -1.1829
 7104TIP3    H242728   1.493   3.357   4.581  0.8643 -1.2201  1.1327
 7105TIP3   OH242729   3.940   3.801  14.377 -0.0956 -0.5824 -0.1797
 7105TIP3    H142730   4.023   3.797  14.330 -0.8168  0.4777 -1.5559
 7105TIP3    H242731   3.958   3.854  14.454  0.7725 -1.2715  0.0957
 7106TIP3   OH242732   1.323   6.527  16.912 -0.8868  0.2910 -0.8601
 7106TIP3    H142733   1.268   6.451  16.893 -0.1784 -0.7970  1.2391
 7106TIP3    H242734   1.364   6.506  16.996  2.1350  1.3829 -1.9746
 7107TIP3   OH242735   5.663   1.540  12.977 -0.3923 -0.2057 -0.1474
 7107TIP3    H142736   5.619   1.535  13.062 -1.3018 -2.4641 -0.7304
 7107TIP3    H242737   5.690   1.450  12.958  2.2464  0.6972 -1.0052
 7108TIP3   OH242738   1.611   0.770   4.513 -0.1205  0.0146  0.4852
 7108TIP3    H142739   1.698   0.756   4.551  0.4437 -1.5457 -1.3143
 7108TIP3    H242740   1.627   0.804   4.426 -1.3429  0.6378  0.4929
 7109TIP3   OH242741   4.061   2.332  17.008  0.0229  0.4296 -0.4056
 7109TIP3    H142742   4.048   2.383  17.088  2.0586 -2.1978  1.6591
 7109TIP3    H242743   4.026   2.245  17.028  1.0282 -0.4174 -2.1927
 7110TIP3   OH242744   2.912   4.615  12.181  0.2201  0.4832  0.0048
 7110TIP3    H142745   2.951   4.539  12.138 -0.7165 -0.8765  1.4746
 7110TIP3    H242746   2.986   4.663  12.217  0.7508 -0.3527  0.0380
 7111TIP3   OH242747   3.079   2.356   1.543 -0.4636  0.0990 -0.4675
 7111TIP3    H142748   3.005   2.323   1.593  1.9947 -1.3702  2.3665
 7111TIP3    H242749   3.112   2.280   1.495  0.8191  0.1081  0.3802
 7112TIP3   OH242750   5.728   5.316  15.231 -0.0636  0.5942 -0.4491
 7112TIP3    H142751   5.648   5.291  15.185  0.1961  0.7101 -0.9721
 7112TIP3    H242752   5.726   5.412  15.234 -0.6008  0.5519  0.7219
 7113TIP3   OH242753   1.367   0.626   2.893  0.6950 -0.3630 -0.0105
 7113TIP3    H142754   1.273   0.640   2.880  0.9735  0.6233 -1.0589
 7113TIP3    H242755   1.379   0.532   2.884 -0.1010 -0.4202 -0.5325
 7114TIP3   OH242756   3.855   4.112   1.265 -0.1209 -0.5743 -0.5970
 7114TIP3    H142757   3.810   4.132   1.183  0.0955  0.3980 -0.4875
 7114TIP3    H242758   3.798   4.148   1.333 -0.1015 -1.0189 -0.3448
 7115TIP3   OH242759   6.219   0.865  16.040 -0.1344  1.0562  0.1908
 7115TIP3    H142760   6.171   0.900  15.965  0.5199  0.4755 -0.5169
 7115TIP3    H242761   6.213   0.770  16.030 -0.8324  0.9720  1.3936
 7116TIP3   OH242762   5.541   3.285  13.915 -0.2166 -0.0002  1.2152
 7116TIP3    H142763   5.633   3.261  13.912  0.1537  1.4502  0.3780
 7116TIP3    H242764   5.540   3.379  13.898 -2.0245 -0.4037 -1.1609
 7117TIP3   OH242765   2.265   4.444  13.282  0.1729  0.2386 -0.3656
 7117TIP3    H142766   2.350   4.441  13.327 -0.8366  0.2906  1.6305
 7117TIP3    H242767   2.269   4.522  13.227  0.5444  1.6093  1.5599
 7118TIP3   OH242768   0.425   3.022  14.840 -0.0087 -0.0174  0.3380
 7118TIP3    H142769   0.456   3.042  14.751 -2.0871  0.5743 -0.2981
 7118TIP3    H242770   0.449   2.931  14.854 -0.5744 -0.4475 -1.2826
 7119TIP3   OH242771   3.210   2.955   3.402  0.0831 -0.4131  0.0267
 7119TIP3    H142772   3.129   2.914   3.372 -1.1702  0.6534  1.8972
 7119TIP3    H242773   3.272   2.937   3.331 -2.3691  0.7668 -2.5472
 7120TIP3   OH242774   5.548   3.641  17.054 -0.1657 -0.5862  0.2646
 7120TIP3    H142775   5.490   3.717  17.046 -2.2651 -2.1660  0.0048
 7120TIP3    H242776   5.489   3.566  17.056  1.7927 -2.1474  1.8523
 7121TIP3   OH242777   1.220   3.598  12.523  0.2823  0.2126 -0.4069
 7121TIP3    H142778   1.265   3.673  12.483  0.8271  0.4974  0.7107
 7121TIP3    H242779   1.266   3.522  12.488  1.2622  0.4831  0.2515
 7122TIP3   OH242780   4.494   2.592   3.669 -0.3574  0.2159 -0.1104
 7122TIP3    H142781   4.530   2.510   3.702 -2.7886 -0.9083 -0.2141
 7122TIP3    H242782   4.435   2.621   3.738 -1.7066  0.3978 -1.3382
 7123TIP3   OH242783   2.427   0.993  16.329  0.2643 -0.2019 -0.0923
 7123TIP3    H142784   2.471   1.064  16.284  1.7118 -0.5571  0.7302
 7123TIP3    H242785   2.467   0.913  16.293  1.1118 -0.4994  1.4464
 7124TIP3   OH242786   6.407   0.691  17.066 -0.6679  0.1485  0.2100
 7124TIP3    H142787   6.476   0.635  17.100 -1.4789 -0.9026  0.1538
 7124TIP3    H242788   6.426   0.777  17.103  1.0596  0.0401 -0.3635
 7125TIP3   OH242789   0.979   1.747  14.072 -0.3348  0.0386  0.1163
 7125TIP3    H142790   0.961   1.794  14.154  0.3514 -1.6286  1.2469
 7125TIP3    H242791   0.918   1.673  14.072  0.2992 -0.4972 -0.4200
 7126TIP3   OH242792   1.184   1.585  13.818  0.2299  0.9250 -0.0612
 7126TIP3    H142793   1.150   1.649  13.755  0.6156  0.8601 -0.3361
 7126TIP3    H242794   1.211   1.511  13.764 -2.3340 -0.4253  0.4280
 7127TIP3   OH242795   1.010   1.469  14.921  0.7842  0.1520 -0.0292
 7127TIP3    H142796   1.034   1.516  15.001  1.1757 -3.3242  1.9858
 7127TIP3    H242797   1.074   1.498  14.856  2.1494  0.9962  1.6549
 7128TIP3   OH242798   0.975   0.402   2.218 -0.1589  0.0480 -0.4296
 7128TIP3    H142799   0.880   0.396   2.227  0.0209 -1.7081  0.4052
 7128TIP3    H242800   1.002   0.316   2.186  0.9004  1.3408 -3.2413
 7129TIP3   OH242801   3.670   0.741   2.662  0.0841  0.4875 -0.4198
 7129TIP3    H142802   3.685   0.772   2.572 -1.1435  0.4916 -0.6375
 7129TIP3    H242803   3.659   0.821   2.713  0.3561  0.4788 -0.3498
 7130TIP3   OH242804   1.816   5.536   2.968  0.2128  0.3058 -0.3200
 7130TIP3    H142805   1.723   5.521   2.951 -0.1129  1.4653  0.4063
 7130TIP3    H242806   1.824   5.530   3.064  1.0377 -0.6375 -0.4365
 7131TIP3   OH242807   5.821   1.505  11.599  0.3129  0.1497  0.1240
 7131TIP3    H142808   5.876   1.447  11.652  0.1504  1.0221  1.2599
 7131TIP3    H242809   5.766   1.551  11.662  0.7077  1.8340 -0.7195
 7132TIP3   OH242810   2.127   4.574   3.491  0.4716 -0.4385  0.0159
 7132TIP3    H142811   2.033   4.584   3.478  0.5502 -1.1393 -1.1891
 7132TIP3    H242812   2.166   4.635   3.428  0.8154  0.5465  1.1733
 7133TIP3   OH242813   5.612   4.126   5.260 -0.1041 -0.4477 -0.4931
 7133TIP3    H142814   5.625   4.196   5.325 -2.0405  0.8698 -1.4695
 7133TIP3    H242815   5.551   4.066   5.303  0.4523 -0.8102 -0.2028
 7134TIP3   OH242816   3.573   1.631  12.916 -0.3845 -0.5003 -0.4710
 7134TIP3    H142817   3.521   1.593  12.987  1.0732  0.3571  1.0711
 7134TIP3    H242818   3.548   1.724  12.915  1.5792  0.0655  0.7272
 7135TIP3   OH242819   2.182   6.349   4.621  0.2958 -0.5623  0.0981
 7135TIP3    H142820   2.268   6.308   4.630 -0.1488 -1.5137  0.1466
 7135TIP3    H242821   2.196   6.424   4.563  1.3374 -0.1371  0.8895
 7136TIP3   OH242822   2.692   6.405  15.612 -0.3228 -0.1183  0.5157
 7136TIP3    H142823   2.627   6.451  15.558 -0.0669 -1.5746 -1.0755
 7136TIP3    H242824   2.749   6.474  15.645 -0.5482  0.8067 -0.9891
 7137TIP3   OH242825   0.563   5.245   1.272 -0.5814 -0.6124 -0.8036
 7137TIP3    H142826   0.602   5.332   1.265 -0.1147 -0.7835 -0.3788
 7137TIP3    H242827   0.492   5.255   1.335 -0.6975 -0.4862 -0.9514
 7138TIP3   OH242828   1.505   0.516   4.524  0.2774 -0.4430  0.4880
 7138TIP3    H142829   1.576   0.462   4.559  0.5155  0.1936  0.9818
 7138TIP3    H242830   1.538   0.606   4.527  1.8351 -0.6303 -4.8748
 7139TIP3   OH242831   6.211   5.353   3.762 -0.0320 -0.0399  0.5764
 7139TIP3    H142832   6.171   5.305   3.834 -1.5121 -0.3922 -0.4640
 7139TIP3    H242833   6.296   5.311   3.749  0.0919 -0.2055  1.8581
 7140TIP3   OH242834   4.606   2.081   0.017 -0.2082 -0.0951  0.0031
 7140TIP3    H142835   4.544   2.010   0.000 -0.3732  0.0283  0.0942
 7140TIP3    H242836   4.565   2.134   0.084  0.8574 -1.0933  1.4704
 7141TIP3   OH242837   3.711   1.951   6.708 -0.1820  0.3915 -0.1345
 7141TIP3    H142838   3.624   1.915   6.723  0.8956 -1.4873  1.9722
 7141TIP3    H242839   3.742   1.905   6.630 -0.5673  0.0648 -0.1005
 7142TIP3   OH242840   4.820   3.024  16.654 -0.2188  0.2458  0.4949
 7142TIP3    H142841   4.775   3.108  16.664 -3.1726 -1.2678  0.3525
 7142TIP3    H242842   4.785   2.969  16.725 -0.5143 -1.7637 -1.1615
 7143TIP3   OH242843   5.794   1.336  14.405 -0.1989 -0.3505  0.1584
 7143TIP3    H142844   5.830   1.269  14.346  0.1731 -1.2123  1.3457
 7143TIP3    H242845   5.712   1.363  14.364 -0.8521 -2.2633  0.1714
 7144TIP3   OH242846   4.270   2.928   3.655  0.6670  0.0974 -0.0055
 7144TIP3    H142847   4.304   2.866   3.720  2.0503 -1.0135 -1.7300
 7144TIP3    H242848   4.340   2.936   3.590 -1.0721  0.3439 -1.9113
 7145TIP3   OH242849   5.222   3.258  11.586  0.1841 -0.2488 -0.8418
 7145TIP3    H142850   5.157   3.325  11.607 -0.0225 -0.7203  0.0427
 7145TIP3    H242851   5.306   3.301  11.599  0.0760 -0.6979  1.6125
 7146TIP3   OH242852   3.808   3.128   2.611 -0.2874 -0.2645  0.2824
 7146TIP3    H142853   3.879   3.144   2.674  0.8371  0.0011 -1.0376
 7146TIP3    H242854   3.762   3.212   2.605  0.0263 -0.0970  0.2299
 7147TIP3   OH242855   6.587   0.005  11.248  0.0911 -0.3959 -0.3068
 7147TIP3    H142856   6.554   0.094  11.260  0.0611 -0.6881  1.8629
 7147TIP3    H242857   6.604  -0.027  11.336 -0.9458 -2.9450 -0.9882
 7148TIP3   OH242858   4.415   1.504  13.938  0.0762  0.3116 -0.2534
 7148TIP3    H142859   4.426   1.576  14.000  1.1548 -0.7069  0.7504
 7148TIP3    H242860   4.361   1.441  13.984  0.5356 -0.2682 -0.5050
 7149TIP3   OH242861   0.699   5.318  12.179 -0.1915  0.0398  0.7653
 7149TIP3    H142862   0.686   5.313  12.273  0.6709  0.4005  0.9162
 7149TIP3    H242863   0.728   5.230  12.154  0.5235  0.1975  1.0042
 7150TIP3   OH242864   2.940   3.057   2.294 -0.0338  0.0836  0.0914
 7150TIP3    H142865   2.871   3.074   2.358  0.1736 -0.1413  0.3723
 7150TIP3    H242866   2.914   3.109   2.217 -1.6375 -1.6213 -0.5727
 7151TIP3   OH242867   0.121   1.858  16.799 -0.2285  0.4180 -0.4074
 7151TIP3    H142868   0.185   1.859  16.728  1.0132 -0.8251  0.6777
 7151TIP3    H242869   0.085   1.947  16.801  1.0937  0.9821 -1.3366
 7152TIP3   OH242870   1.267   3.355   2.139  0.6743  0.2343 -0.2841
 7152TIP3    H142871   1.237   3.394   2.057 -2.5269  0.7045  1.0141
 7152TIP3    H242872   1.294   3.267   2.115 -1.3897 -0.0518 -1.6740
 7153TIP3   OH242873   3.627   1.151   4.642 -0.0551  0.2896 -0.1907
 7153TIP3    H142874   3.605   1.071   4.594 -1.5097  1.1387 -0.9776
 7153TIP3    H242875   3.578   1.144   4.724 -0.3936  0.4921 -0.3743
 7154TIP3   OH242876   4.440   2.461  12.796 -0.6286  0.2648  0.0932
 7154TIP3    H142877   4.492   2.387  12.826 -0.9240  0.3485  0.8140
 7154TIP3    H242878   4.365   2.420  12.751 -1.1413  0.1112  1.0740
 7155TIP3   OH242879   4.844   5.505  16.299 -0.1604 -0.5822 -0.2949
 7155TIP3    H142880   4.925   5.544  16.268  0.0528 -1.4235 -0.8037
 7155TIP3    H242881   4.860   5.488  16.392  0.3806 -1.0987 -0.4839
 7156TIP3   OH242882   6.252   4.600  12.187 -0.3778 -0.1788 -0.2650
 7156TIP3    H142883   6.329   4.543  12.188  0.1507  0.5305 -0.5111
 7156TIP3    H242884   6.263   4.656  12.264 -1.5070 -1.2107  0.6620
 7157TIP3   OH242885   3.437   2.522  11.424 -0.2221  0.4828  0.8580
 7157TIP3    H142886   3.463   2.599  11.373  0.0531 -1.1982 -1.6465
 7157TIP3    H242887   3.342   2.531  11.433  0.1895  2.9730  3.8682
 7158TIP3   OH242888   1.701   4.499   4.684 -0.6287 -0.1418  0.4138
 7158TIP3    H142889   1.757   4.548   4.624 -1.9090  0.3197 -0.4399
 7158TIP3    H242890   1.718   4.407   4.664 -1.0239  0.0125 -0.6302
 7159TIP3   OH242891   2.740   4.116  14.824  0.9883  0.5302  0.2077
 7159TIP3    H142892   2.661   4.170  14.823  1.7660  1.6764 -0.6174
 7159TIP3    H242893   2.711   4.032  14.860 -1.2528 -0.0241 -2.6923
 7160TIP3   OH242894   1.087   2.834  13.408 -0.1520 -0.4979 -0.6835
 7160TIP3    H142895   1.013   2.871  13.359  0.1160  1.4270  0.3128
 7160TIP3    H242896   1.165   2.868  13.364  0.1325 -1.5051 -0.9673
 7161TIP3   OH242897   4.823   5.970   4.759 -0.2462  0.1464  0.3215
 7161TIP3    H142898   4.771   5.898   4.724 -1.5144  0.7936  0.8185
 7161TIP3    H242899   4.876   6.000   4.685 -1.4918  0.2711 -0.5350
 7162TIP3   OH242900   3.732   3.177   1.523  0.3496  0.2742 -0.0525
 7162TIP3    H142901   3.669   3.232   1.477  0.7853  0.7817 -0.0481
 7162TIP3    H242902   3.679   3.116   1.574 -0.1400 -0.0934 -0.9973
 7163TIP3   OH242903   3.497   1.324  12.789  0.1145 -0.3832  0.5810
 7163TIP3    H142904   3.430   1.378  12.747 -0.2884 -0.4166  1.1688
 7163TIP3    H242905   3.580   1.367  12.767 -0.1998  0.4541  0.9970
 7164TIP3   OH242906   6.657   4.218  16.554  0.0496  0.2310 -0.2820
 7164TIP3    H142907   6.677   4.124  16.552  2.2478  0.6100  1.5940
 7164TIP3    H242908   6.578   4.225  16.608  0.4470 -0.4636  0.3969
 7165TIP3   OH242909   1.546   5.845   2.427 -0.2652  0.6888  0.0578
 7165TIP3    H142910   1.590   5.810   2.504  0.8572 -1.0532 -1.3443
 7165TIP3    H242911   1.470   5.789   2.415 -0.6810  1.2279  0.1502
 7166TIP3   OH242912   5.699   1.272  12.916  0.5623 -1.3410  0.1781
 7166TIP3    H142913   5.690   1.302  12.825 -1.5713 -1.3863  0.3552
 7166TIP3    H242914   5.737   1.185  12.909 -1.0144 -1.9656 -0.7576
 7167TIP3   OH242915   0.127   6.763   5.252  0.0424 -0.0742 -1.1280
 7167TIP3    H142916   0.041   6.745   5.290 -0.2319 -1.8847 -2.5341
 7167TIP3    H242917   0.171   6.817   5.317 -2.0463  0.6119 -0.2484
 7168TIP3   OH242918   4.198   5.591  12.364  0.2842 -0.2806 -0.5153
 7168TIP3    H142919   4.267   5.543  12.318  0.5352 -1.2931  0.8761
 7168TIP3    H242920   4.241   5.627  12.441 -0.2040  1.1599 -0.8906
 7169TIP3   OH242921   0.708   5.362   2.350 -0.2022  0.8441 -0.4981
 7169TIP3    H142922   0.674   5.421   2.417 -1.4457 -1.3870  0.9114
 7169TIP3    H242923   0.630   5.321   2.313  0.6168  0.3397 -1.6871
 7170TIP3   OH242924   2.116   6.147  15.475 -0.0780  0.1129 -0.0344
 7170TIP3    H142925   2.191   6.191  15.434 -1.1464 -0.6096 -2.8840
 7170TIP3    H242926   2.155   6.089  15.540  1.7022  1.1230 -0.1441
 7171TIP3   OH242927   6.301   0.141  12.344 -0.2196  0.3913 -0.2590
 7171TIP3    H142928   6.376   0.184  12.384  0.8041  1.8265 -3.5040
 7171TIP3    H242929   6.230   0.205  12.352 -0.8440 -0.5180  1.8138
 7172TIP3   OH242930   2.216   3.013   1.093  0.0980 -0.1210  0.6821
 7172TIP3    H142931   2.192   2.931   1.135  0.6570 -2.5618 -3.5190
 7172TIP3    H242932   2.302   3.035   1.129  0.4112 -1.9377  1.0733
 7173TIP3   OH242933   0.301   2.850  13.909 -0.3264 -0.4007 -0.0309
 7173TIP3    H142934   0.389   2.822  13.885 -0.7913 -0.9766 -1.1290
 7173TIP3    H242935   0.308   2.945  13.922  0.5097 -0.4893  0.1692
 7174TIP3   OH242936   5.841   3.471  13.588  0.6834 -0.3735  0.2082
 7174TIP3    H142937   5.797   3.392  13.555 -0.0340  0.0676  0.1065
 7174TIP3    H242938   5.797   3.490  13.670  1.5396 -0.6607  0.7406
 7175TIP3   OH242939   1.369   2.043  16.323 -0.3644  0.0804 -0.0605
 7175TIP3    H142940   1.439   1.979  16.313  0.3988  0.8859  0.0688
 7175TIP3    H242941   1.401   2.104  16.389 -1.7684 -0.3182  1.0093
 7176TIP3   OH242942   3.478   4.120   1.706  0.3342  0.0716 -0.2810
 7176TIP3    H142943   3.526   4.069   1.641  0.8071 -0.1442  0.2391
 7176TIP3    H242944   3.478   4.209   1.672  0.1392 -0.1382 -0.8302
 7177TIP3   OH242945   3.208   2.874  16.882 -0.3372  0.3101  0.2857
 7177TIP3    H142946   3.182   2.810  16.816 -1.4527 -0.2643  1.2616
 7177TIP3    H242947   3.258   2.940  16.834 -0.5168 -0.4880 -0.9944
 7178TIP3   OH242948   3.948   4.504  13.201 -0.0460 -0.1865 -0.2272
 7178TIP3    H142949   3.915   4.561  13.132 -1.4719 -0.2488  0.3817
 7178TIP3    H242950   4.038   4.533  13.215 -0.6704  1.7537 -0.0968
 7179TIP3   OH242951   4.571   2.120  12.157 -0.3603  0.1261 -0.0004
 7179TIP3    H142952   4.653   2.115  12.205 -0.6640  1.0245  0.6167
 7179TIP3    H242953   4.519   2.184  12.205 -0.3824  1.6173 -1.9641
 7180TIP3   OH242954   0.929   3.724  15.797  1.0881  0.1987 -0.6557
 7180TIP3    H142955   0.963   3.786  15.862  1.0398  0.0161 -0.4568
 7180TIP3    H242956   0.869   3.668  15.846 -1.1270  1.8447 -1.4419
 7181TIP3   OH242957   6.546   3.762  13.062 -0.2385  0.2091  0.4049
 7181TIP3    H142958   6.497   3.685  13.031 -0.5334 -0.3330  2.1294
 7181TIP3    H242959   6.500   3.788  13.142  0.5979  1.4535  0.4914
 7182TIP3   OH242960   5.353   5.306   6.414 -0.0396 -0.1081 -0.4628
 7182TIP3    H142961   5.421   5.252   6.374  1.0414 -1.6997  3.2907
 7182TIP3    H242962   5.400   5.365   6.473 -1.6540  1.2751 -0.5108
 7183TIP3   OH242963   3.739   2.807   3.729 -0.5539  0.6496  0.6799
 7183TIP3    H142964   3.671   2.800   3.662 -0.3737  2.7702  0.2366
 7183TIP3    H242965   3.750   2.902   3.742  1.4898  0.3090  1.5770
 7184TIP3   OH242966   2.223   3.812   2.848  0.5490 -0.1408 -0.2702
 7184TIP3    H142967   2.168   3.741   2.880  0.3249 -1.1327 -2.7294
 7184TIP3    H242968   2.270   3.774   2.774  3.2862  1.1880  0.7095
 7185TIP3   OH242969   1.647   0.093  11.206 -0.1089  0.1776  0.1901
 7185TIP3    H142970   1.604   0.045  11.277  1.0270 -0.7884  0.2295
 7185TIP3    H242971   1.578   0.104  11.140 -0.0631 -2.6742 -0.3842
 7186TIP3   OH242972   6.337   5.260   1.457 -0.1417  0.0773 -0.3800
 7186TIP3    H142973   6.428   5.240   1.477 -0.7881 -1.1917  1.5006
 7186TIP3    H242974   6.303   5.181   1.415 -1.2904 -0.8893  2.2197
 7187TIP3   OH242975   5.628   1.968   4.173 -0.2405 -0.3355 -0.1535
 7187TIP3    H142976   5.680   1.929   4.102  0.2988 -1.3975  0.8100
 7187TIP3    H242977   5.538   1.956   4.145 -0.0217 -0.4055 -0.8423
 7188TIP3   OH242978   2.877   0.690   1.218 -0.4184 -0.4476 -0.1530
 7188TIP3    H142979   2.953   0.636   1.199  0.0425  0.5394 -1.1785
 7188TIP3    H242980   2.825   0.687   1.137 -0.7699  0.0119  0.0546
 7189TIP3   OH242981   0.643   2.053   3.444  0.1980  0.2555  0.3444
 7189TIP3    H142982   0.729   2.011   3.443  0.0804 -0.0559  1.6624
 7189TIP3    H242983   0.621   2.065   3.352  0.5211 -2.0090 -0.0534
 7190TIP3   OH242984   3.383   5.075   5.374  0.4279 -0.2486 -0.8130
 7190TIP3    H142985   3.443   5.085   5.448  0.4644 -0.3660 -0.8256
 7190TIP3    H242986   3.327   5.001   5.398 -0.7536  0.8667 -0.1138
 7191TIP3   OH242987   6.479   2.333  14.789 -0.5923  0.1501 -0.4502
 7191TIP3    H142988   6.533   2.255  14.780  0.7439  0.8166  1.4779
 7191TIP3    H242989   6.489   2.379  14.706  3.0110  0.9857  0.3721
 7192TIP3   OH242990   3.961   3.414   3.042  0.4476  0.8356  0.4736
 7192TIP3    H142991   3.900   3.371   2.983  0.2125  1.2747  0.3965
 7192TIP3    H242992   4.043   3.419   2.993  1.2196 -1.7819  1.3765
 7193TIP3   OH242993   4.598   4.140   3.506  0.6051 -0.1401  0.0873
 7193TIP3    H142994   4.686   4.111   3.529  0.3058 -1.5316 -0.4887
 7193TIP3    H242995   4.612   4.206   3.437  1.2279  0.2008  0.5349
 7194TIP3   OH242996   4.497   2.256   5.199  0.4720  0.0939 -0.4028
 7194TIP3    H142997   4.457   2.194   5.138  1.4991 -1.5001  0.5211
 7194TIP3    H242998   4.589   2.257   5.175  0.4401  1.4680 -0.5480
 7195TIP3   OH242999   2.980   0.716   6.416 -0.2892 -0.0519  0.4610
 7195TIP3    H143000   2.951   0.657   6.485 -1.9616  1.5550  1.1700
 7195TIP3    H243001   3.049   0.668   6.371  0.4656 -1.3378  2.9073
 7196TIP3   OH243002   3.948   1.930  11.983  0.3819  0.8794 -0.0697
 7196TIP3    H143003   3.937   1.838  12.008 -0.0389  1.1895  0.9287
 7196TIP3    H243004   4.031   1.932  11.936  0.2602 -0.0606 -0.3408
 7197TIP3   OH243005   1.431   1.943   5.645 -0.3982  0.2710 -0.2372
 7197TIP3    H143006   1.351   1.891   5.653  0.2584 -0.7614 -0.2527
 7197TIP3    H243007   1.453   1.967   5.735  0.1092 -0.7277 -0.0969
 7198TIP3   OH243008   0.102   2.283   5.166  0.4840  0.1932 -0.0021
 7198TIP3    H143009   0.158   2.216   5.125  0.2555 -0.0277  0.0473
 7198TIP3    H243010   0.130   2.284   5.257 -0.0926 -0.4335  0.1822
 7199TIP3   OH243011   0.144   6.730   5.736  0.1513  0.7033 -0.1897
 7199TIP3    H143012   0.133   6.801   5.673 -0.5144  0.6646 -0.1228
 7199TIP3    H243013   0.180   6.772   5.815  0.4699  0.8384 -0.4053
 7200TIP3   OH243014   6.494   5.930   5.366  0.1067  0.1277  0.3042
 7200TIP3    H143015   6.564   5.984   5.330  0.3598 -0.1134  0.4267
 7200TIP3    H243016   6.525   5.840   5.355 -0.5454 -0.0131 -0.3769
 7201TIP3   OH243017   5.602   5.099  12.897  0.2956  0.1600 -0.0897
 7201TIP3    H143018   5.659   5.162  12.941  0.1273  1.2862 -1.4511
 7201TIP3    H243019   5.620   5.112  12.804 -1.0202 -0.5886 -0.4540
 7202TIP3   OH243020   3.312   6.207  16.139  0.1669  0.5339  0.6260
 7202TIP3    H143021   3.226   6.237  16.111 -0.2774  1.0046  2.4122
 7202TIP3    H243022   3.323   6.121  16.099 -1.2685  0.3419  0.6240
 7203TIP3   OH243023   5.370   2.658  13.535  0.4310  0.4489 -0.0496
 7203TIP3    H143024   5.338   2.604  13.463  0.2141  2.1067 -1.2475
 7203TIP3    H243025   5.465   2.647  13.533  0.2889 -0.8721  0.5300
 7204TIP3   OH243026   2.000   4.861  12.538 -0.4224 -0.1252 -0.2893
 7204TIP3    H143027   1.923   4.887  12.488 -0.2737  0.6787 -0.1076
 7204TIP3    H243028   2.067   4.927  12.517 -0.1611 -0.1328  0.4654
 7205TIP3   OH243029   5.869   2.464  15.014 -0.1484 -0.0608  0.3255
 7205TIP3    H143030   5.774   2.472  15.021 -0.2905 -1.2894 -0.1215
 7205TIP3    H243031   5.901   2.553  15.026 -1.2481  0.1171  2.2010
 7206TIP3   OH243032   4.192   6.031   4.990 -0.2593 -0.0178  0.3170
 7206TIP3    H143033   4.160   6.048   5.079 -2.2096 -0.9049 -0.1881
 7206TIP3    H243034   4.135   6.082   4.934  1.8789  1.6722 -0.3634
 7207TIP3   OH243035   0.947   5.418  11.305 -0.3418 -0.3034 -0.3586
 7207TIP3    H143036   0.941   5.431  11.210 -1.6932  2.9892  0.0895
 7207TIP3    H243037   0.900   5.336  11.321 -1.5210 -0.0596 -2.3960
 7208TIP3   OH243038   0.367   2.438   4.558 -0.1333  0.3559  0.2402
 7208TIP3    H143039   0.290   2.418   4.505 -0.9319  1.6348  0.9130
 7208TIP3    H243040   0.363   2.376   4.630 -1.3080  1.3562  1.0378
 7209TIP3   OH243041   3.797   2.530   5.884  0.6230 -0.3383  0.1205
 7209TIP3    H143042   3.855   2.460   5.916  0.4201 -0.7120 -0.3340
 7209TIP3    H243043   3.817   2.604   5.941  1.8278 -0.3417 -0.2761
 7210TIP3   OH243044   5.088   2.803   0.387 -0.2740  0.3464  0.9906
 7210TIP3    H143045   5.120   2.716   0.411  0.2213 -0.1939 -1.5189
 7210TIP3    H243046   5.165   2.860   0.395 -0.0876  0.1525  0.5754
 7211TIP3   OH243047   0.369   4.595   4.600 -0.1675  0.2922 -0.1873
 7211TIP3    H143048   0.278   4.571   4.585 -1.2512  2.4671  2.4536
 7211TIP3    H243049   0.401   4.534   4.666 -0.0996  0.3421 -0.1723
 7212TIP3   OH243050   3.641   6.400  10.832 -0.0360 -0.3125 -0.5850
 7212TIP3    H143051   3.590   6.456  10.890 -1.1865 -0.2002 -1.6897
 7212TIP3    H243052   3.619   6.311  10.860  0.8282 -0.2539  0.3396
 7213TIP3   OH243053   1.876   3.434   3.806 -0.1382  0.0440  0.2115
 7213TIP3    H143054   1.911   3.506   3.753  1.3140 -0.0071  1.0581
 7213TIP3    H243055   1.884   3.464   3.896  2.4001 -1.9334  0.7021
 7214TIP3   OH243056   1.025   1.018  14.676 -0.4322  0.0338 -0.0628
 7214TIP3    H143057   1.107   1.061  14.700 -1.2493  0.7218  1.5350
 7214TIP3    H243058   1.052   0.930  14.648  0.8536  0.2791  0.3561
 7215TIP3   OH243059   2.262   2.333  14.637  0.2800  0.0308  0.6083
 7215TIP3    H143060   2.286   2.278  14.712 -0.6363 -1.1438  0.0606
 7215TIP3    H243061   2.335   2.322  14.576  1.2622  1.3775  1.5147
 7216TIP3   OH243062   4.127   0.344   2.749 -0.5427 -0.2368  0.2900
 7216TIP3    H143063   4.054   0.290   2.779 -2.6894  1.4401 -1.6910
 7216TIP3    H243064   4.097   0.434   2.763  1.5366  0.4744  0.2957
 7217TIP3   OH243065   6.014   4.604  13.166  0.4525  0.3107  0.2002
 7217TIP3    H143066   6.057   4.659  13.231  1.2932  0.4164 -0.4310
 7217TIP3    H243067   5.931   4.648  13.147  0.1418  0.2094  1.2839
 7218TIP3   OH243068   3.874   5.649   5.389  0.5086 -0.1693 -0.1652
 7218TIP3    H143069   3.851   5.652   5.296  0.8091 -1.2075 -0.2748
 7218TIP3    H243070   3.914   5.563   5.401  1.6751  0.4749  0.6484
 7219TIP3   OH243071   5.842   5.436  14.259 -0.1714  0.3004  0.1279
 7219TIP3    H143072   5.879   5.437  14.171 -2.2611  2.7256 -0.7952
 7219TIP3    H243073   5.747   5.441  14.244 -0.5595  0.3690  2.5192
 7220TIP3   OH243074   5.250   1.477   4.147 -0.0059  0.1484 -0.7763
 7220TIP3    H143075   5.249   1.544   4.216  1.3432 -0.0846 -0.5037
 7220TIP3    H243076   5.158   1.456   4.132 -0.3086 -0.3534  1.5038
 7221TIP3   OH243077   0.740   4.476  11.316 -0.5291  0.2717  0.0746
 7221TIP3    H143078   0.832   4.478  11.288 -0.9161  2.1773 -1.1758
 7221TIP3    H243079   0.744   4.472  11.412  0.8484 -0.3753  0.0048
 7222TIP3   OH243080   6.150   2.779   0.861 -0.3002  0.5404  0.1869
 7222TIP3    H143081   6.230   2.822   0.893  1.0620  0.6876 -3.1707
 7222TIP3    H243082   6.081   2.842   0.876  0.7268  1.6118  0.4905
 7223TIP3   OH243083   1.064   2.749   6.250 -0.4121  0.0799 -0.0122
 7223TIP3    H143084   0.996   2.803   6.292 -1.9096 -1.0793 -0.8800
 7223TIP3    H243085   1.081   2.680   6.314 -1.2147 -0.5211 -0.4294
 7224TIP3   OH243086   3.733   5.510   3.752 -0.0788  0.3195  0.0622
 7224TIP3    H143087   3.678   5.433   3.762  2.7724 -1.6396  1.2621
 7224TIP3    H243088   3.788   5.490   3.675  1.2989  0.7220  0.9239
 7225TIP3   OH243089   4.565   5.261  16.747  0.2211  0.6481  0.1129
 7225TIP3    H143090   4.522   5.320  16.809 -1.7432  1.4067 -1.9190
 7225TIP3    H243091   4.555   5.304  16.662  3.0481 -0.2715 -0.7519
 7226TIP3   OH243092   3.594   2.071   4.905 -0.1976 -0.3830 -0.3228
 7226TIP3    H143093   3.653   2.142   4.879 -1.3376  0.6335 -0.1855
 7226TIP3    H243094   3.648   1.992   4.900  1.2862  0.5674  0.1686
 7227TIP3   OH243095   2.210   0.054   4.973  0.1609 -0.0380 -0.0248
 7227TIP3    H143096   2.237   0.030   4.885 -0.2777 -1.5984  0.2608
 7227TIP3    H243097   2.282   0.024   5.029 -0.7835 -1.5109  0.4216
 7228TIP3   OH243098   2.050   1.508  15.682 -0.6073  0.0771  0.3056
 7228TIP3    H143099   2.041   1.483  15.774  0.5275  1.6968  0.8679
 7228TIP3    H243100   2.098   1.590  15.684 -0.7985  0.2553 -1.7354
 7229TIP3   OH243101   5.259   2.073  14.316  0.6394 -0.1102  0.2120
 7229TIP3    H143102   5.239   2.161  14.348 -0.3071 -1.1391  2.5956
 7229TIP3    H243103   5.353   2.074  14.299  0.8005  1.0909  1.1186
 7230TIP3   OH243104   4.765   2.001  15.633  0.3048  0.0101 -0.2907
 7230TIP3    H143105   4.681   1.970  15.598  0.6459 -1.3199  0.0613
 7230TIP3    H243106   4.740   2.061  15.704 -0.3360 -0.4555 -0.1174
 7231TIP3   OH243107   5.132   4.922   4.757 -0.0049 -0.3553 -0.0874
 7231TIP3    H143108   5.190   4.846   4.759  1.1957  0.5409 -0.2049
 7231TIP3    H243109   5.046   4.886   4.736  0.7504 -1.5743 -1.2029
 7232TIP3   OH243110   4.281   0.992   3.794 -0.6607  0.2759 -0.1824
 7232TIP3    H143111   4.233   1.067   3.759 -1.5153 -0.4610 -0.6289
 7232TIP3    H243112   4.215   0.942   3.842 -0.2033 -0.4318 -0.2860
 7233TIP3   OH243113   1.893   5.328   5.377 -0.0245 -0.3889  0.5634
 7233TIP3    H143114   1.891   5.250   5.322 -1.4432 -0.2168  0.3618
 7233TIP3    H243115   1.986   5.343   5.394  0.3628 -1.0149 -0.9645
 7234TIP3   OH243116   0.854   1.480   5.211  0.0968 -0.2102 -0.1062
 7234TIP3    H143117   0.942   1.449   5.232  0.6375  0.3310 -1.5198
 7234TIP3    H243118   0.827   1.426   5.137  0.2596  1.3149 -1.3098
 7235TIP3   OH243119   2.400   3.327   2.273  0.0693  0.5084  0.3280
 7235TIP3    H143120   2.447   3.283   2.344  0.3698 -0.9464 -0.7432
 7235TIP3    H243121   2.371   3.410   2.311 -0.3988 -0.5545  2.3777
 7236TIP3   OH243122   0.843   1.519  14.095 -0.6505  0.2631  0.1686
 7236TIP3    H143123   0.856   1.464  14.171  1.5126 -0.4816 -0.7170
 7236TIP3    H243124   0.800   1.462  14.031  1.6152 -0.4571 -0.7592
 7237TIP3   OH243125   0.438   2.388   4.888  0.3106  0.0679 -0.3307
 7237TIP3    H143126   0.492   2.358   4.961  0.4714 -0.1458 -0.5385
 7237TIP3    H243127   0.395   2.309   4.856  1.5409 -0.1223 -1.5450
 7238TIP3   OH243128   1.494   4.795   2.246 -0.3577 -0.0281  0.2792
 7238TIP3    H143129   1.443   4.713   2.242 -1.4982  0.7410 -1.9624
 7238TIP3    H243130   1.527   4.806   2.157  0.1751  1.7166  0.6914
 7239TIP3   OH243131   6.203   1.792  13.543 -0.3199 -0.4640 -0.6666
 7239TIP3    H143132   6.211   1.696  13.543 -2.1525 -0.6492 -1.4194
 7239TIP3    H243133   6.204   1.815  13.636 -2.1998 -1.4809 -0.3513
 7240TIP3   OH243134   6.496   5.145  15.712 -0.3394 -0.3398 -0.0412
 7240TIP3    H143135   6.458   5.145  15.800  0.6319  0.4957  0.3798
 7240TIP3    H243136   6.435   5.199  15.660 -0.0964  0.4393  0.4775
 7241TIP3   OH243137   2.047   1.326  14.962 -0.7142 -0.7562 -0.0069
 7241TIP3    H143138   2.041   1.309  14.868 -1.2997  3.2982 -0.7823
 7241TIP3    H243139   2.141   1.329  14.980 -0.5560  1.4489 -1.0888
 7242TIP3   OH243140   2.240   1.066   2.321 -0.3559  0.0979 -0.0164
 7242TIP3    H143141   2.332   1.056   2.297  0.0704 -0.0395  1.6075
 7242TIP3    H243142   2.220   0.991   2.377 -1.8093 -0.5298 -1.3302
 7243TIP3   OH243143   3.616   3.424   2.285 -0.6880  0.2749 -0.1581
 7243TIP3    H143144   3.582   3.465   2.205  2.9628  1.9887 -0.8921
 7243TIP3    H243145   3.689   3.371   2.255 -1.7087 -2.2113  1.6023
 7244TIP3   OH243146   2.404   0.938  13.043  0.3941 -0.1146 -0.0471
 7244TIP3    H143147   2.483   0.945  13.097  0.3228  1.7039 -0.1250
 7244TIP3    H243148   2.433   0.962  12.955  0.2231 -1.7295 -0.5594
 7245TIP3   OH243149   4.359   3.638   4.447 -0.1620  0.1077  0.0597
 7245TIP3    H143150   4.409   3.638   4.528 -0.6495  1.3719  0.3826
 7245TIP3    H243151   4.410   3.693   4.387  0.3302 -1.0300 -0.5951
 7246TIP3   OH243152   6.108   4.782  15.785  0.3558  0.2415 -0.7013
 7246TIP3    H143153   6.126   4.727  15.709 -0.0072  1.2405 -1.5055
 7246TIP3    H243154   6.155   4.863  15.769  0.5424  0.3427  0.2968
 7247TIP3   OH243155   0.039   4.436  13.921  0.6011  0.1488  0.0445
 7247TIP3    H143156   0.036   4.525  13.954  1.4747  0.2256 -0.0726
 7247TIP3    H243157   0.070   4.383  13.994  0.0226 -0.0720  0.1344
 7248TIP3   OH243158   4.051   0.266   6.803 -0.0129  0.1250  0.5262
 7248TIP3    H143159   4.134   0.246   6.761  0.3502  2.5947 -0.0088
 7248TIP3    H243160   3.993   0.195   6.776  1.6410 -1.0663  0.0657
 7249TIP3   OH243161   6.210   4.054  15.546  0.3951  0.0020  0.0702
 7249TIP3    H143162   6.243   4.132  15.592 -0.5552  1.2807 -1.3500
 7249TIP3    H243163   6.260   4.052  15.464  0.5659 -1.0088  0.1994
 7250TIP3   OH243164   3.556   1.116   3.427  0.3808  0.3550  0.5683
 7250TIP3    H143165   3.523   1.052   3.490  1.7419 -0.8829  0.0597
 7250TIP3    H243166   3.487   1.123   3.361  0.1859 -0.5539  0.6672
 7251TIP3   OH243167   6.381   2.615   0.326  0.4965 -0.1857  0.1226
 7251TIP3    H143168   6.323   2.551   0.367  0.1804  0.3661  0.5497
 7251TIP3    H243169   6.463   2.608   0.375  0.9264 -1.2649 -0.7597
 7252TIP3   OH243170   6.153   3.533   0.371 -0.0924  0.2225  0.0688
 7252TIP3    H143171   6.145   3.551   0.465  1.1385  1.8547 -0.1361
 7252TIP3    H243172   6.232   3.578   0.344 -1.9027  2.1121 -2.3341
 7253TIP3   OH243173   3.289   5.695  14.671 -0.0843 -0.7549  0.1518
 7253TIP3    H143174   3.352   5.623  14.666  0.7145  0.0004 -1.2812
 7253TIP3    H243175   3.219   5.670  14.611  0.3277 -0.2238 -0.5580
 7254TIP3   OH243176   3.894   0.747  14.757 -0.3542 -0.1804  0.0259
 7254TIP3    H143177   3.890   0.690  14.834 -1.6329 -0.0160  0.0926
 7254TIP3    H243178   3.980   0.730  14.719 -1.0788 -2.8534 -0.5046
 7255TIP3   OH243179   0.077   1.906  11.534 -0.0358  0.5194  0.1672
 7255TIP3    H143180   0.007   1.955  11.491 -0.5219 -0.3823 -0.0813
 7255TIP3    H243181   0.065   1.924  11.627  0.9869  2.4282 -0.0517
 7256TIP3   OH243182   1.832   5.778  15.289  0.1015 -0.5051  0.3213
 7256TIP3    H143183   1.868   5.720  15.357  0.2545  0.8239  1.3823
 7256TIP3    H243184   1.881   5.755  15.210  2.4297  0.4277  1.4677
 7257TIP3   OH243185   1.556   1.706  15.084 -0.2296  0.1315  0.4446
 7257TIP3    H143186   1.579   1.638  15.148 -1.5515 -0.0614  0.7224
 7257TIP3    H243187   1.564   1.788  15.133  1.5550  0.2159  0.0571
 7258TIP3   OH243188   2.387   5.001  12.993  0.0458  0.4281 -0.3657
 7258TIP3    H143189   2.431   4.917  12.982  0.7704  0.7470  0.0649
 7258TIP3    H243190   2.407   5.026  13.083  0.1567  1.2572 -0.6224
 7259TIP3   OH243191   2.167   5.537   2.812 -0.6926 -0.0077 -0.1449
 7259TIP3    H143192   2.097   5.533   2.746 -0.4882 -0.0735 -0.3567
 7259TIP3    H243193   2.219   5.458   2.796 -0.4921  0.1114 -0.0707
 7260TIP3   OH243194   6.126   0.741   3.775  0.2047  0.4414 -0.5335
 7260TIP3    H143195   6.200   0.781   3.730 -0.3181  0.9082 -0.9803
 7260TIP3    H243196   6.154   0.650   3.790  1.5737  1.0777  0.9066
 7261TIP3   OH243197   0.583   4.849  10.986 -0.0118 -0.4350  0.0993
 7261TIP3    H143198   0.591   4.867  10.892  0.0829 -1.8237 -0.1815
 7261TIP3    H243199   0.490   4.830  10.999 -0.1462  0.4251  0.4191
 7262TIP3   OH243200   2.011   6.694   0.958  0.6073  0.0754  0.1265
 7262TIP3    H143201   2.005   6.760   1.027 -3.0362  2.0657 -1.9655
 7262TIP3    H243202   1.975   6.615   0.998 -2.2251  1.4141  0.3578
 7263TIP3   OH243203   4.733   1.813   1.758  0.1784 -0.1602 -0.0541
 7263TIP3    H143204   4.686   1.895   1.771  0.8326  0.4480 -1.4439
 7263TIP3    H243205   4.693   1.752   1.821 -1.2404  0.8321  0.0186
 7264TIP3   OH243206   6.359   5.755  13.713  0.4476  0.2551 -0.0879
 7264TIP3    H143207   6.361   5.846  13.741 -0.4927  0.3838 -0.3940
 7264TIP3    H243208   6.275   5.722  13.746  1.6242 -1.0511  1.6898
 7265TIP3   OH243209   5.972   6.256   6.675  0.2103 -0.3543  0.1557
 7265TIP3    H143210   5.981   6.297   6.590  0.4989 -1.6343 -0.4512
 7265TIP3    H243211   6.043   6.292   6.727 -0.1347  0.6385 -0.0604
 7266TIP3   OH243212   4.763   0.422  12.925  0.9225  0.2237 -0.6317
 7266TIP3    H143213   4.672   0.393  12.928  0.5003  1.6410  1.3524
 7266TIP3    H243214   4.801   0.375  12.850 -0.9036 -1.8354 -0.3113
 7267TIP3   OH243215   4.661   6.595  15.874 -0.1185  0.3497 -0.1564
 7267TIP3    H143216   4.736   6.654  15.880  0.9427 -0.8822 -1.0686
 7267TIP3    H243217   4.645   6.587  15.780 -1.0710  0.2015  0.0183
 7268TIP3   OH243218   4.593   1.301   0.303  0.7290  0.2011  0.3024
 7268TIP3    H143219   4.672   1.328   0.349 -0.1307 -0.4621  2.2119
 7268TIP3    H243220   4.596   1.205   0.303  1.5587  0.1663 -2.5631
 7269TIP3   OH243221   5.496   6.035   4.970  0.1381 -0.5483  0.3828
 7269TIP3    H143222   5.412   6.080   4.973  0.9791  1.0967 -0.3479
 7269TIP3    H243223   5.496   5.989   4.886  0.4185  0.3785 -0.1355
 7270TIP3   OH243224   4.098   1.507   5.337  0.0845 -0.7187  0.4396
 7270TIP3    H143225   4.119   1.598   5.320  1.1814 -0.8927  0.7996
 7270TIP3    H243226   4.005   1.498   5.314  0.5475 -0.0727 -1.7745
 7271TIP3   OH243227   4.499   3.906  15.629  0.1993  0.5747 -0.2268
 7271TIP3    H143228   4.424   3.863  15.671 -0.5114  0.8135 -1.2261
 7271TIP3    H243229   4.496   3.996  15.661 -0.0968  0.6505 -0.4672
 7272TIP3   OH243230   6.071   1.422  14.061  0.0315  0.0311  0.6936
 7272TIP3    H143231   6.124   1.487  14.014 -1.5158  0.9424  0.1781
 7272TIP3    H243232   6.121   1.403  14.140 -0.0154  2.6875  1.4005
 7273TIP3   OH243233   1.924   5.306   1.783  0.4309 -0.0036  0.4874
 7273TIP3    H143234   1.955   5.249   1.854 -0.2235  0.8071  1.4276
 7273TIP3    H243235   1.981   5.382   1.787  1.1384 -0.4597 -0.6113
 7274TIP3   OH243236   5.816   6.706   2.935  0.2326  0.2384  0.1322
 7274TIP3    H143237   5.902   6.747   2.927  0.0912  1.0985  2.6323
 7274TIP3    H243238   5.758   6.778   2.959 -0.6963 -0.8194  1.0531
 7275TIP3   OH243239   4.829   5.973   2.298  0.2374 -0.0774  0.3071
 7275TIP3    H143240   4.751   5.926   2.270 -0.6821  0.9549  1.0714
 7275TIP3    H243241   4.891   5.905   2.324 -0.2194 -0.9172 -0.7922
 7276TIP3   OH243242   1.722   4.158   4.664  0.3013  0.1863  0.0408
 7276TIP3    H143243   1.659   4.093   4.694  1.5194 -0.3778  1.4397
 7276TIP3    H243244   1.808   4.119   4.682  1.0667  2.4269  1.5314
 7277TIP3   OH243245   5.218   6.147   4.417  0.5457 -0.1711 -0.4420
 7277TIP3    H143246   5.307   6.181   4.407  0.6606 -0.2478  0.3134
 7277TIP3    H243247   5.172   6.178   4.339  1.2808 -0.2807 -0.9197
 7278TIP3   OH243248   4.609   5.220  12.980 -0.0548  0.3960 -0.0253
 7278TIP3    H143249   4.605   5.300  13.032 -1.9142 -1.2427  2.4559
 7278TIP3    H243250   4.518   5.192  12.971  0.6696 -2.5854  1.0608
 7279TIP3   OH243251   6.021   3.466   3.013 -0.0867  0.2327  0.0895
 7279TIP3    H143252   6.008   3.384   3.060  0.0465  1.4384  2.3101
 7279TIP3    H243253   5.935   3.508   3.012 -0.2678 -0.1243 -1.4787
 7280TIP3   OH243254   4.181   5.836   4.133 -0.0918 -0.5562  0.0086
 7280TIP3    H143255   4.120   5.885   4.188 -1.4914 -0.6421 -1.4530
 7280TIP3    H243256   4.134   5.756   4.111  1.6390 -1.9468  1.2056
 7281TIP3   OH243257   1.256   2.023   1.523  0.1904  0.0810 -0.2848
 7281TIP3    H143258   1.221   2.045   1.437  1.3872 -1.2281 -1.1048
 7281TIP3    H243259   1.187   1.971   1.564  0.5843 -1.2809 -1.3524
 7282TIP3   OH243260   0.378   0.784   1.974 -0.2480 -0.0533  0.0885
 7282TIP3    H143261   0.443   0.714   1.965 -1.3893 -0.8543 -2.3266
 7282TIP3    H243262   0.297   0.747   1.939 -1.5247  1.6103  1.1998
 7283TIP3   OH243263   4.792   2.551   1.566  0.0523 -0.0336 -0.3473
 7283TIP3    H143264   4.700   2.524   1.561  0.4993 -1.8043  0.4927
 7283TIP3    H243265   4.810   2.590   1.481 -1.5376  0.5435 -0.4401
 7284TIP3   OH243266   5.975   1.450   0.186  0.2899 -0.6720 -0.5439
 7284TIP3    H143267   5.983   1.449   0.281  1.8312  1.3146 -0.6078
 7284TIP3    H243268   5.882   1.441   0.169 -0.1095  0.0125  1.1985
 7285TIP3   OH243269   4.283   5.228   5.097 -0.2584  0.5241  0.3350
 7285TIP3    H143270   4.209   5.228   5.035 -0.0317  0.8240  0.0601
 7285TIP3    H243271   4.358   5.201   5.044 -0.3202 -0.5676  0.8049
 7286TIP3   OH243272   5.006   4.013   4.962 -0.1488 -0.5231  0.2292
 7286TIP3    H143273   4.998   4.103   4.930 -1.9601 -1.3394 -1.7313
 7286TIP3    H243274   5.092   3.984   4.934 -0.6208 -0.2800 -1.5154
 7287TIP3   OH243275   1.395   4.759   5.060  0.4782 -0.5921  0.1815
 7287TIP3    H143276   1.318   4.712   5.092 -0.1841  0.5194  0.2218
 7287TIP3    H243277   1.441   4.786   5.140  0.9150 -1.2335  0.1580
 7288TIP3   OH243278   4.092   4.494  16.250  0.0409 -0.0211  0.4253
 7288TIP3    H143279   4.065   4.406  16.277 -0.9743 -0.2029 -1.1043
 7288TIP3    H243280   4.062   4.501  16.159  2.0999  1.0678 -0.2104
 7289TIP3   OH243281   3.949   0.013   4.615  0.2175  0.0306  0.0924
 7289TIP3    H143282   4.044   0.014   4.604  0.0622 -0.9037 -1.3553
 7289TIP3    H243283   3.935   0.050   4.703  1.9384 -0.4502  0.5840
 7290TIP3   OH243284   1.887   0.153  16.646 -0.0334 -0.1842 -0.1521
 7290TIP3    H143285   1.837   0.153  16.727  1.0654  1.0845  0.5477
 7290TIP3    H243286   1.910   0.061  16.632  0.1906 -0.3492  1.2418
 7291TIP3   OH243287   5.974   4.150   5.285  0.6495  0.1761  0.4415
 7291TIP3    H143288   6.024   4.094   5.344  2.9313  1.2950 -0.4020
 7291TIP3    H243289   5.918   4.203   5.343  1.7256  0.1497  1.5043
 7292TIP3   OH243290   1.476   4.352  16.077  0.5524  0.2068  0.4492
 7292TIP3    H143291   1.432   4.397  16.004  0.1105 -2.2238 -0.8220
 7292TIP3    H243292   1.475   4.416  16.148  0.4597  2.4258 -1.4781
 7293TIP3   OH243293   3.416   6.242  13.105 -0.5623  0.1717  0.3643
 7293TIP3    H143294   3.367   6.293  13.040 -1.3311 -0.0817  0.7384
 7293TIP3    H243295   3.451   6.308  13.165 -2.8012  0.2009  1.7086
 7294TIP3   OH243296   3.553   5.586  16.580  0.2952  0.1528  0.0017
 7294TIP3    H143297   3.571   5.550  16.494 -0.0163  0.0711 -0.0269
 7294TIP3    H243298   3.629   5.562  16.633  0.5549  0.3311 -0.2848
 7295TIP3   OH243299   2.478   3.287   3.030 -0.2626 -0.2126 -0.3147
 7295TIP3    H143300   2.450   3.220   3.093  0.7477  0.0359  0.4102
 7295TIP3    H243301   2.447   3.369   3.067  2.0865  0.1589  0.9213
 7296TIP3   OH243302   1.606   4.316   4.922 -0.0449 -0.1506  0.0517
 7296TIP3    H143303   1.523   4.270   4.939  0.0258 -0.7491 -1.1535
 7296TIP3    H243304   1.621   4.303   4.829  1.0171  0.6264  0.1124
 7297TIP3   OH243305   0.873   2.554   5.091 -0.4597  0.1528  0.3435
 7297TIP3    H143306   0.939   2.487   5.109  0.7569  1.6887  1.6824
 7297TIP3    H243307   0.913   2.608   5.022 -0.6650  0.5968  0.5742
 7298TIP3   OH243308   2.867   0.379  17.135 -0.5869 -0.3633  0.2734
 7298TIP3    H143309   2.803   0.416  17.196  0.7108 -0.1850  1.5788
 7298TIP3    H243310   2.838   0.408  17.049 -0.8401  1.9169  1.0718
 7299TIP3   OH243311   3.187   1.587   5.309  0.4277  0.2125 -0.1240
 7299TIP3    H143312   3.117   1.548   5.361  1.5300 -1.0268  0.4504
 7299TIP3    H243313   3.155   1.582   5.219 -1.2153  1.7861  0.3356
 7300TIP3   OH243314   2.421   0.142   1.975  0.3890  0.1008 -0.3521
 7300TIP3    H143315   2.402   0.057   2.014 -0.2449  0.6079  0.4880
 7300TIP3    H243316   2.424   0.202   2.050  1.0343  0.7809 -0.9082
 7301TIP3   OH243317   0.972   5.630   2.245  0.0530  0.1915 -0.4749
 7301TIP3    H143318   1.024   5.554   2.218 -1.9807 -0.9839 -1.1934
 7301TIP3    H243319   0.939   5.667   2.163 -0.7228  0.5764  0.0048
 7302TIP3   OH243320   6.741   2.892   4.871  0.8993 -0.0149  0.1040
 7302TIP3    H143321   6.745   2.931   4.784  3.3988  3.6005  1.7037
 7302TIP3    H243322   6.649   2.896   4.896  0.1048 -1.4515 -2.4906
 7303TIP3   OH243323   1.067   1.512   3.410  0.1284 -0.3659  0.2012
 7303TIP3    H143324   1.109   1.450   3.470  0.9327 -0.4131 -0.4046
 7303TIP3    H243325   1.014   1.457   3.352  3.2577 -0.8042 -2.3166
 7304TIP3   OH243326   2.982   5.778   4.360 -0.1984 -0.0458  0.1350
 7304TIP3    H143327   2.911   5.812   4.414 -0.1593 -0.1905  0.2778
 7304TIP3    H243328   3.012   5.700   4.406  0.0454  0.0086  0.0692
 7305TIP3   OH243329   5.667   6.280  11.813  0.2365 -0.3517 -0.2869
 7305TIP3    H143330   5.591   6.339  11.811  0.1282 -0.3725  1.9831
 7305TIP3    H243331   5.704   6.291  11.900  1.0759 -2.5813 -0.3245
 7306TIP3   OH243332   4.800   5.425   3.335  0.0661  0.8079 -0.1945
 7306TIP3    H143333   4.852   5.492   3.378  0.2808  0.5176 -0.0027
 7306TIP3    H243334   4.804   5.349   3.394 -0.8120  0.8779 -0.0321
 7307TIP3   OH243335   2.589   6.419   4.988  0.4261  0.1736 -0.2556
 7307TIP3    H143336   2.503   6.388   5.014 -0.3904  2.3765 -0.1985
 7307TIP3    H243337   2.625   6.349   4.934 -1.6581 -0.4942 -0.8075
 7308TIP3   OH243338   1.719   5.390   3.209 -0.7854 -0.6819 -0.0916
 7308TIP3    H143339   1.697   5.440   3.288  1.1565 -2.2624  1.4821
 7308TIP3    H243340   1.634   5.359   3.176 -2.0501  3.3637 -0.9921
 7309TIP3   OH243341   1.407   0.485   0.007  0.2858 -0.0341 -0.2503
 7309TIP3    H143342   1.326   0.516  -0.033 -0.3393  1.2359  1.9477
 7309TIP3    H243343   1.378   0.425   0.076  1.2241  0.1338  0.2973
 7310TIP3   OH243344   5.920   5.867   3.315 -0.1099 -0.4160 -0.0149
 7310TIP3    H143345   6.002   5.897   3.275 -0.5516  0.5213 -0.2405
 7310TIP3    H243346   5.853   5.892   3.252 -0.6001 -0.8894  0.3221
 7311TIP3   OH243347   6.502   4.912   1.254 -0.0301 -0.4884 -0.1613
 7311TIP3    H143348   6.444   4.839   1.276  0.0381  0.1410  2.1688
 7311TIP3    H243349   6.570   4.872   1.198  1.2459 -2.7200  2.8313
 7312TIP3   OH243350   6.224   0.565   0.714 -0.1998  0.0709 -0.4731
 7312TIP3    H143351   6.318   0.548   0.713 -0.2439 -0.3133  1.0360
 7312TIP3    H243352   6.216   0.658   0.739 -0.1876  0.4429 -1.8257
 7313TIP3   OH243353   1.076   2.934  15.193  0.0386 -0.3240 -0.7312
 7313TIP3    H143354   1.110   2.948  15.282  0.6147  0.7420 -1.1031
 7313TIP3    H243355   1.132   2.865  15.157 -0.5725 -1.1780 -0.0747
 7314TIP3   OH243356   6.016   6.123  11.482 -0.0019  0.1034 -0.1737
 7314TIP3    H143357   5.925   6.139  11.507  0.5484  0.0884  1.9030
 7314TIP3    H243358   6.029   6.029  11.498  1.0700  0.5789  1.9599
 7315TIP3   OH243359   1.431   6.507   3.898  0.4574  0.4099 -0.5487
 7315TIP3    H143360   1.521   6.505   3.864  0.3836 -2.8919 -0.7218
 7315TIP3    H243361   1.376   6.516   3.820  0.5706  0.8014 -0.5845
 7316TIP3   OH243362   3.741   5.022  15.836  0.2105 -0.2546 -0.2135
 7316TIP3    H143363   3.732   4.936  15.795 -0.3617  0.3779 -1.4346
 7316TIP3    H243364   3.654   5.061  15.829  1.0563  1.4096 -1.9266
 7317TIP3   OH243365   3.772   4.721  13.482  0.1743 -0.5020 -0.0454
 7317TIP3    H143366   3.733   4.782  13.419  1.2932  0.7041  0.4073
 7317TIP3    H243367   3.786   4.641  13.433 -0.0445  0.0522 -1.0173
 7318TIP3   OH243368   3.577   2.698  11.789 -0.6190 -0.3499  0.1471
 7318TIP3    H143369   3.603   2.706  11.698  0.2046  0.1103  0.4141
 7318TIP3    H243370   3.595   2.607  11.812  1.0612  0.0220  0.4048
 7319TIP3   OH243371   4.736   3.197  14.390  0.1044  0.0330  0.1535
 7319TIP3    H143372   4.793   3.173  14.317 -0.0710 -1.6407  0.5491
 7319TIP3    H243373   4.796   3.214  14.463  0.1590 -0.5882  0.2540
 7320TIP3   OH243374   2.702   6.273   4.781  0.5718 -0.1639  0.0050
 7320TIP3    H143375   2.712   6.214   4.707  1.1701 -0.1026  0.0328
 7320TIP3    H243376   2.746   6.354   4.753 -0.3955  0.3276 -0.1052
 7321TIP3   OH243377   3.105   4.003   1.452  0.1639  0.0742  0.1409
 7321TIP3    H143378   3.049   4.048   1.515 -0.4930 -0.7314  0.1558
 7321TIP3    H243379   3.066   4.023   1.366  0.1949 -0.0177  0.1050
 7322TIP3   OH243380   4.309   0.544   2.016 -0.2303  0.8544 -0.8044
 7322TIP3    H143381   4.303   0.557   2.110  1.7660 -0.7334 -0.4247
 7322TIP3    H243382   4.218   0.537   1.987 -0.8686  1.6699  0.9498
 7323TIP3   OH243383   6.526   5.836   0.682 -0.2061  0.1592 -0.1854
 7323TIP3    H143384   6.593   5.888   0.727  0.9548 -1.1078 -0.4277
 7323TIP3    H243385   6.504   5.886   0.604 -0.7019  1.3500  0.7002
 7324TIP3   OH243386   3.906   6.291   1.630  0.4235 -0.4676  0.0133
 7324TIP3    H143387   3.985   6.237   1.634 -0.1459 -1.2867  0.3136
 7324TIP3    H243388   3.869   6.273   1.543  0.2914 -0.4781  0.0716
 7325TIP3   OH243389   0.983   0.711  16.271  0.2754 -0.6272  0.1777
 7325TIP3    H143390   1.038   0.784  16.299 -0.7532 -1.2117  3.9342
 7325TIP3    H243391   0.894   0.748  16.269 -0.2989 -1.8147  2.4166
 7326TIP3   OH243392   0.696   0.787   2.330 -0.3832 -0.3406 -0.0450
 7326TIP3    H143393   0.790   0.779   2.317 -0.4206  1.0013 -1.3269
 7326TIP3    H243394   0.687   0.856   2.396 -0.4883  0.2443 -0.6660
 7327TIP3   OH243395   0.777   3.107   5.246  0.3242  0.0149 -0.1095
 7327TIP3    H143396   0.803   3.033   5.301 -1.2427 -0.8940 -0.5548
 7327TIP3    H243397   0.834   3.178   5.273  0.0918 -0.6365  2.1707
 7328TIP3   OH243398   0.963   4.910  10.512  0.4502 -0.2126 -0.5751
 7328TIP3    H143399   0.956   4.817  10.491 -0.7709  0.4682 -3.5217
 7328TIP3    H243400   1.055   4.922  10.537  0.0078 -2.6506  2.4090
 7329TIP3   OH243401   0.615   1.789  12.450 -0.2662 -0.1693  0.3217
 7329TIP3    H143402   0.603   1.839  12.370 -0.5607 -1.6483 -0.5883
 7329TIP3    H243403   0.703   1.751  12.442  0.3863  1.0607  1.4985
 7330TIP3   OH243404   0.671   5.457  13.632 -0.1143 -0.7079 -0.0320
 7330TIP3    H143405   0.725   5.461  13.711  1.0674  1.4631 -0.9074
 7330TIP3    H243406   0.731   5.429  13.563 -0.3687  0.5341 -0.7799
 7331TIP3   OH243407   6.573   4.579   5.151  0.2888 -0.1650  0.9913
 7331TIP3    H143408   6.565   4.644   5.221 -0.2338 -0.2213  0.9829
 7331TIP3    H243409   6.580   4.631   5.071  0.7283 -0.1026  1.0682
 7332TIP3   OH243410   6.542   2.313  12.916 -0.2603 -0.1561  0.1571
 7332TIP3    H143411   6.455   2.337  12.884 -0.2289 -0.5521 -0.2214
 7332TIP3    H243412   6.591   2.288  12.838  0.6792  1.5225  0.1764
 7333TIP3   OH243413   0.607   0.130  14.860  0.2737  0.2096 -0.0975
 7333TIP3    H143414   0.657   0.210  14.843  2.4340 -0.6309  2.1374
 7333TIP3    H243415   0.552   0.151  14.935 -1.7122  0.6312 -1.6045
 7334TIP3   OH243416   6.612   3.497  15.557 -0.5023 -0.6021  0.5973
 7334TIP3    H143417   6.519   3.503  15.533 -0.1897  0.1131 -0.4274
 7334TIP3    H243418   6.621   3.557  15.631 -1.3405 -2.3921  2.1871
 7335TIP3   OH243419   1.367   2.708   4.134 -0.2454  0.1714  0.5479
 7335TIP3    H143420   1.301   2.720   4.065 -0.5304  0.6369  0.9015
 7335TIP3    H243421   1.433   2.651   4.094  0.9376  2.5576 -1.0575
 7336TIP3   OH243422   2.297   5.976   4.405  0.0394 -0.6486 -0.3704
 7336TIP3    H143423   2.374   6.033   4.410 -0.1051 -0.5561  0.9710
 7336TIP3    H243424   2.289   5.955   4.312 -0.4352  2.2342 -1.0193
 7337TIP3   OH243425   4.580   5.798   5.159 -0.0911  0.5160  0.3272
 7337TIP3    H143426   4.531   5.722   5.128  1.4501 -0.7092  0.7877
 7337TIP3    H243427   4.552   5.870   5.103 -1.7258 -0.3446  0.0035
 7338TIP3   OH243428   2.985   1.804  13.535  0.1168 -0.2076  0.0995
 7338TIP3    H143429   2.936   1.725  13.557  1.4144 -0.3995  2.4501
 7338TIP3    H243430   3.067   1.772  13.497  0.6521 -0.0033  1.0735
 7339TIP3   OH243431   2.320   0.107   6.383 -0.0060 -0.0594 -0.4317
 7339TIP3    H143432   2.314   0.068   6.471  3.7951  0.7435  0.2627
 7339TIP3    H243433   2.244   0.165   6.377 -2.9275 -3.6171  0.4855
 7340TIP3   OH243434   2.202   4.307  12.526  0.6783  0.4515 -0.5666
 7340TIP3    H143435   2.211   4.329  12.619  1.5007  2.7325 -1.1630
 7340TIP3    H243436   2.174   4.215  12.526  1.7689  0.0825  1.9019
 7341TIP3   OH243437   3.826   6.317  15.675  0.0973  0.8602 -0.3533
 7341TIP3    H143438   3.865   6.397  15.710  1.4745  0.3693 -0.7294
 7341TIP3    H243439   3.733   6.323  15.697 -0.0063  3.0735 -1.3489
 7342TIP3   OH243440   2.242   5.277  14.793 -0.2133  0.2766 -0.1018
 7342TIP3    H143441   2.215   5.332  14.867 -0.7235  1.3314 -1.0512
 7342TIP3    H243442   2.169   5.217  14.780  0.6873 -1.2054  1.4582
 7343TIP3   OH243443   3.016   1.805   4.885 -0.0821  0.5919  0.0849
 7343TIP3    H143444   3.094   1.761   4.921 -0.7903  1.0001  2.1329
 7343TIP3    H243445   2.961   1.733   4.854 -0.0706  0.1690  1.0443
 7344TIP3   OH243446   1.985   5.205   0.893  0.2701 -0.1505  0.8657
 7344TIP3    H143447   2.048   5.276   0.878 -0.5883  0.2716 -0.8720
 7344TIP3    H243448   1.996   5.183   0.985  0.9797  1.8367  1.2906
 7345TIP3   OH243449   0.191   5.301   3.516 -0.2104  0.0493  0.0515
 7345TIP3    H143450   0.184   5.206   3.500 -0.3646 -0.6030  3.6052
 7345TIP3    H243451   0.282   5.315   3.540 -0.6176  0.4865  1.3659
 7346TIP3   OH243452   4.566   5.598  16.216 -0.2400  0.1252  0.6581
 7346TIP3    H143453   4.640   5.547  16.251 -1.6695 -0.5031  2.8729
 7346TIP3    H243454   4.597   5.689  16.217  1.5308 -0.4211 -1.2383
 7347TIP3   OH243455   5.540   3.642   1.856 -0.8256  0.6653 -0.1567
 7347TIP3    H143456   5.568   3.715   1.801 -1.9117  0.2398 -1.3202
 7347TIP3    H243457   5.520   3.572   1.793 -2.1944  0.2015  0.7840
 7348TIP3   OH243458   1.913   1.160  14.451  0.2280 -0.0763 -0.1812
 7348TIP3    H143459   1.870   1.079  14.480 -1.1715  0.2425 -1.3386
 7348TIP3    H243460   1.950   1.138  14.366  2.7826 -0.4680  0.9573
 7349TIP3   OH243461   0.462   6.358   2.159 -0.2296  0.0119 -0.0109
 7349TIP3    H143462   0.556   6.379   2.158 -0.0770 -0.6460 -0.1500
 7349TIP3    H243463   0.424   6.419   2.222  0.2391  0.5152 -0.2113
 7350TIP3   OH243464   5.275   2.385  13.603  0.1998 -0.6707 -0.1345
 7350TIP3    H143465   5.225   2.345  13.674  1.6890 -0.1462  1.2243
 7350TIP3    H243466   5.353   2.422  13.645  1.3752 -0.8175 -2.1073
 7351TIP3   OH243467   4.765   6.217   0.897  0.0571 -0.0208  0.2843
 7351TIP3    H143468   4.701   6.200   0.828 -1.0289  1.4866  0.9038
 7351TIP3    H243469   4.807   6.299   0.871  0.8617 -0.3633  0.5144
 7352TIP3   OH243470   0.397   2.678   1.599  0.0848  0.1932  0.5303
 7352TIP3    H143471   0.430   2.688   1.510  0.5810 -0.9570  0.5761
 7352TIP3    H243472   0.473   2.651   1.650  0.0172  1.7602  1.5036
 7353TIP3   OH243473   3.812   4.105   0.356 -0.0599  0.5848 -0.3343
 7353TIP3    H143474   3.834   4.198   0.349  0.4858  0.4627 -0.2522
 7353TIP3    H243475   3.722   4.104   0.390  0.7841  1.0470  1.9874
 7354TIP3   OH243476   5.002   2.117  15.570  0.0276 -0.2161  0.0418
 7354TIP3    H143477   5.063   2.061  15.617  1.1682  1.1183  0.2024
 7354TIP3    H243478   4.916   2.076  15.581  1.1154 -3.0917 -1.6554
 7355TIP3   OH243479   4.781   4.384   6.620 -0.2825  0.0550  0.0881
 7355TIP3    H143480   4.874   4.366   6.636 -0.6430  0.2335  2.5805
 7355TIP3    H243481   4.754   4.318   6.557  1.4382 -0.2648 -0.3332
 7356TIP3   OH243482   5.281   1.921  12.962  0.5620  0.1357  0.0627
 7356TIP3    H143483   5.242   1.863  12.898  0.3538  0.4225 -0.0712
 7356TIP3    H243484   5.227   2.000  12.960 -0.2023 -0.3344  1.4830
 7357TIP3   OH243485   0.524   0.978   1.874 -0.4139 -0.4419 -0.2702
 7357TIP3    H143486   0.515   1.039   1.946  0.0690  1.2394 -1.6005
 7357TIP3    H243487   0.475   0.900   1.902  0.7932 -0.3085  2.3575
 7358TIP3   OH243488   5.654   3.335  15.365  0.4684  0.1587  0.2802
 7358TIP3    H143489   5.732   3.378  15.330  1.0327 -1.0643  0.0092
 7358TIP3    H243490   5.601   3.407  15.401  1.2889  1.0957 -0.3495
 7359TIP3   OH243491   2.504   1.199  15.858 -0.3082 -0.4647 -0.0950
 7359TIP3    H143492   2.542   1.115  15.834  0.1335 -0.4554  0.5613
 7359TIP3    H243493   2.425   1.207  15.804  0.1621 -0.8722 -0.8332
 7360TIP3   OH243494   5.588   3.822  11.958  0.1329 -0.0908  0.2523
 7360TIP3    H143495   5.594   3.880  11.883  0.4415 -1.9229 -1.1624
 7360TIP3    H243496   5.677   3.813  11.990  0.2321 -0.5787 -0.1527
 7361TIP3   OH243497   3.490   5.061  13.720  0.3749  0.1083  0.2557
 7361TIP3    H143498   3.570   5.074  13.668  1.1782  0.2921  1.5299
 7361TIP3    H243499   3.485   4.967  13.733  0.9775  0.1898  1.0998
 7362TIP3   OH243500   6.181   2.109   1.387 -0.0045 -0.1118 -0.3888
 7362TIP3    H143501   6.102   2.090   1.336  0.1413 -0.2497 -0.5621
 7362TIP3    H243502   6.175   2.202   1.406  0.8723  0.3599 -2.2566
 7363TIP3   OH243503   3.220   5.040  11.164  0.3413 -0.8920 -0.7791
 7363TIP3    H143504   3.212   5.119  11.111  0.2186 -0.5625 -0.2745
 7363TIP3    H243505   3.149   5.046  11.228  1.6900 -0.3064  0.6857
 7364TIP3   OH243506   2.381   0.679   1.004 -0.0347  0.2506 -0.2396
 7364TIP3    H143507   2.347   0.725   1.080  2.9350  1.4179  0.4153
 7364TIP3    H243508   2.457   0.729   0.977  0.8548 -1.9714 -2.0228
 7365TIP3   OH243509   2.415   4.546   4.589 -0.3634 -0.1882  0.5411
 7365TIP3    H143510   2.426   4.628   4.637  0.1583  0.7050 -1.0700
 7365TIP3    H243511   2.479   4.551   4.518 -0.9758 -1.5721 -0.1240
 7366TIP3   OH243512   0.886   2.586   6.422 -0.6015  0.3740  0.0433
 7366TIP3    H143513   0.917   2.496   6.433  1.1572  1.0302  0.5200
 7366TIP3    H243514   0.801   2.587   6.466 -0.3157 -0.8778  0.6396
 7367TIP3   OH243515   4.408   5.690   3.169  0.3560  0.0981  0.0028
 7367TIP3    H143516   4.443   5.659   3.086 -1.2018 -1.1274 -0.2253
 7367TIP3    H243517   4.416   5.785   3.165  1.1796 -0.0095 -1.1256
 7368TIP3   OH243518   1.395   4.718   3.466 -0.1654  0.0652 -0.9060
 7368TIP3    H143519   1.425   4.736   3.555  1.1384  0.2306 -1.3672
 7368TIP3    H243520   1.301   4.734   3.469  0.1450  1.9008 -0.0116
 7369TIP3   OH243521   3.094   2.887  14.350 -0.0809  0.6140 -0.0997
 7369TIP3    H143522   3.017   2.944  14.345 -0.8837 -0.4162  0.3595
 7369TIP3    H243523   3.169   2.947  14.339 -0.8474  1.9806  1.8738
 7370TIP3   OH243524   0.910   4.532   1.141  0.2264  0.4282 -0.4234
 7370TIP3    H143525   0.847   4.560   1.075 -0.9841 -1.0133  0.0905
 7370TIP3    H243526   0.929   4.611   1.191 -0.3944  1.0994 -1.2378
 7371TIP3   OH243527   0.995   6.363  12.193  0.1349  0.4320 -0.3920
 7371TIP3    H143528   0.969   6.454  12.183  2.6880  1.5208  2.3438
 7371TIP3    H243529   1.057   6.347  12.122  1.0135  1.3765  0.1482
 7372TIP3   OH243530   1.444   1.220  14.389 -0.1130  0.1177 -0.2565
 7372TIP3    H143531   1.480   1.133  14.406  0.4835  0.5575  0.8394
 7372TIP3    H243532   1.441   1.227  14.294  1.3976 -0.4619 -0.3538
 7373TIP3   OH243533   6.112   0.366   4.757  0.3711  0.1847  0.0711
 7373TIP3    H143534   6.105   0.319   4.674  1.0761 -0.4217  0.3512
 7373TIP3    H243535   6.200   0.345   4.789 -0.3906 -0.7078  1.6493
 7374TIP3   OH243536   2.771   2.500   3.759 -0.1034  0.1114  0.0989
 7374TIP3    H143537   2.787   2.593   3.745 -1.7786  0.7225  1.9416
 7374TIP3    H243538   2.842   2.473   3.818 -0.5265  0.5968  0.8346
 7375TIP3   OH243539   0.972   3.572  15.367  0.2431 -0.4531  0.0104
 7375TIP3    H143540   0.996   3.557  15.276  1.3328 -2.1689  0.5325
 7375TIP3    H243541   0.943   3.486  15.398  2.5491 -0.5776  2.0098
 7376TIP3   OH243542   0.889   0.244   2.611  0.2352  0.4352  0.4048
 7376TIP3    H143543   0.967   0.239   2.557 -0.9969 -1.1694 -1.3249
 7376TIP3    H243544   0.902   0.178   2.679 -0.9044 -2.1224 -1.7488
 7377TIP3   OH243545   3.529   0.314   0.526 -0.6496 -0.0389  0.1841
 7377TIP3    H143546   3.460   0.275   0.472 -0.6582  1.0848 -0.6265
 7377TIP3    H243547   3.524   0.408   0.509  1.9302 -0.0459 -0.9399
 7378TIP3   OH243548   5.760   2.829   3.103 -0.0206  0.4577  0.6822
 7378TIP3    H143549   5.832   2.796   3.049 -0.8915  0.8415 -0.7414
 7378TIP3    H243550   5.685   2.774   3.081 -1.3294  2.8763 -1.2688
 7379TIP3   OH243551   2.050   1.304  15.879  0.3140 -0.5379  0.3330
 7379TIP3    H143552   1.978   1.287  15.818 -0.4591  1.7085  0.5807
 7379TIP3    H243553   2.128   1.269  15.835 -0.4334 -0.1028 -1.3512
 7380TIP3   OH243554   6.447   6.392  11.393  0.2796  0.2550 -0.0984
 7380TIP3    H143555   6.484   6.340  11.321 -0.5153  1.1506 -1.1728
 7380TIP3    H243556   6.354   6.368  11.395  0.0873  1.0064 -0.0496
 7381TIP3   OH243557   2.094   1.213   3.302  0.0915  0.6146  0.0108
 7381TIP3    H143558   2.161   1.245   3.243  0.3274  1.4794  0.7364
 7381TIP3    H243559   2.133   1.221   3.389 -0.1459 -0.8899  0.2718
 7382TIP3   OH243560   2.121   2.816   4.633  0.1149 -0.5262  0.0436
 7382TIP3    H143561   2.166   2.821   4.548  0.6544  0.0816  0.3642
 7382TIP3    H243562   2.134   2.725   4.661  0.8916 -0.4331 -0.0047
 7383TIP3   OH243563   1.778   4.674  14.971 -0.4891 -0.1943  0.2632
 7383TIP3    H143564   1.698   4.643  14.928  0.6723 -1.8137 -0.7611
 7383TIP3    H243565   1.825   4.595  14.997  0.8391  0.7346  0.7687
 7384TIP3   OH243566   4.335   1.106   5.098  0.4976 -0.4841  0.7114
 7384TIP3    H143567   4.295   1.179   5.050 -1.2302 -0.6473  1.8401
 7384TIP3    H243568   4.306   1.028   5.052 -0.5265 -0.6033  1.5325
 7385TIP3   OH243569   4.331   4.339   5.362 -0.1161 -0.1935  0.0164
 7385TIP3    H143570   4.347   4.433   5.357  1.4707 -0.2220  3.2128
 7385TIP3    H243571   4.398   4.300   5.305 -0.2051  0.5351 -0.6041
 7386TIP3   OH243572   4.098   2.837  17.144  0.6378  0.6716  0.4083
 7386TIP3    H143573   4.064   2.804  17.061  1.1011  1.3756 -0.0679
 7386TIP3    H243574   4.191   2.852  17.126  1.1401 -0.9337  1.5884
 7387TIP3   OH243575   4.878   3.948  13.265  0.0189  0.0660  0.0833
 7387TIP3    H143576   4.936   3.879  13.232 -1.9704 -1.2091 -0.8153
 7387TIP3    H243577   4.836   3.910  13.342  1.3143  1.4598  1.5260
 7388TIP3   OH243578   2.074   1.787  15.372  0.8183  0.0943  0.0452
 7388TIP3    H143579   1.985   1.814  15.351  0.1047 -0.6239  2.0157
 7388TIP3    H243580   2.106   1.855  15.431  1.0872 -0.3578  0.4184
 7389TIP3   OH243581   2.077   0.620   3.802  0.1660 -0.3022 -0.5551
 7389TIP3    H143582   2.103   0.588   3.888  3.5625 -0.1569 -1.4512
 7389TIP3    H243583   2.091   0.715   3.806 -0.6022 -0.1680 -0.9659
 7390TIP3   OH243584   2.147   3.256   2.672 -0.0567  0.4654  0.0352
 7390TIP3    H143585   2.126   3.350   2.665 -0.6551  0.2700 -0.8055
 7390TIP3    H243586   2.162   3.243   2.766 -0.6075  1.2716  0.2509
 7391TIP3   OH243587   6.191   0.023   3.544 -0.1357 -0.0997 -0.1491
 7391TIP3    H143588   6.209  -0.020   3.460  0.3173  0.3014 -0.2554
 7391TIP3    H243589   6.123   0.087   3.524 -1.0439 -0.9735  0.0719
 7392TIP3   OH243590   4.476   2.871   1.732  0.4909  0.3963  0.3927
 7392TIP3    H143591   4.401   2.819   1.759  0.2751  0.2888 -0.3989
 7392TIP3    H243592   4.552   2.826   1.769  0.5112 -1.7452 -2.1141
 7393TIP3   OH243593   6.236   3.528   6.255 -0.1503 -0.4532 -0.6800
 7393TIP3    H143594   6.256   3.446   6.300  0.3305 -0.6335 -1.2106
 7393TIP3    H243595   6.270   3.515   6.166  0.6471  0.6058 -0.5380
 7394TIP3   OH243596   3.281   5.613   2.538  0.2648  0.1403 -0.3218
 7394TIP3    H143597   3.327   5.620   2.621  0.5762 -0.1237 -0.4717
 7394TIP3    H243598   3.261   5.519   2.529 -0.7395  0.3183 -0.0197
 7395TIP3   OH243599   3.926   6.160   0.625  0.1935 -0.1833 -0.4832
 7395TIP3    H143600   3.904   6.069   0.605  1.4230 -0.3747 -1.0108
 7395TIP3    H243601   3.941   6.161   0.720  2.0570 -0.9507 -0.7470
 7396TIP3   OH243602   1.702   2.935   0.640  0.5583  0.4582  0.3420
 7396TIP3    H143603   1.659   2.904   0.719 -1.1958  1.9117 -0.0113
 7396TIP3    H243604   1.734   3.023   0.663  1.2470  0.3428 -0.1461
 7397TIP3   OH243605   2.935   1.231   2.194 -0.1115 -0.3976  0.4077
 7397TIP3    H143606   2.971   1.319   2.190  1.0133 -0.9367 -2.5334
 7397TIP3    H243607   2.998   1.180   2.245  0.4382 -0.0484  0.0686
 7398TIP3   OH243608   5.289   2.167   3.958  0.0797  0.3275 -0.3602
 7398TIP3    H143609   5.283   2.189   3.865 -0.0950  0.4160 -0.3280
 7398TIP3    H243610   5.220   2.220   4.000  0.1130  0.2370 -0.1910
 7399TIP3   OH243611   2.253   1.503  14.517  0.4606  0.4873  0.0889
 7399TIP3    H143612   2.219   1.524  14.604  2.5551 -0.5511  1.1978
 7399TIP3    H243613   2.340   1.543  14.515  0.8040 -0.3016 -1.1825
 7400TIP3   OH243614   3.731   2.519  16.392  0.3475 -0.5949  0.1463
 7400TIP3    H143615   3.792   2.454  16.427  0.4020 -0.3244  0.5602
 7400TIP3    H243616   3.786   2.579  16.342  0.4235 -0.3632  0.5026
 7401TIP3   OH243617   5.378   3.788   3.211  0.0287 -0.3379 -0.5737
 7401TIP3    H143618   5.430   3.825   3.282 -0.8675 -0.9117  0.3913
 7401TIP3    H243619   5.302   3.847   3.205  1.0057  0.7862 -2.3031
 7402TIP3   OH243620   5.883   2.683  15.792  0.3385  0.2564  0.3373
 7402TIP3    H143621   5.848   2.614  15.848 -0.6528  0.3567 -0.1560
 7402TIP3    H243622   5.846   2.764  15.828  0.7850  0.4555  0.3632
 7403TIP3   OH243623   5.964   3.064  16.754 -0.3498  0.1752  0.1213
 7403TIP3    H143624   5.903   2.991  16.760 -0.0927 -0.1052 -0.6448
 7403TIP3    H243625   6.034   3.042  16.816  0.1116 -0.6090 -0.6531
 7404TIP3   OH243626   5.555   3.264   6.402 -0.1212 -0.8903 -0.3066
 7404TIP3    H143627   5.525   3.336   6.457  0.2714 -0.1086 -1.1065
 7404TIP3    H243628   5.498   3.191   6.425 -0.8030 -0.2030  0.1946
 7405TIP3   OH243629   0.277   1.047  14.020  0.0761  0.7116  0.3016
 7405TIP3    H143630   0.205   0.985  14.009 -1.9019  2.8876  0.5185
 7405TIP3    H243631   0.330   1.010  14.090 -1.8753 -0.0350  1.4402
 7406TIP3   OH243632   5.549   3.444  11.995 -0.6500  0.0323 -0.2010
 7406TIP3    H143633   5.573   3.351  11.991  2.3150  0.7700 -0.5202
 7406TIP3    H243634   5.482   3.448  12.063 -0.2891 -2.2396  0.3295
 7407TIP3   OH243635   5.409   6.642   1.540 -0.2127  0.2523  0.6221
 7407TIP3    H143636   5.412   6.697   1.461  0.4705  0.9928  1.1512
 7407TIP3    H243637   5.499   6.613   1.553 -0.7356 -1.8030 -0.1925
 7408TIP3   OH243638   3.877   4.463   0.567  0.2308  0.3905 -0.0360
 7408TIP3    H143639   3.902   4.514   0.490  1.8804  1.0666  0.9218
 7408TIP3    H243640   3.898   4.372   0.544  1.5418  0.6948 -0.0661
 7409TIP3   OH243641   1.929   3.233  10.837 -0.3203 -0.2562  0.1951
 7409TIP3    H143642   1.916   3.241  10.743  0.6426 -0.9491 -0.0125
 7409TIP3    H243643   1.878   3.156  10.863 -0.2475 -0.3144  0.1651
 7410TIP3   OH243644   1.670   6.178   4.042 -0.2564 -0.5095 -0.3560
 7410TIP3    H143645   1.580   6.207   4.059 -0.0326 -0.2859  0.4668
 7410TIP3    H243646   1.671   6.158   3.948 -1.7421 -2.5482  0.0361
 7411TIP3   OH243647   2.607   2.371   5.480 -0.1975 -0.6490  0.3018
 7411TIP3    H143648   2.513   2.381   5.491 -0.3919 -0.0025 -1.8233
 7411TIP3    H243649   2.618   2.289   5.431  0.2859 -0.2426 -0.2847
 7412TIP3   OH243650   0.296   0.287   0.325 -0.0211 -0.4630 -0.0236
 7412TIP3    H143651   0.327   0.263   0.238  1.7673 -0.4105  0.5675
 7412TIP3    H243652   0.271   0.204   0.365 -0.5245 -0.5262 -0.4631
 7413TIP3   OH243653   5.056   5.612   2.602  0.1903  1.0555  0.5624
 7413TIP3    H143654   4.995   5.541   2.586  0.4651  1.2257 -1.3427
 7413TIP3    H243655   5.126   5.572   2.655 -1.0134  0.6106  1.8350
 7414TIP3   OH243656   4.574   4.889  15.640 -0.1355  0.1779 -0.0646
 7414TIP3    H143657   4.605   4.973  15.606 -1.2624 -0.2679 -2.2612
 7414TIP3    H243658   4.555   4.837  15.562 -0.0999 -1.8979  1.2662
 7415TIP3   OH243659   6.726   3.079   0.903  0.1481  0.0774  0.3485
 7415TIP3    H143660   6.744   3.006   0.962 -0.3141 -0.2159  0.1353
 7415TIP3    H243661   6.797   3.076   0.839  1.3636  1.1919  1.6324
 7416TIP3   OH243662   4.928   5.996  15.369 -0.1898  0.1201 -0.2286
 7416TIP3    H143663   4.859   6.038  15.317  0.0903 -0.7810 -1.3404
 7416TIP3    H243664   4.883   5.968  15.449 -1.0458 -0.0903 -0.7658
 7417TIP3   OH243665   0.829   1.535   3.026 -0.3473 -0.2498 -0.1007
 7417TIP3    H143666   0.901   1.556   2.967 -1.0158 -0.3162 -0.9443
 7417TIP3    H243667   0.793   1.453   2.993 -1.7615  0.5508 -0.5902
 7418TIP3   OH243668   4.864   5.618   3.864  0.6016 -1.1539  0.2589
 7418TIP3    H143669   4.795   5.683   3.850  1.3897 -0.0637  1.4421
 7418TIP3    H243670   4.820   5.548   3.913  0.6001  0.0531  2.0211
 7419TIP3   OH243671   4.164   0.062   5.107 -0.2019 -0.2035 -0.0976
 7419TIP3    H143672   4.116   0.035   5.186  0.0584  0.8809  0.4381
 7419TIP3    H243673   4.238   0.113   5.140  0.9897 -1.3493 -0.9503
 7420TIP3   OH243674   1.774   3.011   5.239 -0.2293 -0.4260  0.0349
 7420TIP3    H143675   1.744   2.921   5.232 -0.5714 -0.4280  1.3381
 7420TIP3    H243676   1.708   3.063   5.193 -1.3241 -0.6016  1.3834
 7421TIP3   OH243677   0.756   5.877  11.622 -0.5792  1.1867 -0.2740
 7421TIP3    H143678   0.669   5.911  11.602 -0.7710  1.3585  0.8145
 7421TIP3    H243679   0.766   5.801  11.564 -2.0113  0.3363  0.5699
 7422TIP3   OH243680   0.859   2.412  15.790  0.5053  0.0171 -0.0206
 7422TIP3    H143681   0.765   2.391  15.784  0.1261  1.5527  0.2670
 7422TIP3    H243682   0.881   2.446  15.703  0.5495  0.6143  0.2236
 7423TIP3   OH243683   0.815   3.001   5.909 -0.5221 -0.1483 -0.0498
 7423TIP3    H143684   0.719   3.000   5.909 -0.5605  0.5989  1.9594
 7423TIP3    H243685   0.840   2.909   5.912 -1.2012 -0.2911  1.3613
 7424TIP3   OH243686   1.489   0.207   0.979 -0.1152 -0.3132  0.0847
 7424TIP3    H143687   1.451   0.285   1.020  1.1616  0.3226  0.1024
 7424TIP3    H243688   1.481   0.223   0.885 -0.2002 -0.3333  0.0888
 7425TIP3   OH243689   5.767   3.528  11.776  0.2351  0.1491  0.0337
 7425TIP3    H143690   5.707   3.499  11.845  0.0222  0.1943 -0.1319
 7425TIP3    H243691   5.722   3.506  11.695  0.7318 -0.3942 -0.0880
 7426TIP3   OH243692   4.188   3.811  12.739 -0.1050  0.1708 -0.1468
 7426TIP3    H143693   4.226   3.736  12.785 -0.2041 -0.1726 -0.6236
 7426TIP3    H243694   4.127   3.849  12.802  1.3449  0.9964  0.7910
 7427TIP3   OH243695   2.148   2.890   1.589  0.4882 -0.1783  0.3116
 7427TIP3    H143696   2.171   2.968   1.539  0.6394  0.0118  0.6739
 7427TIP3    H243697   2.203   2.821   1.553  0.1750 -0.1741 -0.1766
 7428TIP3   OH243698   4.604   6.309  15.983 -0.5480 -0.4188 -0.0573
 7428TIP3    H143699   4.577   6.303  16.075 -0.7372  0.1166 -0.0817
 7428TIP3    H243700   4.522   6.314  15.934 -0.5034 -2.4123 -0.3753
 7429TIP3   OH243701   6.113   2.357   5.554  0.2493 -0.4247 -0.3366
 7429TIP3    H143702   6.190   2.380   5.607 -0.5809  0.5979  0.4551
 7429TIP3    H243703   6.111   2.422   5.485 -1.3402  1.1097  1.1244
 7430TIP3   OH243704   1.660   1.568   1.100  0.5822 -0.2022 -0.1014
 7430TIP3    H143705   1.617   1.604   1.178 -0.8419  0.6007 -1.2424
 7430TIP3    H243706   1.752   1.587   1.112  0.2609  0.6878  0.9805
 7431TIP3   OH243707   0.364   4.018  10.542 -0.4109 -0.2065  0.1525
 7431TIP3    H143708   0.341   3.987  10.455 -2.5779 -0.2760  0.7273
 7431TIP3    H243709   0.361   3.940  10.597  1.7671 -0.3132  0.1536
 7432TIP3   OH243710   3.848   1.465   3.918 -0.7489  0.2249  1.0756
 7432TIP3    H143711   3.753   1.466   3.922 -0.8955  0.4487 -1.5845
 7432TIP3    H243712   3.869   1.505   3.834  1.7076  0.3708  1.7116
 7433TIP3   OH243713   0.700   5.143   6.691  0.7161 -0.0439 -0.2252
 7433TIP3    H143714   0.753   5.214   6.725  0.3310 -0.1137  0.5514
 7433TIP3    H243715   0.757   5.066   6.694  1.4308  0.4101 -1.9472
 7434TIP3   OH243716   1.935   0.829   1.125  0.1256 -0.0920 -0.0914
 7434TIP3    H143717   1.956   0.823   1.032 -3.1033 -0.6886 -0.8502
 7434TIP3    H243718   1.918   0.739   1.152 -1.3531  0.3219  0.4345
 7435TIP3   OH243719   0.755   0.613  13.159 -0.3972 -0.2530 -0.3232
 7435TIP3    H143720   0.794   0.630  13.074 -0.5420  0.2247 -0.2927
 7435TIP3    H243721   0.800   0.673  13.219  1.3922 -2.2136  0.3838
 7436TIP3   OH243722   3.891   5.723  16.670 -0.5884  0.1456 -0.0536
 7436TIP3    H143723   3.824   5.745  16.735  0.0749  0.3364  0.5849
 7436TIP3    H243724   3.972   5.716  16.722  0.4439  2.8218 -1.1896
 7437TIP3   OH243725   5.812   4.288   4.871  0.2056 -0.3885 -0.5101
 7437TIP3    H143726   5.778   4.205   4.904  1.6887 -0.8143 -0.0195
 7437TIP3    H243727   5.825   4.342   4.949 -2.2915  0.9382 -0.9433
 7438TIP3   OH243728   4.232   5.765   5.073 -0.2072 -0.1151 -0.0162
 7438TIP3    H143729   4.220   5.859   5.059 -0.5360  0.3021  2.8081
 7438TIP3    H243730   4.325   5.754   5.091 -0.1386 -0.3750 -0.5002
 7439TIP3   OH243731   1.277   5.169  11.144  0.1133 -0.3303  0.6187
 7439TIP3    H143732   1.232   5.224  11.080 -0.7412 -2.9294 -1.0968
 7439TIP3    H243733   1.370   5.184  11.128 -0.0933 -1.0349 -1.3426
 7440TIP3   OH243734   1.592   5.126  11.731 -0.6017  0.2366 -0.3860
 7440TIP3    H143735   1.499   5.149  11.730 -1.0193 -1.1861  1.4664
 7440TIP3    H243736   1.597   5.045  11.680 -0.4255  0.1959 -0.3055
 7441TIP3   OH243737   2.983   5.064  12.567 -0.0361 -0.2715 -1.1664
 7441TIP3    H143738   3.019   5.006  12.634 -1.2226 -0.7873 -0.9462
 7441TIP3    H243739   2.987   5.013  12.487 -0.8614 -0.5839 -1.0169
 7442TIP3   OH243740   5.692   0.690  14.905 -0.1839 -0.2777 -0.4479
 7442TIP3    H143741   5.679   0.683  14.811  0.0531  1.7192 -0.6579
 7442TIP3    H243742   5.727   0.605  14.931  1.2097 -0.3325 -2.4122
 7443TIP3   OH243743   5.543   1.194  12.041 -0.4600  0.3907 -0.1346
 7443TIP3    H143744   5.464   1.146  12.065  0.2934 -1.2690 -0.9076
 7443TIP3    H243745   5.565   1.164  11.953  0.7572  1.1799 -0.1208
 7444TIP3   OH243746   3.799   6.632  17.210 -0.1025 -0.1983  0.0374
 7444TIP3    H143747   3.799   6.655  17.118 -0.7226 -0.0386  0.0734
 7444TIP3    H243748   3.870   6.568  17.219  0.8137  0.7651 -0.2904
 7445TIP3   OH243749   6.148   6.359  13.552 -0.5337  0.1218 -0.2222
 7445TIP3    H143750   6.117   6.407  13.629 -0.7100  1.1279 -0.9213
 7445TIP3    H243751   6.187   6.279  13.588 -1.8602 -0.0718  0.8245
 7446TIP3   OH243752   6.763   6.601   2.485  0.5331  0.7613  0.4088
 7446TIP3    H143753   6.668   6.608   2.480  0.4772  0.0911  0.5080
 7446TIP3    H243754   6.794   6.691   2.477 -0.0692  0.8894 -0.5500
 7447TIP3   OH243755   2.508   4.312   4.158  0.1169 -0.6682  0.2066
 7447TIP3    H143756   2.590   4.342   4.197  0.6626 -1.3216 -0.4256
 7447TIP3    H243757   2.534   4.242   4.099 -0.7852 -0.1737 -0.7956
 7448TIP3   OH243758   2.257   5.765  14.907 -0.8742  0.4923  0.4631
 7448TIP3    H143759   2.329   5.705  14.928 -1.2902  0.2734  1.3150
 7448TIP3    H243760   2.265   5.836  14.971 -0.7323  1.0404 -0.1696
 7449TIP3   OH243761   0.718   0.429  11.816 -0.3049  0.6066 -0.3377
 7449TIP3    H143762   0.779   0.419  11.889 -1.3870 -1.2700  0.3203
 7449TIP3    H243763   0.753   0.371  11.748 -0.4567  0.7836 -0.5687
 7450TIP3   OH243764   5.335   4.784  12.804 -0.0211  0.5906  0.1606
 7450TIP3    H143765   5.301   4.714  12.860  0.8751 -0.2240 -0.2846
 7450TIP3    H243766   5.382   4.842  12.863  0.5223 -0.0105  0.3222
 7451TIP3   OH243767   4.728   2.683  11.258 -0.5148  0.3259 -0.2105
 7451TIP3    H143768   4.730   2.761  11.202 -0.7405 -1.8265 -3.3131
 7451TIP3    H243769   4.785   2.620  11.215 -3.9286 -2.8908 -0.3513
 7452TIP3   OH243770   6.442   2.919   2.757  0.4194 -0.1451  0.4223
 7452TIP3    H143771   6.421   2.988   2.695  0.1614  0.6569  1.3994
 7452TIP3    H243772   6.507   2.865   2.711  0.8955  0.9426 -0.1992
 7453TIP3   OH243773   1.354   4.833   0.058 -0.4191  0.7631  0.4200
 7453TIP3    H143774   1.383   4.908   0.110 -0.3513  1.7626 -1.0233
 7453TIP3    H243775   1.391   4.848  -0.029 -1.2244 -0.4386 -0.1503
 7454TIP3   OH243776   6.605   2.477  11.886 -0.3186  0.6189 -0.2292
 7454TIP3    H143777   6.591   2.545  11.951 -1.4194 -0.0193  0.2279
 7454TIP3    H243778   6.599   2.395  11.935 -0.3871  0.1524 -1.0022
 7455TIP3   OH243779   4.453   2.597  11.714 -0.2140  0.2772  0.3997
 7455TIP3    H143780   4.377   2.616  11.769  0.2176 -0.6161  1.3045
 7455TIP3    H243781   4.423   2.615  11.625 -1.4277  0.1041  0.7675
 7456TIP3   OH243782   1.310   5.946  16.503 -0.2774  0.7462  0.3899
 7456TIP3    H143783   1.294   5.900  16.585 -1.2417 -1.1411 -0.8169
 7456TIP3    H243784   1.223   5.980  16.478  0.0752  1.6098  0.3292
 7457TIP3   OH243785   1.564   2.356  14.242  0.2902  0.0391 -0.3329
 7457TIP3    H143786   1.594   2.445  14.258 -1.4801  0.8112 -1.0832
 7457TIP3    H243787   1.497   2.366  14.174  2.5500 -2.2650 -3.0265
 7458TIP3   OH243788   1.243   1.195  14.655  0.4188  0.1060  0.2360
 7458TIP3    H143789   1.297   1.245  14.716  1.4548  0.0897 -0.6476
 7458TIP3    H243790   1.305   1.162  14.591 -0.3861 -1.5369  0.2878
 7459TIP3   OH243791   6.043   4.484  16.728 -0.3955  0.2426 -0.8232
 7459TIP3    H143792   6.089   4.405  16.698  0.4097 -0.8483  3.0434
 7459TIP3    H243793   5.963   4.486  16.674 -0.7340 -3.5710 -0.6404
 7460TIP3   OH243794   4.502   6.310  11.990  0.3893 -0.2813  0.7918
 7460TIP3    H143795   4.471   6.232  12.036 -0.5560  0.7416  1.9086
 7460TIP3    H243796   4.585   6.282  11.950 -0.8744 -2.4230 -0.4704
 7461TIP3   OH243797   0.681   5.008  13.824  0.3062  0.2863  0.0273
 7461TIP3    H143798   0.744   5.079  13.809  1.1691 -0.2323  1.1630
 7461TIP3    H243799   0.735   4.933  13.849 -0.6893 -0.4633 -0.0600
 7462TIP3   OH243800   2.455   4.792   3.594 -0.0758 -0.1568  0.2709
 7462TIP3    H143801   2.419   4.703   3.603 -2.3059  0.5905 -1.0517
 7462TIP3    H243802   2.496   4.792   3.508  0.7412 -0.1678  0.6551
 7463TIP3   OH243803   1.235   3.488  16.269  0.4448 -0.3087 -0.1258
 7463TIP3    H143804   1.250   3.397  16.295  0.7982 -0.1089  0.3650
 7463TIP3    H243805   1.160   3.515  16.322  0.4985 -0.2323 -0.0898
 7464TIP3   OH243806   5.599   3.153  14.668 -0.2276 -0.6519 -0.5340
 7464TIP3    H143807   5.694   3.162  14.661 -0.0458 -3.3853 -2.0024
 7464TIP3    H243808   5.573   3.221  14.731  2.5673  0.6722 -0.7601
 7465TIP3   OH243809   1.544   4.641   6.037  0.3262 -0.1392 -0.2849
 7465TIP3    H143810   1.560   4.715   5.979  0.4675 -0.0342 -0.1142
 7465TIP3    H243811   1.565   4.564   5.985 -2.1012 -0.2028 -1.2559
 7466TIP3   OH243812   4.158   0.576  12.165  0.7666  0.2185  0.1133
 7466TIP3    H143813   4.107   0.653  12.189  2.9509  1.6958  0.2062
 7466TIP3    H243814   4.162   0.579  12.069  2.3125  1.2173  0.2003
 7467TIP3   OH243815   0.187   5.024   2.019  0.3253 -0.2561  0.4759
 7467TIP3    H143816   0.239   5.090   2.066 -3.0697  1.2733  2.3083
 7467TIP3    H243817   0.224   5.022   1.931  3.4011  0.7960  1.6855
 7468TIP3   OH243818   5.272   4.162   2.100 -0.7021  0.1934 -0.2242
 7468TIP3    H143819   5.368   4.155   2.096 -0.7268 -1.0913  0.7741
 7468TIP3    H243820   5.256   4.249   2.135  0.2031 -0.4837  1.9960
 7469TIP3   OH243821   2.269   4.737   3.243 -0.0797  0.1299  0.2356
 7469TIP3    H143822   2.346   4.705   3.195 -0.8117 -0.9760 -0.2154
 7469TIP3    H243823   2.199   4.676   3.220 -0.8904  0.6385  1.3082
 7470TIP3   OH243824   3.272   6.066   4.186 -0.4649  0.0401  0.2806
 7470TIP3    H143825   3.295   6.042   4.097  0.4352 -0.9092  0.7606
 7470TIP3    H243826   3.285   5.986   4.237 -1.5554  0.4097  1.1577
 7471TIP3   OH243827   4.477   0.897  14.624  0.6200 -0.3642 -0.3739
 7471TIP3    H143828   4.460   0.955  14.549  0.8395  0.4284  0.1836
 7471TIP3    H243829   4.390   0.875  14.657  0.5673  1.3101  0.6659
 7472TIP3   OH243830   5.339   0.006  12.743  0.3022  0.3512  0.3634
 7472TIP3    H143831   5.260   0.032  12.790 -1.2382 -1.0939 -1.2972
 7472TIP3    H243832   5.309  -0.009  12.653  3.2440  3.7073 -1.3077
 7473TIP3   OH243833   3.303   4.765  11.183  0.1655 -0.5473  0.0830
 7473TIP3    H143834   3.283   4.858  11.196  2.4043 -0.1500  0.8024
 7473TIP3    H243835   3.230   4.719  11.225 -1.6428  0.8541 -1.3984
 7474TIP3   OH243836   3.603   5.114  14.718 -0.0009 -0.1408  0.0352
 7474TIP3    H143837   3.528   5.153  14.674 -0.3501 -0.1062  0.6472
 7474TIP3    H243838   3.607   5.160  14.802  0.6716 -0.1829  0.0293
 7475TIP3   OH243839   2.358   0.499  14.913 -0.0951 -0.0204 -0.2529
 7475TIP3    H143840   2.340   0.434  14.846  0.5489  0.2933 -0.7450
 7475TIP3    H243841   2.371   0.448  14.993 -0.8122 -0.4009 -0.3790
 7476TIP3   OH243842   1.641   0.193   2.564 -0.2032 -0.5547  0.0007
 7476TIP3    H143843   1.598   0.249   2.629  2.3211  0.3093  1.0208
 7476TIP3    H243844   1.630   0.104   2.597  0.6484 -0.1583  1.4034
 7477TIP3   OH243845   3.312   6.592  12.552  0.0932  0.2617  0.0763
 7477TIP3    H143846   3.322   6.676  12.508  0.4371  1.0381  1.6038
 7477TIP3    H243847   3.271   6.535  12.486 -1.3037  1.9707 -0.5559
 7478TIP3   OH243848   4.580   3.620  15.806  0.5287  0.3035  0.1955
 7478TIP3    H143849   4.596   3.663  15.890  2.5436  0.3584 -0.2046
 7478TIP3    H243850   4.565   3.691  15.744  1.5286  0.3584  0.0100
 7479TIP3   OH243851   6.084   4.612   3.961 -0.4045 -0.3198  0.1840
 7479TIP3    H143852   6.177   4.607   3.982  0.4275 -1.0446 -3.3398
 7479TIP3    H243853   6.077   4.688   3.903 -2.0833 -0.0990  0.6501
 7480TIP3   OH243854   6.150   4.093   0.172  0.0026 -0.0831 -0.3457
 7480TIP3    H143855   6.227   4.079   0.117  0.6867 -3.0427  1.2914
 7480TIP3    H243856   6.080   4.045   0.127  0.3611 -1.7751  0.8577
 7481TIP3   OH243857   5.231   1.813  14.616  0.0736  0.4124  0.1327
 7481TIP3    H143858   5.210   1.806  14.523  1.2853 -1.5511 -0.0226
 7481TIP3    H243859   5.289   1.889  14.621 -1.6238  1.7685 -0.3962
 7482TIP3   OH243860   0.214   6.135   4.863  0.2326  0.1251 -0.0350
 7482TIP3    H143861   0.218   6.046   4.829 -0.8711  0.1981 -0.3981
 7482TIP3    H243862   0.302   6.170   4.851  0.4225 -0.5970 -0.7745
 7483TIP3   OH243863   1.701   1.406   4.257  0.4444 -0.3718 -0.1743
 7483TIP3    H143864   1.639   1.437   4.190 -0.4406 -1.5707  0.0781
 7483TIP3    H243865   1.740   1.328   4.218 -0.1774 -1.1531  0.7675
 7484TIP3   OH243866   1.055   4.139   1.434  0.1765 -0.0913 -0.0044
 7484TIP3    H143867   1.045   4.044   1.430 -0.3754 -0.0624  0.6154
 7484TIP3    H243868   1.101   4.155   1.517 -2.9639  0.4235  1.7077
 7485TIP3   OH243869   2.221   4.612   4.869  0.1420 -0.1864  0.0875
 7485TIP3    H143870   2.295   4.565   4.907 -0.5889 -0.3193  1.4023
 7485TIP3    H243871   2.252   4.702   4.856  1.0889 -0.6771 -1.0753
 7486TIP3   OH243872   5.988   2.924  16.110 -0.0625  0.1955  0.1904
 7486TIP3    H143873   5.916   2.968  16.063  1.3480  0.5659 -1.6808
 7486TIP3    H243874   6.067   2.960  16.070  1.1792 -0.1407  2.3049
 7487TIP3   OH243875   0.132   0.704   1.850  0.0354  0.2288  0.1095
 7487TIP3    H143876   0.115   0.789   1.810  0.2790  0.4015  0.3674
 7487TIP3    H243877   0.122   0.641   1.779  0.4273  0.5288 -0.2088
 7488TIP3   OH243878   2.397   5.994   5.848 -0.2833 -0.6544  0.2216
 7488TIP3    H143879   2.358   6.048   5.779  0.2738  1.0130  1.1734
 7488TIP3    H243880   2.341   6.008   5.924 -0.0426 -1.3076  0.5249
 7489TIP3   OH243881   0.036   2.392  15.242 -0.4096 -0.0131  0.2377
 7489TIP3    H143882   0.107   2.455  15.231 -1.0941  0.6237 -0.6012
 7489TIP3    H243883   0.064   2.315  15.193 -0.2293  0.1766  0.0439
 7490TIP3   OH243884   6.515   2.102  13.395  0.3352  0.2116  0.5175
 7490TIP3    H143885   6.602   2.126  13.426  0.5402 -0.4211  0.4578
 7490TIP3    H243886   6.462   2.094  13.474  0.0097  1.8197  0.4650
 7491TIP3   OH243887   5.029   5.261  15.415 -0.6378  0.6565 -0.0165
 7491TIP3    H143888   4.974   5.327  15.456 -1.8115 -0.6348  0.5087
 7491TIP3    H243889   4.981   5.179  15.426  0.4034 -0.1586 -1.4039
 7492TIP3   OH243890   2.168   3.482  16.493  0.5430 -0.1957  0.2043
 7492TIP3    H143891   2.146   3.537  16.568 -0.3877 -0.7968  0.3781
 7492TIP3    H243892   2.169   3.393  16.528 -0.7783 -0.5683 -0.6857
 7493TIP3   OH243893   0.054   2.588   3.306 -0.1126  0.4041 -0.0018
 7493TIP3    H143894   0.130   2.535   3.283 -1.6453 -1.6363 -0.5766
 7493TIP3    H243895   0.034   2.637   3.227  1.1674  1.6803  0.4530
 7494TIP3   OH243896   0.378   6.420  11.872  0.1900  0.1801  0.1296
 7494TIP3    H143897   0.397   6.514  11.873 -0.6574  0.3607 -0.6551
 7494TIP3    H243898   0.362   6.400  11.780  1.5971 -0.9898  0.1326
 7495TIP3   OH243899   2.194   1.427   6.389 -0.2185 -0.2342  0.0563
 7495TIP3    H143900   2.112   1.384   6.365 -0.9215 -1.1887  3.8620
 7495TIP3    H243901   2.261   1.359   6.379 -0.4408 -0.5121  0.4658
 7496TIP3   OH243902   3.826   5.927   3.231  0.1313 -0.1946  0.2565
 7496TIP3    H143903   3.860   5.986   3.298 -1.8501  0.8211  0.4013
 7496TIP3    H243904   3.904   5.883   3.196  1.4703  1.3360  1.2490
 7497TIP3   OH243905   0.408   3.148  13.691  0.4785 -0.4145  0.3737
 7497TIP3    H143906   0.455   3.211  13.636  1.9128 -1.6157  0.1774
 7497TIP3    H243907   0.478   3.095  13.731 -0.7134 -2.0535  0.3162
 7498TIP3   OH243908   1.051   6.768  15.966 -0.3273  0.3104 -0.1010
 7498TIP3    H143909   1.053   6.749  15.873  0.8797  2.5543 -0.5588
 7498TIP3    H243910   1.142   6.764  15.994 -0.7685 -1.2826  1.1995
 7499TIP3   OH243911   1.658   4.387   3.366 -0.7706  0.1685 -0.0701
 7499TIP3    H143912   1.591   4.447   3.334  0.3728  1.2263 -0.5139
 7499TIP3    H243913   1.625   4.300   3.341 -1.1153  0.7925 -1.9077
 7500TIP3   OH243914   5.962   1.025   3.657  0.4314 -0.3005  0.7227
 7500TIP3    H143915   5.902   0.957   3.626  0.2073  0.2093  0.0344
 7500TIP3    H243916   5.931   1.106   3.616  2.3066 -0.2217 -0.6429
 7501TIP3   OH243917   3.980   5.129  17.179 -0.4501 -0.5906 -0.1027
 7501TIP3    H143918   3.924   5.088  17.245  1.6991 -0.9899  1.5296
 7501TIP3    H243919   4.040   5.060  17.152  1.4373  0.7186  0.6642
 7502TIP3   OH243920   3.825   5.331  15.153  0.4049 -0.5497  0.0229
 7502TIP3    H143921   3.810   5.269  15.225  0.6376 -1.1665 -0.4542
 7502TIP3    H243922   3.913   5.309  15.121  0.0934 -0.6306 -0.7854
 7503TIP3   OH243923   5.222   1.302  11.438  0.1475  0.2388  0.2654
 7503TIP3    H143924   5.245   1.387  11.475 -0.0013  0.0397  0.8308
 7503TIP3    H243925   5.128   1.305  11.427  0.3866  0.8914 -1.6381
 7504TIP3   OH243926   3.206   1.930  11.289 -0.0390 -0.0639 -0.0504
 7504TIP3    H143927   3.254   1.871  11.347  0.2304 -0.8862 -1.0981
 7504TIP3    H243928   3.129   1.881  11.263 -0.0822  0.2409 -0.5037
 7505TIP3   OH243929   3.627   0.275  11.043  0.2798 -0.6305  0.0220
 7505TIP3    H143930   3.587   0.352  11.084 -0.1554 -0.2884 -1.0420
 7505TIP3    H243931   3.716   0.273  11.079  0.7032  1.0818 -0.8708
 7506TIP3   OH243932   5.263   2.746  12.527 -0.0971 -0.1034  0.6707
 7506TIP3    H143933   5.252   2.787  12.613 -0.0289  0.0640  0.5998
 7506TIP3    H243934   5.296   2.816  12.471 -0.9880  0.0092  0.2867
 7507TIP3   OH243935   3.008   3.953  12.924  0.5902 -0.6032 -0.3774
 7507TIP3    H143936   3.015   4.030  12.868  0.0453 -0.9729 -0.9496
 7507TIP3    H243937   2.981   3.987  13.009 -0.2285 -0.2284 -0.7912
 7508TIP3   OH243938   2.688   3.247  13.691  0.0379  0.5617  0.2685
 7508TIP3    H143939   2.752   3.316  13.706 -0.3248  0.7575  0.9492
 7508TIP3    H243940   2.707   3.214  13.603  0.7467  0.9581  0.2745
 7509TIP3   OH243941   0.293   1.682  12.850 -0.4599  0.1314  0.1057
 7509TIP3    H143942   0.238   1.617  12.894  1.5378 -1.9215 -0.3195
 7509TIP3    H243943   0.371   1.633  12.825  0.8506  2.6030 -0.7380
 7510TIP3   OH243944   3.456   4.446   3.828 -0.1964 -0.2720  0.0809
 7510TIP3    H143945   3.391   4.476   3.764  2.5617  2.3224 -1.6371
 7510TIP3    H243946   3.496   4.369   3.788  1.3744  1.2231 -1.3327
 7511TIP3   OH243947   4.243   0.338   4.180  0.4072  0.0844  0.3320
 7511TIP3    H143948   4.285   0.311   4.262  0.5671 -0.7531 -0.0130
 7511TIP3    H243949   4.252   0.261   4.122 -1.7821 -0.1990  0.3176
 7512TIP3   OH243950   4.636   3.992  11.934 -0.0684 -0.2285 -0.4011
 7512TIP3    H143951   4.688   4.022  11.860  0.4557  1.3491  0.5801
 7512TIP3    H243952   4.679   4.031  12.010 -1.0932 -1.1467  0.6665
 7513TIP3   OH243953   0.500   3.355   1.693 -0.5116 -0.7426 -0.0337
 7513TIP3    H143954   0.466   3.271   1.723 -0.3190 -1.0191 -0.5778
 7513TIP3    H243955   0.532   3.398   1.772 -1.4050 -0.8110  0.3728
 7514TIP3   OH243956   5.129   1.083   0.251  0.2278 -0.2278  0.5501
 7514TIP3    H143957   5.039   1.074   0.220 -0.2314  1.1879  1.3716
 7514TIP3    H243958   5.183   1.054   0.178 -0.8493  1.4518 -0.9746
 7515TIP3   OH243959   3.713   5.307   4.874 -0.0383  0.0149 -0.2322
 7515TIP3    H143960   3.654   5.353   4.933  2.5104  1.2917  1.4112
 7515TIP3    H243961   3.720   5.219   4.911 -2.4956 -0.8487 -1.6477
 7516TIP3   OH243962   0.792   5.202   2.973  0.2250  0.1928  0.0706
 7516TIP3    H143963   0.705   5.168   2.993 -0.0078 -0.0484 -1.2461
 7516TIP3    H243964   0.794   5.206   2.877  1.7093  0.0678  0.0808
 7517TIP3   OH243965   3.006   0.661  15.864 -0.1639 -0.1397 -0.5630
 7517TIP3    H143966   3.047   0.651  15.950  0.3447  1.2854 -0.6232
 7517TIP3    H243967   3.068   0.622  15.803  1.0171  1.7754 -0.6238
 7518TIP3   OH243968   1.929   0.580   4.792  0.3392 -0.3151 -0.2005
 7518TIP3    H143969   1.976   0.660   4.817 -0.7978  0.1658  0.4042
 7518TIP3    H243970   1.872   0.561   4.866  1.6740 -2.5507  0.3162
 7519TIP3   OH243971   2.493   6.159  16.569  0.3527 -0.1806  0.1995
 7519TIP3    H143972   2.508   6.066  16.550 -1.6671 -0.3965 -0.4156
 7519TIP3    H243973   2.489   6.163  16.665 -0.0267 -0.8068  0.2133
 7520TIP3   OH243974   5.043   2.935  14.472  0.3055  0.2985  0.1503
 7520TIP3    H143975   5.014   2.950  14.562  0.5142  0.9346  0.1159
 7520TIP3    H243976   4.972   2.886  14.431 -0.0889  0.5993  0.4725
 7521TIP3   OH243977   3.959   3.823  13.178 -0.8572  0.5312 -0.3903
 7521TIP3    H143978   3.941   3.736  13.142 -0.1747  0.3903 -0.4029
 7521TIP3    H243979   4.046   3.845  13.144  0.8042 -0.5674  2.9107
 7522TIP3   OH243980   6.743   5.223  15.027  0.2011  0.0755 -0.0354
 7522TIP3    H143981   6.756   5.243  15.120  0.2065  0.6329 -0.1563
 7522TIP3    H243982   6.805   5.153  15.009 -0.8171 -1.0604  0.7466
 7523TIP3   OH243983   4.723   0.352   5.525  0.7292  0.0392 -0.2797
 7523TIP3    H143984   4.811   0.380   5.549  0.6617 -1.4884  1.8947
 7523TIP3    H243985   4.715   0.264   5.562 -1.4621 -0.1211 -1.0529
 7524TIP3   OH243986   5.770   5.168   2.616  0.4510 -0.1438 -0.2511
 7524TIP3    H143987   5.795   5.098   2.676  2.3569  0.8204  0.1440
 7524TIP3    H243988   5.837   5.165   2.547  0.9592  1.6827  0.1267
 7525TIP3   OH243989   6.344   4.132   6.053 -0.9344  0.3869 -0.3527
 7525TIP3    H143990   6.346   4.178   6.137  1.1144 -1.2377  0.5566
 7525TIP3    H243991   6.327   4.040   6.077 -1.3704  0.0799 -1.8107
 7526TIP3   OH243992   4.522   6.299   3.200  0.1299 -0.2867 -0.4995
 7526TIP3    H143993   4.505   6.390   3.180  2.2438 -0.3224 -2.6052
 7526TIP3    H243994   4.447   6.271   3.252  0.0779  2.9870  1.2807
 7527TIP3   OH243995   4.049   3.189   2.758 -0.2866  0.1295 -0.5842
 7527TIP3    H143996   4.144   3.188   2.748 -0.1885  1.3106  0.1615
 7527TIP3    H243997   4.028   3.106   2.801  0.2122 -0.9213 -2.3137
 7528TIP3   OH243998   5.851   4.387  13.240  0.1369  0.3871  0.5250
 7528TIP3    H143999   5.916   4.376  13.170 -0.2535  0.8033  0.0983
 7528TIP3    H244000   5.854   4.480  13.262 -1.0492  0.6113 -0.2156
 7529TIP3   OH244001   0.678   5.385  12.455 -0.3534  0.0506  0.2983
 7529TIP3    H144002   0.622   5.449  12.501  2.7195  1.9531  1.5657
 7529TIP3    H244003   0.756   5.378  12.510 -0.0174 -3.8443 -0.5299
 7530TIP3   OH244004   0.881   0.349   4.144 -0.0253 -0.5385  0.1050
 7530TIP3    H144005   0.807   0.389   4.189 -1.0437 -2.9509  0.6682
 7530TIP3    H244006   0.939   0.321   4.214 -0.2947 -1.8268 -0.1735
 7531TIP3   OH244007   4.733   4.719  11.237  0.0350 -0.5734 -0.3249
 7531TIP3    H144008   4.691   4.725  11.152  1.1859  0.7484 -0.8095
 7531TIP3    H244009   4.680   4.773  11.295 -0.2699 -0.8053 -0.3863
 7532TIP3   OH244010   2.776   2.679   1.039  0.1295  0.1794 -0.2194
 7532TIP3    H144011   2.823   2.664   0.957  0.3577 -1.8130  0.2422
 7532TIP3    H244012   2.713   2.607   1.044 -1.1305  1.3113  0.4776
 7533TIP3   OH244013   3.618   1.803  14.334  0.1347 -0.5109 -0.1518
 7533TIP3    H144014   3.554   1.831  14.269 -0.3831 -0.8848  0.1899
 7533TIP3    H244015   3.696   1.781  14.283  0.4251  1.1653 -0.4604
 7534TIP3   OH244016   3.885   4.823   5.716  0.0065  0.4926  0.5688
 7534TIP3    H144017   3.914   4.826   5.807  1.7868  3.9866 -0.0319
 7534TIP3    H244018   3.897   4.731   5.690  1.2393 -0.1555  3.3034
 7535TIP3   OH244019   6.538   4.302  10.442 -0.2892  0.1587  0.1342
 7535TIP3    H144020   6.457   4.256  10.461  0.1691 -0.4894  0.5249
 7535TIP3    H244021   6.606   4.235  10.445  0.2041  0.6077 -0.6549
 7536TIP3   OH244022   4.947   4.310   1.909  0.1668  0.6191 -0.1027
 7536TIP3    H144023   5.027   4.261   1.929  0.2197  0.8611  0.2920
 7536TIP3    H244024   4.978   4.387   1.862 -0.0862 -0.6686 -2.4477
 7537TIP3   OH244025   3.668   2.335   1.017  0.2582  0.4301 -0.0602
 7537TIP3    H144026   3.651   2.318   1.109 -0.7910  0.1591 -0.3008
 7537TIP3    H244027   3.707   2.423   1.016 -2.0279  1.4919  0.4293
 7538TIP3   OH244028   4.890   6.701   4.813 -0.0396 -0.1322 -0.1528
 7538TIP3    H144029   4.852   6.646   4.745  2.1299 -0.4619 -1.1390
 7538TIP3    H244030   4.962   6.648   4.849  1.2865  1.5455 -0.2793
 7539TIP3   OH244031   1.334   5.912  13.815  0.4531 -0.8778 -0.4992
 7539TIP3    H144032   1.353   5.875  13.729 -0.4381 -2.6418  0.0397
 7539TIP3    H244033   1.239   5.927  13.814 -0.1813 -4.1041  1.3200
 7540TIP3   OH244034   1.713   0.903  14.197  0.7212 -0.4854 -0.1806
 7540TIP3    H144035   1.680   0.816  14.173  0.2162  0.3040 -2.4947
 7540TIP3    H244036   1.797   0.885  14.239  0.3154 -2.1352 -0.0089
 7541TIP3   OH244037   5.229   5.323   5.885 -0.0713  0.2564  0.2151
 7541TIP3    H144038   5.228   5.377   5.806 -0.0398  0.7523  0.5540
 7541TIP3    H244039   5.171   5.250   5.865  1.1224 -0.4266 -0.8374
 7542TIP3   OH244040   0.778   4.240   3.854 -0.0108 -0.4688 -0.1642
 7542TIP3    H144041   0.684   4.258   3.859  0.1310  0.4656 -0.7970
 7542TIP3    H244042   0.788   4.184   3.778 -0.2046 -1.6075  0.6383
 7543TIP3   OH244043   1.072   6.743   3.977 -0.3951 -0.3096  0.7377
 7543TIP3    H144044   1.059   6.745   4.072 -2.7943 -0.6918  0.4623
 7543TIP3    H244045   1.109   6.829   3.956  0.6342 -0.4107  2.0663
 7544TIP3   OH244046   1.890   1.067  16.511 -0.7161  0.2567 -0.4603
 7544TIP3    H144047   1.811   1.087  16.460 -0.1905  2.0799 -0.5924
 7544TIP3    H244048   1.857   1.030  16.593 -1.6414 -0.5735 -1.1938
 7545TIP3   OH244049   0.801   0.891  17.128  0.0311  0.2541 -0.3935
 7545TIP3    H144050   0.753   0.927  17.203 -3.8586  0.9183 -2.9951
 7545TIP3    H244051   0.751   0.813  17.104  1.8772 -0.5726 -1.6087
 7546TIP3   OH244052   5.960   6.507  11.343  0.5892 -0.5878 -0.5186
 7546TIP3    H144053   6.042   6.557  11.347 -0.0904  0.5323 -0.3164
 7546TIP3    H244054   5.938   6.489  11.434  1.5371 -2.4495 -0.6462
 7547TIP3   OH244055   6.115   5.608  15.359 -0.3055  0.0648  0.2474
 7547TIP3    H144056   6.037   5.563  15.391 -0.0617  0.2020  1.0327
 7547TIP3    H244057   6.125   5.683  15.417 -0.2597  0.6930 -0.5767
 7548TIP3   OH244058   3.605   0.162   2.558  0.4470 -0.2583 -0.1747
 7548TIP3    H144059   3.529   0.180   2.614  1.4663 -0.5360  1.3170
 7548TIP3    H244060   3.569   0.156   2.470 -1.3469 -0.9794  0.5970
 7549TIP3   OH244061   5.695   1.838   3.727 -0.0281 -0.0643  0.3273
 7549TIP3    H144062   5.751   1.902   3.771  1.4626 -1.2840  0.2907
 7549TIP3    H244063   5.737   1.824   3.642 -1.2522  0.1133 -0.3206
 7550TIP3   OH244064   1.802   2.066   3.637 -0.1685 -0.3906  0.0716
 7550TIP3    H144065   1.856   2.022   3.571  0.1138  0.2999 -0.1682
 7550TIP3    H244066   1.737   2.001   3.662 -1.0730 -0.2433 -1.8241
 7551TIP3   OH244067   6.601   4.902  10.839 -0.4840  0.3227  0.2910
 7551TIP3    H144068   6.677   4.907  10.897 -0.0759  1.8852 -0.3363
 7551TIP3    H244069   6.579   4.993  10.822 -1.7791 -0.1288 -0.4758
 7552TIP3   OH244070   2.357   5.783   2.110  0.2070  0.4893  0.1127
 7552TIP3    H144071   2.315   5.807   2.027 -1.5825 -0.7241  0.6377
 7552TIP3    H244072   2.333   5.854   2.170 -0.6868  0.0696  0.2659
 7553TIP3   OH244073   6.238   1.310  17.101 -0.2495  0.1776  0.3748
 7553TIP3    H144074   6.235   1.370  17.176  0.4086  1.0458 -0.2683
 7553TIP3    H244075   6.328   1.278  17.100 -0.2827  0.0924  0.0232
 7554TIP3   OH244076   3.445   5.967   4.566  0.4520 -0.1236  0.1230
 7554TIP3    H144077   3.527   5.926   4.595  0.2993 -0.2348  0.3961
 7554TIP3    H244078   3.383   5.950   4.637  0.0949 -0.3364 -0.2383
 7555TIP3   OH244079   5.876   0.188  16.630 -0.0189  0.0620  0.5817
 7555TIP3    H144080   5.892   0.107  16.678 -1.0980 -0.8843 -0.6341
 7555TIP3    H244081   5.962   0.228  16.622  0.9397 -2.2621 -1.0921
 7556TIP3   OH244082   5.523   6.080   1.032 -0.5202 -0.4110  0.2363
 7556TIP3    H144083   5.527   6.175   1.025 -0.4732 -0.3927  0.5003
 7556TIP3    H244084   5.571   6.060   1.112  1.5492 -0.8409 -1.0751
 7557TIP3   OH244085   6.394   0.015   4.890 -1.1637  0.6237 -0.6238
 7557TIP3    H144086   6.313   0.058   4.915 -0.8596  1.4137 -0.9789
 7557TIP3    H244087   6.463   0.066   4.931 -0.8109  0.2862 -0.7864
 7558TIP3   OH244088   3.711   1.570   4.816 -0.2171  0.1860 -0.6758
 7558TIP3    H144089   3.710   1.510   4.741 -0.9816  1.1935 -1.4873
 7558TIP3    H244090   3.665   1.521   4.885 -0.7519 -0.2063 -1.2987
 7559TIP3   OH244091   6.677   5.828  16.976 -0.1896  0.3975 -0.5258
 7559TIP3    H144092   6.688   5.855  16.885 -1.7774 -2.9177 -1.7968
 7559TIP3    H244093   6.590   5.859  17.001  0.4171  1.6848  0.0388
 7560TIP3   OH244094   1.055   4.892  12.092 -0.4519 -0.1390  0.9002
 7560TIP3    H144095   1.146   4.923  12.090  0.3019 -2.3107  0.5200
 7560TIP3    H244096   1.027   4.892  12.001 -0.6911  0.1235  0.9734
 7561TIP3   OH244097   2.830   2.573  13.159 -0.0768  0.1530  0.2364
 7561TIP3    H144098   2.775   2.495  13.163 -0.6384  0.5221 -0.1550
 7561TIP3    H244099   2.769   2.646  13.173 -0.0438  0.7066 -2.2857
 7562TIP3   OH244100   3.968   1.980  14.572  0.0448 -1.0223 -0.4307
 7562TIP3    H144101   3.978   1.905  14.629  1.3219 -0.4399  0.1178
 7562TIP3    H244102   4.057   2.001  14.542 -0.0618  1.2902  0.7575
 7563TIP3   OH244103   3.999   0.734  16.685 -0.1494 -0.5985  0.0622
 7563TIP3    H144104   4.071   0.769  16.738  0.0455  0.1024 -0.6671
 7563TIP3    H244105   3.990   0.643  16.715  1.9354 -1.1196 -0.8078
 7564TIP3   OH244106   5.764   0.590  13.694  0.3660  0.1052  0.2509
 7564TIP3    H144107   5.851   0.552  13.678 -1.2036 -2.6276 -2.2204
 7564TIP3    H244108   5.771   0.680  13.661  2.4260  0.0975  0.6134
 7565TIP3   OH244109   3.072   3.586   1.486  0.6566 -0.4319 -0.6236
 7565TIP3    H144110   3.131   3.614   1.416  1.0096  1.3650  0.3505
 7565TIP3    H244111   3.004   3.653   1.489  2.1779  1.0857  2.5553
 7566TIP3   OH244112   5.752   5.791  16.817  0.0373 -0.2828 -0.0474
 7566TIP3    H144113   5.668   5.798  16.861 -0.2545 -0.8431 -0.5169
 7566TIP3    H244114   5.816   5.785  16.889 -0.2751  0.5886  0.3062
 7567TIP3   OH244115   5.428   5.540  11.351 -0.1925  0.5286  0.3060
 7567TIP3    H144116   5.463   5.510  11.267 -1.6880 -1.2878  0.2930
 7567TIP3    H244117   5.359   5.477  11.372 -0.4317  1.4658  2.4786
 7568TIP3   OH244118   4.857   1.519   5.326  0.2180 -0.2072  0.3197
 7568TIP3    H144119   4.801   1.441   5.324  1.1659 -0.9057  0.3299
 7568TIP3    H244120   4.857   1.551   5.236  1.0559 -1.1431 -0.0378
 7569TIP3   OH244121   6.452   4.082   5.630  0.2631  0.1972  0.1208
 7569TIP3    H144122   6.372   4.135   5.619  0.6817  0.1001 -4.0719
 7569TIP3    H244123   6.422   4.003   5.675 -2.0106  0.2740 -1.1752
 7570TIP3   OH244124   0.225   3.551   2.764  0.5773  0.0498  0.2821
 7570TIP3    H144125   0.288   3.611   2.725 -0.5358  0.5897 -0.7315
 7570TIP3    H244126   0.277   3.475   2.791  1.6011  0.3262 -0.8666
 7571TIP3   OH244127   1.993   4.646  10.726 -0.3344 -0.3594 -0.2497
 7571TIP3    H144128   1.987   4.551  10.730  0.1936 -0.4104 -0.6902
 7571TIP3    H244129   2.073   4.664  10.677 -0.4598  0.3124 -0.2230
 7572TIP3   OH244130   0.168   2.771  12.043 -0.0557  0.1959 -0.1096
 7572TIP3    H144131   0.238   2.814  12.091 -0.2773 -0.2097  0.5751
 7572TIP3    H244132   0.174   2.807  11.954  1.1018  0.0455 -0.0863
 7573TIP3   OH244133   2.589   5.419   2.634  0.2816  0.5007  0.0725
 7573TIP3    H144134   2.661   5.356   2.630 -0.3390 -0.2166  0.0746
 7573TIP3    H244135   2.618   5.491   2.578  0.6796 -0.1287 -0.5575
 7574TIP3   OH244136   2.898   0.818   1.675 -0.3945  0.1772  0.0674
 7574TIP3    H144137   2.870   0.827   1.584  0.4454  0.3530 -0.1802
 7574TIP3    H244138   2.843   0.748   1.710 -0.5076 -0.1059 -0.6610
 7575TIP3   OH244139   2.535   5.376   2.129  0.4189  0.2628 -0.0898
 7575TIP3    H144140   2.451   5.339   2.157  0.7245  0.7284  1.5331
 7575TIP3    H244141   2.557   5.329   2.049 -1.7976  0.7281 -1.0034
 7576TIP3   OH244142   1.126   3.318  12.808 -0.2678  0.4387  0.2888
 7576TIP3    H144143   1.203   3.371  12.786  0.1244 -0.2133  0.0686
 7576TIP3    H244144   1.162   3.239  12.848 -0.9295  1.1221  2.3089
 7577TIP3   OH244145   2.147   2.315  13.557  0.0486 -0.2203  0.5190
 7577TIP3    H144146   2.116   2.242  13.612 -0.3451  1.5187  2.6817
 7577TIP3    H244147   2.159   2.387  13.619  3.1333  0.7539 -1.1452
 7578TIP3   OH244148   1.670   0.582   0.037  0.2355 -0.1475 -0.3353
 7578TIP3    H144149   1.727   0.597  -0.038 -0.0082  1.9688 -0.1371
 7578TIP3    H244150   1.593   0.537   0.002 -0.3656  1.7859 -1.5660
 7579TIP3   OH244151   4.122   5.589   3.679  0.3537  0.2357  0.2707
 7579TIP3    H144152   4.196   5.598   3.619  0.1668  1.4166  0.1965
 7579TIP3    H244153   4.049   5.631   3.633 -0.4462 -1.2199  0.1982
 7580TIP3   OH244154   6.594   0.234   2.647 -0.0040  0.3590 -0.2254
 7580TIP3    H144155   6.676   0.237   2.598  0.0581  1.0139 -0.0860
 7580TIP3    H244156   6.527   0.257   2.583 -0.0983 -0.3030 -0.3707
 7581TIP3   OH244157   1.518   0.330  16.232  0.6973 -0.0154 -0.3130
 7581TIP3    H144158   1.519   0.264  16.301  1.6002  0.1085 -0.2148
 7581TIP3    H244159   1.471   0.404  16.270 -1.8727 -1.2217 -0.9957
 7582TIP3   OH244160   1.802   4.620   4.241  0.6653  0.3204 -0.1617
 7582TIP3    H144161   1.818   4.635   4.334 -1.5176  3.4587 -0.2172
 7582TIP3    H244162   1.887   4.634   4.200  1.4481 -0.1636  1.2625
 7583TIP3   OH244163   4.740   6.255   5.724  0.0828  0.0794 -0.2071
 7583TIP3    H144164   4.717   6.195   5.653  0.0225  0.4342 -0.4866
 7583TIP3    H244165   4.710   6.211   5.803 -0.3352 -0.0735 -0.4503
 7584TIP3   OH244166   0.926   0.919  11.563 -0.1964  0.7518  0.2943
 7584TIP3    H144167   0.951   0.985  11.499  3.3691  0.1914  1.0010
 7584TIP3    H244168   0.909   0.968  11.643  2.7008  0.8253  0.8878
 7585TIP3   OH244169   4.998   1.708   0.028 -0.2153 -0.0809 -0.2647
 7585TIP3    H144170   4.986   1.804   0.027 -0.5890 -0.1095  0.4325
 7585TIP3    H244171   4.911   1.674   0.049  0.4365 -0.4525  2.0139
 7586TIP3   OH244172   4.729   0.233   1.058 -0.2608  0.3872 -0.1376
 7586TIP3    H144173   4.720   0.323   1.028 -1.9355 -0.1186 -1.2293
 7586TIP3    H244174   4.642   0.210   1.090  0.2253 -0.7485  0.3800
 7587TIP3   OH244175   5.113   1.610   6.514 -0.1008  0.7185 -0.7019
 7587TIP3    H144176   5.127   1.646   6.601 -0.4117  1.8910 -1.1369
 7587TIP3    H244177   5.047   1.666   6.474 -2.3974 -1.7491 -0.5267
 7588TIP3   OH244178   4.265   5.112  14.328 -0.3579 -0.4474  0.4782
 7588TIP3    H144179   4.329   5.047  14.356 -0.6505 -0.9807 -0.0651
 7588TIP3    H244180   4.223   5.073  14.251  0.5951  1.0648 -0.8529
 7589TIP3   OH244181   1.203   3.562  17.236  0.1913  0.2527  0.2605
 7589TIP3    H144182   1.272   3.613  17.193 -1.0036  0.2236 -1.7691
 7589TIP3    H244183   1.193   3.603  17.322  2.9967 -0.0041  0.7783
 7590TIP3   OH244184   1.756   0.616  14.681  0.5417 -0.2388  0.3462
 7590TIP3    H144185   1.747   0.527  14.649 -0.1421  0.8687 -2.6901
 7590TIP3    H244186   1.670   0.636  14.720  0.9739 -1.1515  1.8301
 7591TIP3   OH244187   1.634   2.655   2.702  0.1390  0.7108 -0.2417
 7591TIP3    H144188   1.604   2.688   2.618 -1.1084  0.3721  0.0638
 7591TIP3    H244189   1.607   2.563   2.703  0.2700  0.6768  0.4645
 7592TIP3   OH244190   4.226   2.052  13.924  0.3665 -0.4903 -0.5768
 7592TIP3    H144191   4.261   2.127  13.972 -0.6670 -0.3805  0.0245
 7592TIP3    H244192   4.168   2.091  13.859  0.8569 -0.7046 -1.1486
 7593TIP3   OH244193   4.729   6.371  16.868  0.1519  0.1230  0.3411
 7593TIP3    H144194   4.797   6.366  16.801 -0.9926 -0.7019 -0.7737
 7593TIP3    H244195   4.774   6.348  16.950  0.9497 -1.6321 -0.5679
 7594TIP3   OH244196   1.778   1.080  16.269 -0.0632 -0.5505 -0.0758
 7594TIP3    H144197   1.864   1.099  16.232  0.3218 -0.1216  1.0239
 7594TIP3    H244198   1.718   1.088  16.194  0.0999  4.7953  0.2104
 7595TIP3   OH244199   3.527   2.268  13.281  0.6647 -0.6110  0.4326
 7595TIP3    H144200   3.462   2.328  13.245  0.8246  1.0353  2.7953
 7595TIP3    H244201   3.476   2.200  13.323  0.4732 -0.0973  1.0307
 7596TIP3   OH244202   1.952   2.569  16.166 -0.1845 -0.2744  0.7935
 7596TIP3    H144203   2.039   2.587  16.130 -1.8826  2.4065 -2.2482
 7596TIP3    H244204   1.920   2.654  16.195 -2.9128 -0.7003 -0.8008
 7597TIP3   OH244205   3.441   5.514  12.269  0.2170 -0.1350  0.1981
 7597TIP3    H144206   3.409   5.541  12.183  1.4849 -0.5538 -0.4028
 7597TIP3    H244207   3.449   5.419  12.264 -0.2079 -0.2229  0.9636
 7598TIP3   OH244208   4.922   6.122  10.374 -0.2639  0.7472 -0.4927
 7598TIP3    H144209   4.977   6.045  10.392 -0.3408  0.6603 -0.6220
 7598TIP3    H244210   4.833   6.088  10.376 -0.3354  0.9787  0.1513
 7599TIP3   OH244211   5.538   1.692  11.999 -0.5364  0.6375  0.3903
 7599TIP3    H144212   5.569   1.747  12.070  0.6339 -0.0976  0.4662
 7599TIP3    H244213   5.485   1.625  12.042  0.7319 -0.2100  0.6625
 7600TIP3   OH244214   1.460   0.225   0.705 -0.1353  0.4673  0.0378
 7600TIP3    H144215   1.536   0.182   0.668 -0.3617  1.5588 -1.7173
 7600TIP3    H244216   1.385   0.180   0.665 -0.3974  0.6669  0.3012
 7601TIP3   OH244217   0.505   6.366   3.910 -0.0841  0.3222  0.0241
 7601TIP3    H144218   0.509   6.272   3.895 -0.4743  0.2811  0.1546
 7601TIP3    H244219   0.426   6.378   3.964  0.4187  0.6391  0.6911
 7602TIP3   OH244220   2.308   0.772  15.967 -0.4853  0.2944 -0.1856
 7602TIP3    H144221   2.323   0.680  15.990 -1.4193 -0.2458 -1.6841
 7602TIP3    H244222   2.247   0.803  16.034 -0.3650 -0.2481  0.1786
 7603TIP3   OH244223   0.619   2.323  12.039 -0.0705  0.2145 -0.1698
 7603TIP3    H144224   0.552   2.262  12.009 -2.2502  2.1481  0.6002
 7603TIP3    H244225   0.599   2.405  11.993  2.7396  0.4351 -1.1216
 7604TIP3   OH244226   5.230   0.218  16.697 -0.1663 -0.3425  0.9577
 7604TIP3    H144227   5.134   0.222  16.702 -0.1812 -1.1849  1.2785
 7604TIP3    H244228   5.255   0.305  16.666 -1.0610 -0.2447  0.4890
 7605TIP3   OH244229   6.173   3.075  14.496 -0.1959 -0.8006  0.2609
 7605TIP3    H144230   6.202   3.066  14.405  0.9574 -2.2521  0.7604
 7605TIP3    H244231   6.081   3.046  14.495 -0.4959  0.1467 -0.6122
 7606TIP3   OH244232   6.046   6.086   2.655  0.2786 -0.5667 -0.4271
 7606TIP3    H144233   6.034   6.040   2.572  0.7042 -3.3014  0.9932
 7606TIP3    H244234   5.983   6.045   2.714 -0.0640  1.4043  0.6248
 7607TIP3   OH244235   1.678   3.019  15.076 -0.3458  0.1414 -0.3401
 7607TIP3    H144236   1.699   3.071  14.999 -0.0305 -0.8717 -0.9469
 7607TIP3    H244237   1.698   2.929  15.050 -0.1372 -0.1905  0.9572
 7608TIP3   OH244238   0.702   2.143   3.960 -0.2193  0.0846 -0.0985
 7608TIP3    H144239   0.654   2.208   4.011 -0.2639  0.1439 -0.2155
 7608TIP3    H244240   0.695   2.173   3.870  0.8209  0.5971 -0.0183
 7609TIP3   OH244241   1.151   2.213  13.460  0.6592 -0.3286 -0.0712
 7609TIP3    H144242   1.139   2.137  13.404 -0.8153 -1.0170  1.1348
 7609TIP3    H244243   1.154   2.287  13.400 -0.2310 -1.1210 -1.1061
 7610TIP3   OH244244   1.032   0.435   3.596  0.1863  0.1939  0.1584
 7610TIP3    H144245   1.029   0.369   3.665  1.4375 -0.7805 -0.6897
 7610TIP3    H244246   1.039   0.384   3.515  0.7216  1.3581 -0.5351
 7611TIP3   OH244247   6.287   0.423  16.344 -0.0545  0.3263  0.5482
 7611TIP3    H144248   6.219   0.471  16.295 -1.0627 -0.8418  0.7880
 7611TIP3    H244249   6.250   0.412  16.432  0.6861  0.1851  0.8428
 7612TIP3   OH244250   6.265   2.042   5.518 -0.3105  0.2667  0.0573
 7612TIP3    H144251   6.312   2.068   5.439 -0.3127 -1.9364 -0.7141
 7612TIP3    H244252   6.191   2.103   5.523  0.0260  0.8071 -1.3154
 7613TIP3   OH244253   3.820   3.210  12.907  0.2489 -0.1515  0.0460
 7613TIP3    H144254   3.812   3.298  12.870 -0.5202 -0.9428 -1.7429
 7613TIP3    H244255   3.868   3.160  12.840 -0.5473 -1.4358  0.4178
 7614TIP3   OH244256   1.779   1.616  17.031  0.1445 -0.0171 -0.1983
 7614TIP3    H144257   1.870   1.600  17.006  0.8139  0.8239  1.6514
 7614TIP3    H244258   1.749   1.534  17.070  0.0026 -0.3940 -1.0892
 7615TIP3   OH244259   2.723   6.687  17.213  0.1587 -0.0068  0.2019
 7615TIP3    H144260   2.666   6.741  17.267 -1.3140 -1.3267 -0.0101
 7615TIP3    H244261   2.773   6.633  17.275  1.5828  1.5160  0.4066
 7616TIP3   OH244262   4.165   3.926  14.859 -0.0372 -0.1528  0.1933
 7616TIP3    H144263   4.248   3.882  14.847  0.5228  0.8605  0.2426
 7616TIP3    H244264   4.176   3.976  14.941 -1.3202 -1.4295  1.1587
 7617TIP3   OH244265   2.168   4.108  17.237 -0.3560  0.5993 -0.0575
 7617TIP3    H144266   2.165   4.130  17.144  1.3966  0.2125 -0.2374
 7617TIP3    H244267   2.082   4.131  17.271 -0.9037  1.0378 -1.7127
 7618TIP3   OH244268   5.485   5.712  10.810  0.1870  0.0798 -0.1319
 7618TIP3    H144269   5.487   5.684  10.902  0.3644 -0.1911 -0.2183
 7618TIP3    H244270   5.569   5.683  10.775  0.5287  1.0705 -0.1248
 7619TIP3   OH244271   0.561   0.007  11.327  0.7580 -0.4649 -0.0785
 7619TIP3    H144272   0.633  -0.055  11.340  2.4471  1.2216 -1.0685
 7619TIP3    H244273   0.505  -0.036  11.261  1.2099 -1.4921  0.1872
 7620TIP3   OH244274   6.340   0.768   1.676 -0.2193  0.4249 -0.0221
 7620TIP3    H144275   6.326   0.846   1.622  1.0169  1.6893  1.4271
 7620TIP3    H244276   6.279   0.777   1.749  0.5779  0.5281  0.6444
 7621TIP3   OH244277   6.638   0.933  14.148 -0.7747 -0.1993 -0.3396
 7621TIP3    H144278   6.681   1.016  14.167 -0.3575 -0.4129 -0.3483
 7621TIP3    H244279   6.689   0.895  14.077  0.7904 -1.8035  1.5904
 7622TIP3   OH244280   2.649   0.891   1.345  1.0192  0.3436 -0.0616
 7622TIP3    H144281   2.671   0.811   1.297  1.6378  0.6072 -0.2268
 7622TIP3    H244282   2.605   0.861   1.424  0.4558 -0.1230 -0.5519
 7623TIP3   OH244283   4.593   0.337   4.219  0.3531 -0.3246 -0.7814
 7623TIP3    H144284   4.674   0.286   4.224  0.9941  0.7650  0.3839
 7623TIP3    H244285   4.568   0.334   4.127  0.9041 -1.9126 -0.8945
 7624TIP3   OH244286   4.826   2.514  13.720 -0.5200 -0.8768 -0.3490
 7624TIP3    H144287   4.805   2.423  13.743 -2.3706 -0.9649 -2.2580
 7624TIP3    H244288   4.742   2.553  13.699  0.1468  1.5754  1.3126
 7625TIP3   OH244289   0.196   4.544   5.294 -0.5507  0.3278  0.4374
 7625TIP3    H144290   0.134   4.481   5.330  0.3877 -0.2339  1.1198
 7625TIP3    H244291   0.227   4.504   5.213 -0.0608 -0.0350  0.7986
 7626TIP3   OH244292   3.280   6.040  15.044 -0.3506 -0.0263  0.0795
 7626TIP3    H144293   3.344   5.995  14.988 -1.4677 -1.1334 -0.3452
 7626TIP3    H244294   3.199   5.991  15.030 -0.8756  0.3034  1.9266
 7627TIP3   OH244295   0.478   0.224  17.218  0.1198  0.1879 -0.1731
 7627TIP3    H144296   0.560   0.187  17.250  0.1506  0.7306  0.3631
 7627TIP3    H244297   0.438   0.152  17.168 -0.0411 -0.7542  1.2611
 7628TIP3   OH244298   6.082   6.599  16.673  0.0648  0.0457  0.3723
 7628TIP3    H144299   5.989   6.596  16.695 -0.2557  0.3522 -0.9088
 7628TIP3    H244300   6.108   6.690  16.691  0.4282 -0.3467  1.9138
 7629TIP3   OH244301   2.627   1.004  11.021  0.2031  0.0856 -0.0880
 7629TIP3    H144302   2.683   1.078  10.997  0.4954  0.3676  1.4477
 7629TIP3    H244303   2.539   1.031  10.994  0.1942  1.3020  1.0969
 7630TIP3   OH244304   3.747   1.896   3.141 -0.0049 -0.1310 -0.2244
 7630TIP3    H144305   3.733   1.925   3.051  0.1534  1.4936  0.2658
 7630TIP3    H244306   3.789   1.810   3.132  1.8169  0.8783 -1.7212
 7631TIP3   OH244307   2.566   5.146   1.135  0.6855 -0.4984  0.0117
 7631TIP3    H144308   2.539   5.103   1.054  0.0167 -1.5994  0.8109
 7631TIP3    H244309   2.635   5.090   1.170  1.6248  0.4711 -0.2533
 7632TIP3   OH244310   5.940   0.434  13.555 -0.0478  0.3440  0.1235
 7632TIP3    H144311   5.955   0.521  13.518 -1.0358  0.4408 -0.0455
 7632TIP3    H244312   6.017   0.418  13.610  0.8754  0.6751 -1.0580
 7633TIP3   OH244313   0.963   5.038  12.992 -0.0821  0.0887  0.1478
 7633TIP3    H144314   0.950   5.052  12.898  0.7136  0.6387  0.1151
 7633TIP3    H244315   1.017   5.112  13.020 -2.7929  1.5887  1.6192
 7634TIP3   OH244316   3.315   4.903  13.493  0.2927 -0.1401 -0.3140
 7634TIP3    H144317   3.237   4.957  13.479 -0.3271 -0.6214  1.2148
 7634TIP3    H244318   3.293   4.819  13.453 -0.4525 -0.6664  1.1805
 7635TIP3   OH244319   1.662   0.022   4.203 -0.0499 -0.0105 -0.3174
 7635TIP3    H144320   1.639   0.107   4.241  1.1902  0.1531  0.0656
 7635TIP3    H244321   1.577  -0.015   4.177 -0.5260  1.7681 -1.4295
 7636TIP3   OH244322   5.392   2.049   3.666  0.0771 -0.5071 -0.4696
 7636TIP3    H144323   5.322   2.044   3.601  0.8683 -1.2555 -1.2883
 7636TIP3    H244324   5.416   2.142   3.667 -1.4643 -0.0974  0.4264
 7637TIP3   OH244325   1.093   2.341   1.287  0.6877 -0.1193 -0.4216
 7637TIP3    H144326   1.032   2.267   1.287  1.1625 -0.5099 -1.3032
 7637TIP3    H244327   1.059   2.399   1.219  1.2594 -0.3108 -0.8772
 7638TIP3   OH244328   0.983   2.578  15.263 -0.2763  0.3182  0.5327
 7638TIP3    H144329   1.022   2.499  15.300  2.0102  1.1222 -0.0673
 7638TIP3    H244330   1.000   2.646  15.328 -1.8277  0.4237  0.8392
 7639TIP3   OH244331   1.123   1.662   1.931 -0.7741 -0.0945 -0.0972
 7639TIP3    H144332   1.050   1.620   1.976 -0.5267  1.2244  1.5711
 7639TIP3    H244333   1.162   1.591   1.879 -1.6431 -1.4245  1.0046
 7640TIP3   OH244334   1.085   0.398  13.541  0.7241  0.2751 -0.3628
 7640TIP3    H144335   1.178   0.380  13.526  0.2961  0.0593 -3.1399
 7640TIP3    H244336   1.084   0.484  13.582  2.1786  0.1074  0.0619
 7641TIP3   OH244337   0.019   6.310   6.073 -0.5722  0.5939  0.7998
 7641TIP3    H144338  -0.032   6.233   6.050 -0.5729  1.1463 -1.1899
 7641TIP3    H244339   0.042   6.298   6.165 -3.6921  0.0016  1.5366
 7642TIP3   OH244340   0.077   1.959   5.314 -0.2283  0.5169  0.1714
 7642TIP3    H144341   0.076   1.864   5.312 -1.3385  0.5124  0.4082
 7642TIP3    H244342  -0.013   1.984   5.292  0.4890  1.5506 -1.6948
 7643TIP3   OH244343   0.752   4.309  17.188  0.2793 -0.1343  0.7097
 7643TIP3    H144344   0.832   4.257  17.199 -0.2483 -1.8290 -2.6230
 7643TIP3    H244345   0.782   4.399  17.183  1.9270 -0.6949  0.3072
 7644TIP3   OH244346   5.074   1.567  16.329  0.0161  0.4978  0.0589
 7644TIP3    H144347   5.034   1.503  16.388 -1.9899 -0.8859 -2.7017
 7644TIP3    H244348   5.019   1.645  16.338 -1.3524 -0.3022 -1.2695
 7645TIP3   OH244349   6.007   2.596   0.506 -0.7918  0.1589 -0.5000
 7645TIP3    H144350   6.010   2.678   0.457  1.6633  0.7720  0.5574
 7645TIP3    H244351   5.956   2.617   0.585  0.9522  1.0916  0.4176
 7646TIP3   OH244352   1.728   1.715  15.600  0.0749 -0.1196 -0.2758
 7646TIP3    H144353   1.781   1.787  15.633 -0.2251  0.1476 -0.3794
 7646TIP3    H244354   1.790   1.644  15.586  0.4724  0.3377 -0.8222
 7647TIP3   OH244355   3.105   2.964   3.103  0.1241 -0.5265 -0.2543
 7647TIP3    H144356   3.185   2.920   3.132  0.5010 -1.6985 -2.9367
 7647TIP3    H244357   3.121   3.056   3.122  1.3927 -0.9531  0.8478
 7648TIP3   OH244358   1.935   3.806   3.950 -0.0592  0.0248  0.0621
 7648TIP3    H144359   1.914   3.873   3.884 -0.3908  1.2596  1.3999
 7648TIP3    H244360   2.014   3.840   3.993 -0.5798 -0.1457  1.1587
 7649TIP3   OH244361   4.497   1.126   1.400  0.1400  0.2461 -0.1277
 7649TIP3    H144362   4.427   1.062   1.415 -0.0891  0.7704  1.1239
 7649TIP3    H244363   4.452   1.202   1.362  0.1046  0.4060  0.2343
 7650TIP3   OH244364   6.746   1.640   2.587  0.3898  0.7341  0.1945
 7650TIP3    H144365   6.718   1.729   2.563  0.9903  0.4389 -1.6664
 7650TIP3    H244366   6.677   1.583   2.553  1.2910  0.3006 -0.9284
 7651TIP3   OH244367   4.977   2.992   2.207 -0.5752 -0.3313 -0.4125
 7651TIP3    H144368   5.033   2.990   2.130  0.3667  0.4019  0.2434
 7651TIP3    H244369   5.023   3.049   2.269 -1.8486 -0.0422  0.2836
 7652TIP3   OH244370   5.863   6.583   1.761 -0.4261  0.1890 -0.1382
 7652TIP3    H144371   5.944   6.539   1.735 -0.6181 -0.6994  0.7273
 7652TIP3    H244372   5.793   6.523   1.735 -0.6446 -0.5412  1.9781
 7653TIP3   OH244373   6.455   5.914   2.954  0.2588  0.3107 -0.8840
 7653TIP3    H144374   6.408   5.865   3.021  1.7500  0.2547  0.1522
 7653TIP3    H244375   6.437   6.006   2.974 -0.2216  0.2635 -1.0982
 7654TIP3   OH244376   6.091   4.293  14.768 -0.2407 -0.6445 -0.2335
 7654TIP3    H144377   6.168   4.346  14.746  0.3194 -0.1808  2.6927
 7654TIP3    H244378   6.017   4.349  14.743  0.3638  0.3029  0.0363
 7655TIP3   OH244379   0.946   1.665   6.018  0.2186 -0.0521 -0.1788
 7655TIP3    H144380   1.015   1.651   6.082 -0.4783  0.6845  0.7498
 7655TIP3    H244381   0.992   1.672   5.934  1.3756  1.3517  0.5396
 7656TIP3   OH244382   1.856   5.793   5.198  0.4637  0.5928  0.2250
 7656TIP3    H144383   1.815   5.723   5.249  1.0443  0.7053  0.8497
 7656TIP3    H244384   1.873   5.862   5.262  0.4894  1.0445 -0.2668
 7657TIP3   OH244385   0.403   3.536   4.654 -0.0708  0.2984 -0.6008
 7657TIP3    H144386   0.476   3.477   4.669 -1.0262 -0.3462  1.7400
 7657TIP3    H244387   0.417   3.608   4.716 -1.6802 -0.0926  0.2416
 7658TIP3   OH244388   0.533   5.103   4.886  0.3619  0.1230  0.4712
 7658TIP3    H144389   0.571   5.038   4.945  0.6478 -0.1073  0.0342
 7658TIP3    H244390   0.586   5.182   4.901 -0.9054  0.6941  2.0626
 7659TIP3   OH244391   3.227   2.058  16.168  0.1094 -0.0827  0.4036
 7659TIP3    H144392   3.247   2.148  16.192  1.4802 -0.6617  1.5472
 7659TIP3    H244393   3.136   2.046  16.194  0.1990  0.7094  1.1175
 7660TIP3   OH244394   5.567   6.432  10.641  0.0888  0.5580  0.2168
 7660TIP3    H144395   5.606   6.468  10.721  0.8143 -0.7918  0.4984
 7660TIP3    H244396   5.560   6.507  10.582  0.5871  1.3564  1.1495
 7661TIP3   OH244397   5.944   6.144   5.766 -0.1210  0.3427 -0.1192
 7661TIP3    H144398   5.938   6.082   5.839  0.0909 -1.6448 -1.7448
 7661TIP3    H244399   5.868   6.125   5.712  0.1861  1.2042 -0.8625
 7662TIP3   OH244400   0.730   0.620   4.971  0.1777 -0.1463 -0.0363
 7662TIP3    H144401   0.663   0.620   5.040 -1.7075  1.1230 -1.8146
 7662TIP3    H244402   0.756   0.712   4.963 -0.6621 -0.0575 -1.9706
 7663TIP3   OH244403   0.047   3.651   4.916  0.1749 -0.5888  0.3489
 7663TIP3    H144404   0.124   3.596   4.905 -1.3227 -2.9278  1.0246
 7663TIP3    H244405   0.007   3.653   4.829  1.0666  0.7451 -0.0355
 7664TIP3   OH244406   2.064   3.215  11.479  0.6306 -0.1485 -0.2953
 7664TIP3    H144407   2.116   3.179  11.551  0.2184 -1.8918 -0.8298
 7664TIP3    H244408   2.086   3.160  11.404 -0.1746  0.6165 -1.1069
 7665TIP3   OH244409   6.295   6.268  14.248 -1.0458  0.4625 -0.8509
 7665TIP3    H144410   6.349   6.206  14.199 -1.6671 -1.0255  0.3137
 7665TIP3    H244411   6.209   6.226  14.254 -0.7809  0.2661  2.1313
 7666TIP3   OH244412   0.934   0.210  16.115  0.0410  0.0012  0.6755
 7666TIP3    H144413   0.951   0.138  16.055 -0.2828  0.7554 -0.3291
 7666TIP3    H244414   1.009   0.210  16.175  0.5220 -0.5451  0.0745
 7667TIP3   OH244415   2.937   3.118   3.784  0.4387 -0.3384  0.4533
 7667TIP3    H144416   3.002   3.071   3.732  1.3408 -1.4800  2.5121
 7667TIP3    H244417   2.888   3.048   3.828  1.6235  0.5884  3.3642
 7668TIP3   OH244418   2.684   2.267  15.256  0.0427  0.1696  0.7364
 7668TIP3    H144419   2.651   2.323  15.186 -0.9127 -0.7204  0.4590
 7668TIP3    H244420   2.751   2.320  15.300  1.6678  0.2690 -1.7216
 7669TIP3   OH244421   3.776   1.080  13.876  0.6471 -0.0760 -0.0188
 7669TIP3    H144422   3.751   1.145  13.810  2.7321 -0.3590 -1.1305
 7669TIP3    H244423   3.693   1.049  13.911 -0.4188  2.5001 -0.1267
 7670TIP3   OH244424   3.072   3.183  16.785 -0.1130  0.3045 -0.1759
 7670TIP3    H144425   3.055   3.118  16.854 -0.0803 -0.7803 -1.1647
 7670TIP3    H244426   3.152   3.228  16.813  0.0154 -0.2760  0.3979
 7671TIP3   OH244427   5.746   6.039  15.586  0.0244  0.2094  0.4253
 7671TIP3    H144428   5.753   5.983  15.509 -1.2032  1.2622 -0.4636
 7671TIP3    H244429   5.837   6.055  15.612  0.5309  1.8050 -2.2296
 7672TIP3   OH244430   0.693   4.597  15.363 -0.4703  0.5603  0.1470
 7672TIP3    H144431   0.709   4.668  15.301  0.1055  1.3908  1.2343
 7672TIP3    H244432   0.773   4.545  15.360 -0.3796  0.6906  0.3131
 7673TIP3   OH244433   3.592   3.439  13.605 -0.6800  0.0986 -0.0120
 7673TIP3    H144434   3.592   3.409  13.696  1.6490  0.4176  0.1100
 7673TIP3    H244435   3.531   3.380  13.560 -1.6367 -0.2338  1.6905
 7674TIP3   OH244436   6.059   5.463   6.095  0.3582  0.1441  0.1292
 7674TIP3    H144437   6.040   5.497   6.008 -0.8747 -0.3305  0.2010
 7674TIP3    H244438   6.027   5.373   6.094  2.4547 -0.6283  0.3433
 7675TIP3   OH244439   0.798   5.104   1.852  0.2368 -0.3833 -0.2162
 7675TIP3    H144440   0.753   5.123   1.770 -0.5586 -1.0073  0.0668
 7675TIP3    H244441   0.891   5.118   1.833 -0.0557  0.7778 -0.8518
 7676TIP3   OH244442   0.677   5.051  15.807 -0.0972  0.1130  0.3344
 7676TIP3    H144443   0.646   5.098  15.884 -0.9607 -1.6603  1.1175
 7676TIP3    H244444   0.610   4.984  15.792  0.5878 -0.2136 -1.3288
 7677TIP3   OH244445   2.257   0.687  12.942  0.9445  0.1275  0.6693
 7677TIP3    H144446   2.340   0.729  12.919  1.3737 -0.8591  0.3611
 7677TIP3    H244447   2.257   0.605  12.892 -0.5344  0.4351  0.1418
 7678TIP3   OH244448   5.267   5.152   1.825  0.2023  0.3684 -0.3777
 7678TIP3    H144449   5.185   5.180   1.867  0.5789 -0.7358  1.1047
 7678TIP3    H244450   5.319   5.233   1.818  0.3150  0.4880  1.6896
 7679TIP3   OH244451   0.749   0.947   1.077  0.1158  0.0202 -0.4413
 7679TIP3    H144452   0.668   0.922   1.122 -1.0563  0.4017 -2.2680
 7679TIP3    H244453   0.746   1.043   1.074  1.2148  0.0934  0.4866
 7680TIP3   OH244454   0.953   3.885   0.377  0.4188 -0.4009 -0.5453
 7680TIP3    H144455   0.906   3.808   0.345 -0.5061  0.2927 -0.8944
 7680TIP3    H244456   0.947   3.880   0.472 -0.6829 -0.1397 -0.5917
 7681TIP3   OH244457   4.115   5.078  16.319 -0.6406  0.2746  0.5213
 7681TIP3    H144458   4.179   5.106  16.255 -0.3182  0.4166  0.9039
 7681TIP3    H244459   4.031   5.106  16.284 -0.8151 -2.4832 -1.4248
 7682TIP3   OH244460   5.995   1.310  12.799 -0.0890 -0.0345 -0.0008
 7682TIP3    H144461   5.987   1.311  12.704 -0.1362 -1.1785 -0.0222
 7682TIP3    H244462   5.963   1.223  12.824  0.9051 -0.1282  0.9665
 7683TIP3   OH244463   3.673   5.560   0.330 -0.1805  0.1009  0.1903
 7683TIP3    H144464   3.591   5.540   0.284  1.0463 -0.7110 -1.7064
 7683TIP3    H244465   3.692   5.481   0.380 -0.5425  0.2848  0.6225
 7684TIP3   OH244466   2.413   3.325  14.292 -0.2932 -0.3303 -0.1958
 7684TIP3    H144467   2.384   3.270  14.219  2.0154 -3.6742  1.2674
 7684TIP3    H244468   2.480   3.382  14.254  0.3616 -1.5311 -0.8906
 7685TIP3   OH244469   1.714   3.367   1.819 -0.0248 -0.6957 -0.0358
 7685TIP3    H144470   1.803   3.336   1.840  0.7206  1.0446 -0.5373
 7685TIP3    H244471   1.715   3.460   1.844 -1.1977 -0.2562 -1.5675
 7686TIP3   OH244472   3.742   4.295   3.391  0.3061 -0.2601 -0.8164
 7686TIP3    H144473   3.838   4.297   3.396  0.2070 -0.8308  1.7858
 7686TIP3    H244474   3.715   4.382   3.421 -0.0086 -0.2951 -1.0033
 7687TIP3   OH244475   5.903   0.903  12.223 -0.3527  0.4523 -0.4538
 7687TIP3    H144476   5.848   0.848  12.278 -0.7465  0.1658 -1.1196
 7687TIP3    H244477   5.970   0.937  12.282 -0.4374 -0.2912  0.0859
 7688TIP3   OH244478   3.161   3.253   1.941 -0.7084 -0.3903  0.5339
 7688TIP3    H144479   3.102   3.178   1.933 -1.0007 -0.0291 -0.9846
 7688TIP3    H244480   3.106   3.323   1.977 -0.9073 -0.3934  0.2387
 7689TIP3   OH244481   0.727   6.487  14.107  0.8828 -0.1328  0.0887
 7689TIP3    H144482   0.741   6.547  14.180  1.7028  1.0518 -1.0099
 7689TIP3    H244483   0.633   6.471  14.106  0.6566  1.1376  0.4153
 7690TIP3   OH244484   4.960   5.509  17.089 -0.1768 -0.4811  0.4452
 7690TIP3    H144485   4.872   5.492  17.055  0.2496  0.1876 -1.0489
 7690TIP3    H244486   4.946   5.565  17.165 -1.2161 -2.7834  2.0142
 7691TIP3   OH244487   3.599   2.049   3.727 -0.1177 -0.3325 -0.0873
 7691TIP3    H144488   3.529   2.114   3.732 -0.4832 -0.6760 -0.6672
 7691TIP3    H244489   3.555   1.965   3.741  0.0998 -0.5907 -0.9190
 7692TIP3   OH244490   5.653   0.277   2.035  0.3702  0.6769 -0.2190
 7692TIP3    H144491   5.627   0.369   2.029  0.5096  0.7672  0.5989
 7692TIP3    H244492   5.635   0.252   2.125  0.2565 -0.1246 -0.4575
 7693TIP3   OH244493   4.259   1.561  15.814  0.0712 -0.4169  0.0574
 7693TIP3    H144494   4.238   1.481  15.863  1.0191 -0.7838 -0.1181
 7693TIP3    H244495   4.349   1.581  15.838  0.1779  0.0255 -0.6842
 7694TIP3   OH244496   4.628   3.138  13.222 -0.8099 -0.1048  0.6680
 7694TIP3    H144497   4.646   3.082  13.146  2.0831  0.2163  1.0507
 7694TIP3    H244498   4.644   3.081  13.297 -0.6758  0.4159  1.0364
 7695TIP3   OH244499   5.287   6.569  11.915  0.3844 -0.1354  0.2453
 7695TIP3    H144500   5.341   6.520  11.978 -1.9611 -2.0931  0.8114
 7695TIP3    H244501   5.232   6.625  11.969  0.1327  0.0475 -0.2001
 7696TIP3   OH244502   1.619   5.106   5.694  0.1632  0.0749 -0.1533
 7696TIP3    H144503   1.682   5.174   5.717 -0.0898  0.6692 -1.2071
 7696TIP3    H244504   1.659   5.060   5.620  0.5907 -1.2987  0.8840
 7697TIP3   OH244505   1.697   3.906   4.194 -0.3999 -0.0931  0.0129
 7697TIP3    H144506   1.634   3.926   4.264  0.2006 -1.4125  0.9579
 7697TIP3    H244507   1.693   3.811   4.184  0.4175 -0.0404 -0.8922
 7698TIP3   OH244508   5.614   1.572   2.514 -0.4204  0.2957  0.3735
 7698TIP3    H144509   5.645   1.644   2.460  2.2777 -0.7248  0.4409
 7698TIP3    H244510   5.651   1.589   2.601  0.0805 -1.0312  0.4401
 7699TIP3   OH244511   1.336   0.292  14.977 -0.0006  0.4325 -0.0995
 7699TIP3    H144512   1.311   0.370  15.026  2.6784  2.4485 -1.7955
 7699TIP3    H244513   1.428   0.277  15.001  0.1785 -0.8639 -1.5248
 7700TIP3   OH244514   2.685   4.503  17.222  0.1760  0.4436  0.3964
 7700TIP3    H144515   2.724   4.423  17.188  0.4592  0.6413  0.2564
 7700TIP3    H244516   2.755   4.546  17.271  0.4406  1.2903 -0.6948
 7701TIP3   OH244517   6.308   4.249   2.247  0.0197  0.5410 -0.0765
 7701TIP3    H144518   6.313   4.268   2.341 -1.6826  1.5215 -0.1754
 7701TIP3    H244519   6.353   4.323   2.205 -1.5346  1.4618 -0.1558
 7702TIP3   OH244520   6.167   1.219   0.515  0.2755 -0.3521 -0.1132
 7702TIP3    H144521   6.225   1.285   0.478 -0.1248  2.6481  4.2075
 7702TIP3    H244522   6.079   1.246   0.486  0.4545 -1.3774 -1.6583
 7703TIP3   OH244523   6.589   3.205   0.697 -0.1710 -0.2344 -0.0912
 7703TIP3    H144524   6.665   3.245   0.654  0.3769 -1.3564 -0.1970
 7703TIP3    H244525   6.622   3.178   0.783 -0.7221  0.1488  0.2485
 7704TIP3   OH244526   1.421   6.414   5.557 -0.1237  0.3260  0.3570
 7704TIP3    H144527   1.440   6.508   5.563  0.4991  0.2865 -0.9128
 7704TIP3    H244528   1.338   6.410   5.509 -0.7406  0.2690  1.4128
 7705TIP3   OH244529   0.823   3.105  14.727  0.3255  0.6764  0.0316
 7705TIP3    H144530   0.791   3.177  14.673 -0.0955  1.1127  0.8483
 7705TIP3    H244531   0.757   3.095  14.796 -1.2616 -2.5727 -1.8150
 7706TIP3   OH244532   1.716   3.531   6.646 -0.1261  0.4005 -0.2487
 7706TIP3    H144533   1.656   3.567   6.580  0.8603  2.8087  0.1389
 7706TIP3    H244534   1.783   3.597   6.657  2.2946 -1.9682 -0.1652
 7707TIP3   OH244535   4.512   5.441   4.533  0.3823  0.0202  0.2765
 7707TIP3    H144536   4.451   5.371   4.555  2.0015 -2.1098 -1.7467
 7707TIP3    H244537   4.472   5.485   4.458 -0.7614  1.4629  1.7090
 7708TIP3   OH244538   1.552   1.855   1.846  0.8593 -0.0299 -0.3829
 7708TIP3    H144539   1.589   1.822   1.928 -0.6092  0.9529  0.7069
 7708TIP3    H244540   1.465   1.887   1.870  1.7523  3.6039 -1.5517
 7709TIP3   OH244541   4.813   0.234  11.852 -0.2552  0.0285  0.1221
 7709TIP3    H144542   4.889   0.187  11.886  1.1176  1.1965 -1.2927
 7709TIP3    H244543   4.812   0.317  11.899 -0.6244  0.0468  0.0868
 7710TIP3   OH244544   2.087   1.388  11.076  0.4397 -0.3143  0.3467
 7710TIP3    H144545   2.083   1.416  11.168  0.5484  1.1920 -0.0902
 7710TIP3    H244546   2.109   1.295  11.080  0.5522 -0.2336  1.8443
 7711TIP3   OH244547   3.263   3.093  14.057  0.2150 -0.2169  0.4680
 7711TIP3    H144548   3.212   3.012  14.050 -0.8852  0.5326 -0.4899
 7711TIP3    H244549   3.237   3.130  14.141 -0.9777  0.2600 -0.1063
 7712TIP3   OH244550   0.361   4.882  13.017  0.1496 -0.4572  0.2324
 7712TIP3    H144551   0.327   4.964  12.982  1.9536 -0.4433 -1.5509
 7712TIP3    H244552   0.294   4.817  12.996  0.2996 -0.0744 -1.4673
 7713TIP3   OH244553   6.366   2.809  11.928 -1.2004  0.0121  0.2924
 7713TIP3    H144554   6.445   2.829  11.878  0.7928 -0.9073  2.9694
 7713TIP3    H244555   6.298   2.800  11.862  0.4347  2.9570 -1.9575
 7714TIP3   OH244556   4.508   6.299  12.936  0.0732 -0.3640  0.1732
 7714TIP3    H144557   4.434   6.344  12.977 -0.1393 -0.0133 -0.5787
 7714TIP3    H244558   4.547   6.247  13.007 -0.8850 -0.5407  0.5844
 7715TIP3   OH244559   1.768   1.919   6.662  0.1837 -0.4762 -0.0356
 7715TIP3    H144560   1.853   1.961   6.647  0.1331  0.5670  2.4130
 7715TIP3    H244561   1.790   1.829   6.687  0.5460 -0.2985  0.2824
 7716TIP3   OH244562   0.491   5.177  17.113 -0.2672 -0.4386  0.2517
 7716TIP3    H144563   0.575   5.167  17.157 -0.8833 -0.3203  1.4732
 7716TIP3    H244564   0.502   5.132  17.030  0.3561 -2.2268  1.2766
 7717TIP3   OH244565   2.443   6.225   4.559  0.4704  0.1405 -0.0142
 7717TIP3    H144566   2.468   6.178   4.479 -0.7746 -0.4031 -0.0914
 7717TIP3    H244567   2.482   6.174   4.630  1.1836  0.3644 -0.2431
 7718TIP3   OH244568   4.255   2.170   6.580  0.0160 -0.2004 -0.6082
 7718TIP3    H144569   4.173   2.165   6.629 -0.4710  0.6712 -1.3165
 7718TIP3    H244570   4.276   2.078   6.561 -2.1797 -0.3633 -2.6414
 7719TIP3   OH244571   4.987   6.589   1.682 -0.0259 -0.3213  0.5516
 7719TIP3    H144572   5.048   6.662   1.690 -0.0550 -0.5859  3.6929
 7719TIP3    H244573   5.030   6.528   1.622  0.9542  1.2735 -0.4134
 7720TIP3   OH244574   0.711   0.013   4.522  0.1565  0.4542 -0.0985
 7720TIP3    H144575   0.771  -0.027   4.585  0.7222  1.1885 -0.1613
 7720TIP3    H244576   0.624  -0.010   4.553  0.4621 -0.2755  0.2256
 7721TIP3   OH244577   3.291   6.241  15.832 -0.3798  0.4349 -0.2276
 7721TIP3    H144578   3.386   6.236  15.841 -0.3261 -2.3788 -1.8775
 7721TIP3    H244579   3.277   6.312  15.769  0.6984 -0.1138 -1.0905
 7722TIP3   OH244580   1.935   5.103   3.786  0.1080  0.5390 -0.4848
 7722TIP3    H144581   1.897   5.018   3.765 -2.4117  1.4756  0.0499
 7722TIP3    H244582   1.941   5.148   3.701  0.6936  0.1307 -0.6617
 7723TIP3   OH244583   6.395   0.852  16.541  0.1444 -0.0220 -0.4592
 7723TIP3    H144584   6.421   0.766  16.575  0.1562  0.6169  1.1722
 7723TIP3    H244585   6.305   0.864  16.570  0.5055  0.9929  0.2821
 7724TIP3   OH244586   5.344   6.027  13.229  0.2269  0.4326  0.2873
 7724TIP3    H144587   5.294   6.055  13.153  2.0982  0.7953 -0.8505
 7724TIP3    H244588   5.328   5.933  13.235  0.6405  0.2650 -1.0066
 7725TIP3   OH244589   1.238   1.072  11.623  0.3040 -0.2857  0.1823
 7725TIP3    H144590   1.210   0.984  11.597  0.7965 -0.1086 -1.0120
 7725TIP3    H244591   1.203   1.084  11.711  1.1612 -2.0992  0.7972
 7726TIP3   OH244592   4.576   3.725  13.994  0.3439  0.4440 -0.4538
 7726TIP3    H144593   4.614   3.646  13.956  2.6315  1.4117 -0.2565
 7726TIP3    H244594   4.597   3.719  14.088 -0.1276  0.9052 -0.3146
 7727TIP3   OH244595   0.433   5.960  16.842  0.3098 -0.3969  0.2577
 7727TIP3    H144596   0.521   5.928  16.860  0.5830  0.1078 -0.1977
 7727TIP3    H244597   0.435   5.987  16.751 -0.8826 -2.2676 -0.3637
 7728TIP3   OH244598   1.930   6.618   5.184  0.5862  0.0739  0.1695
 7728TIP3    H144599   1.913   6.709   5.208  2.1917  0.6744 -0.9310
 7728TIP3    H244600   1.907   6.613   5.092  0.0980 -0.7494  0.3308
 7729TIP3   OH244601   0.206   4.549   2.096 -0.2086 -0.3108  0.4101
 7729TIP3    H144602   0.165   4.611   2.036 -1.1399 -0.7001  0.6435
 7729TIP3    H244603   0.154   4.555   2.176 -0.0261 -1.0664  0.5881
 7730TIP3   OH244604   6.411   4.666   0.016 -0.2008  0.1509 -0.2931
 7730TIP3    H144605   6.382   4.750  -0.021 -0.7195  0.3036  0.4541
 7730TIP3    H244606   6.360   4.656   0.096  0.0769 -0.7406 -0.2228
 7731TIP3   OH244607   2.498   2.449  15.409  0.1069  0.5696 -0.1079
 7731TIP3    H144608   2.575   2.490  15.367 -0.1175  1.5103  0.3766
 7731TIP3    H244609   2.424   2.475  15.354 -0.0284  0.7532  0.1606
 7732TIP3   OH244610   3.647   5.308  13.032  0.0081 -0.5097 -0.2097
 7732TIP3    H144611   3.655   5.219  13.067  0.6234 -0.7043 -0.8444
 7732TIP3    H244612   3.610   5.297  12.945 -2.1802  0.0267  0.6282
 7733TIP3   OH244613   6.413   1.413  15.799  0.1235  0.0985  0.3580
 7733TIP3    H144614   6.336   1.372  15.758  0.7860 -0.8740  0.0647
 7733TIP3    H244615   6.474   1.428  15.726  1.9840 -3.1454  1.1318
 7734TIP3   OH244616   3.511   5.169  16.993 -0.4336 -0.1128  0.4795
 7734TIP3    H144617   3.431   5.146  16.944  1.3840 -3.2696 -1.1433
 7734TIP3    H244618   3.581   5.167  16.927  1.3533  0.3569  2.3269
 7735TIP3   OH244619   1.609   5.316   4.984  0.4622 -0.3836 -0.2965
 7735TIP3    H144620   1.518   5.321   5.013  1.2218 -4.3798  3.1240
 7735TIP3    H244621   1.654   5.383   5.036 -0.1039  0.1852 -0.5178
 7736TIP3   OH244622   0.093   0.408  14.291  0.5951  1.0022 -0.3709
 7736TIP3    H144623   0.182   0.434  14.313 -0.3919  2.5739  1.8828
 7736TIP3    H244624   0.096   0.313  14.288  2.0513  0.9876  1.0089
 7737TIP3   OH244625   3.192   2.554   2.979 -0.5303  0.0236 -0.2233
 7737TIP3    H144626   3.214   2.631   2.928  2.6636  0.7281  2.0925
 7737TIP3    H244627   3.251   2.486   2.947 -1.2299 -0.6363 -0.1407
 7738TIP3   OH244628   5.422   2.103  12.656  0.0769  0.2890  0.0919
 7738TIP3    H144629   5.452   2.194  12.650  0.6932  0.1676  1.2547
 7738TIP3    H244630   5.450   2.074  12.742 -0.5418 -0.8650 -0.0848
 7739TIP3   OH244631   1.261   6.287  14.937 -0.3200  0.2500 -0.4002
 7739TIP3    H144632   1.222   6.207  14.901 -0.3057  0.5382 -1.0637
 7739TIP3    H244633   1.264   6.271  15.031 -3.9695  1.0512 -0.0667
 7740TIP3   OH244634   4.007   3.913   1.150  0.3730  0.1434  0.2181
 7740TIP3    H144635   4.017   3.878   1.238  0.3668  0.5767  0.3957
 7740TIP3    H244636   3.978   4.004   1.164 -0.1534  0.0501 -0.2350
 7741TIP3   OH244637   1.974   2.234   0.719  0.0756  0.1528 -0.2201
 7741TIP3    H144638   2.053   2.264   0.674  0.5577 -1.2954 -0.3640
 7741TIP3    H244639   1.902   2.272   0.670  0.6729  1.5953 -0.0184
 7742TIP3   OH244640   3.377   6.527   3.505  0.2075  0.0793  0.2875
 7742TIP3    H144641   3.301   6.531   3.563 -0.1854 -1.2723 -0.1044
 7742TIP3    H244642   3.343   6.488   3.425  0.2546  3.9089 -1.6951
 7743TIP3   OH244643   6.298   1.367   2.541 -0.2213  0.3422 -0.0377
 7743TIP3    H144644   6.323   1.359   2.449  0.4815  1.5364  0.0408
 7743TIP3    H244645   6.320   1.282   2.580 -1.7769 -0.6359 -1.2596
 7744TIP3   OH244646   4.590   1.439   2.879 -0.3286 -1.0401 -0.3407
 7744TIP3    H144647   4.659   1.398   2.827  0.6492  1.1423 -0.8090
 7744TIP3    H244648   4.509   1.405   2.842  0.3993 -0.7141 -2.2979
 7745TIP3   OH244649   4.731   4.198  10.751 -0.0786 -0.4174  0.6424
 7745TIP3    H144650   4.751   4.126  10.691  1.2853  0.2256  0.3233
 7745TIP3    H244651   4.692   4.266  10.696 -0.9430 -0.7134  0.8705
 7746TIP3   OH244652   0.356   1.837  16.209 -0.2246 -0.0632 -0.1303
 7746TIP3    H144653   0.295   1.780  16.162 -1.3243  1.2605 -0.3334
 7746TIP3    H244654   0.433   1.782  16.224 -1.3278 -1.6738 -0.1497
 7747TIP3   OH244655   6.685   5.185   3.487 -0.2211 -0.7438 -0.2294
 7747TIP3    H144656   6.593   5.205   3.471 -0.2915 -1.1920 -0.4096
 7747TIP3    H244657   6.719   5.261   3.533  0.1653  0.9404 -3.1483
 7748TIP3   OH244658   6.677   1.578  15.391 -0.1516  0.2157  0.0721
 7748TIP3    H144659   6.621   1.550  15.319  1.9926 -1.3217 -1.0384
 7748TIP3    H244660   6.686   1.673  15.378  0.5065 -0.0879 -1.9264
 7749TIP3   OH244661   2.201   5.605   4.091  0.3430  0.1711 -0.0023
 7749TIP3    H144662   2.190   5.701   4.095 -1.0507  0.0919 -1.2479
 7749TIP3    H244663   2.203   5.577   4.182  0.5751  1.3767  0.3737
 7750TIP3   OH244664   2.757   3.285  11.468 -0.0201  0.1679 -0.0161
 7750TIP3    H144665   2.835   3.231  11.478  0.9111  1.5697  0.5896
 7750TIP3    H244666   2.685   3.230  11.498  1.2131  0.1050  2.9832
 7751TIP3   OH244667   3.942   2.072   1.610 -0.5411  0.3761  0.0931
 7751TIP3    H144668   3.897   2.056   1.693 -0.6400 -2.1845 -0.4190
 7751TIP3    H244669   4.001   2.145   1.628 -0.6281 -0.0994  2.3895
 7752TIP3   OH244670   3.442   4.141   0.493  0.3059 -0.3681  0.0503
 7752TIP3    H144671   3.503   4.212   0.476 -0.0121  0.2306  1.3337
 7752TIP3    H244672   3.390   4.134   0.413  0.2078  0.9805 -0.0175
 7753TIP3   OH244673   4.440   0.587  11.283  0.2312 -0.2308 -0.6325
 7753TIP3    H144674   4.424   0.530  11.208 -1.6227 -0.9292  0.2446
 7753TIP3    H244675   4.355   0.628  11.300  0.6264 -0.0692  1.0674
 7754TIP3   OH244676   5.045   6.561  14.364 -0.0666 -0.1881 -0.0945
 7754TIP3    H144677   4.960   6.576  14.323  0.5027 -3.4889 -2.6741
 7754TIP3    H244678   5.029   6.494  14.431  0.5946 -1.2649 -1.0027
 7755TIP3   OH244679   4.560   4.663  13.240  0.1306  0.0322 -0.1104
 7755TIP3    H144680   4.482   4.694  13.194 -0.9935 -1.5336  0.7123
 7755TIP3    H244681   4.544   4.570  13.255  2.1042 -0.2736  0.1998
 7756TIP3   OH244682   5.657   2.715  11.624 -0.2145 -0.7007  0.4080
 7756TIP3    H144683   5.604   2.790  11.597  0.9080 -0.1550 -0.3398
 7756TIP3    H244684   5.610   2.639  11.590 -0.9105 -0.2778  0.4097
 7757TIP3   OH244685   6.389   4.293   0.964  0.2361  0.6371  0.2228
 7757TIP3    H144686   6.320   4.330   1.020  0.0768  0.4375  0.1562
 7757TIP3    H244687   6.344   4.270   0.883  0.2454 -0.1482  0.4404
 7758TIP3   OH244688   0.078   2.761   3.081 -0.2462  0.7846 -0.1384
 7758TIP3    H144689   0.126   2.767   2.999  1.5054 -1.8735  0.6276
 7758TIP3    H244690  -0.014   2.754   3.056  0.2439  0.3453 -1.8401
 7759TIP3   OH244691   0.719   2.864  14.183 -0.2410  0.2311 -0.7629
 7759TIP3    H144692   0.738   2.957  14.194  1.6135 -0.5013  2.8780
 7759TIP3    H244693   0.790   2.819  14.228 -1.5321 -2.9795 -1.7525
 7760TIP3   OH244694   4.770   5.860  14.019  0.2716  0.3693 -0.2250
 7760TIP3    H144695   4.797   5.793  13.956 -0.1927  1.0839 -1.1950
 7760TIP3    H244696   4.683   5.832  14.047 -0.1896  0.8795 -1.1044
 7761TIP3   OH244697   1.321   2.324  11.516  0.1824  0.7823  0.4075
 7761TIP3    H144698   1.350   2.356  11.601  0.4850  1.5381  0.0176
 7761TIP3    H244699   1.393   2.268  11.485  0.4754  1.2610  0.2237
 7762TIP3   OH244700   1.710   3.522   0.684 -0.2575 -0.6495 -0.3319
 7762TIP3    H144701   1.798   3.524   0.647 -0.1731 -1.0322 -0.1500
 7762TIP3    H244702   1.670   3.604   0.654  1.1243  0.9136  1.9622
 7763TIP3   OH244703   5.445   0.142   3.276 -0.4885 -0.2117 -0.3011
 7763TIP3    H144704   5.535   0.152   3.307 -0.9532  0.6800  0.7792
 7763TIP3    H244705   5.393   0.131   3.355 -1.1760 -2.1319 -0.9800
 7764TIP3   OH244706   1.003   3.793   5.730 -0.4599  0.2669 -0.1590
 7764TIP3    H144707   0.918   3.816   5.767 -0.8062 -1.0735 -0.1008
 7764TIP3    H244708   1.064   3.802   5.803 -0.6522  0.6111 -0.0392
 7765TIP3   OH244709   6.399   0.932   3.711 -0.1887 -0.1089  0.3786
 7765TIP3    H144710   6.380   0.855   3.658  2.0311 -0.4785  0.0594
 7765TIP3    H244711   6.419   1.001   3.647  1.9198 -0.3994  0.6933
 7766TIP3   OH244712   3.217   3.826  17.124 -0.5190 -0.0163  0.4776
 7766TIP3    H144713   3.162   3.767  17.073 -1.1306  0.5674  0.4709
 7766TIP3    H244714   3.185   3.818  17.214  0.4259 -0.8891  0.7569
 7767TIP3   OH244715   5.822   5.235   0.325 -0.2033  0.1656 -0.5236
 7767TIP3    H144716   5.798   5.263   0.236 -0.5911 -0.6864 -0.6928
 7767TIP3    H244717   5.907   5.276   0.340 -0.0790  0.2203 -1.3418
 7768TIP3   OH244718   6.131   3.823  10.577 -0.0581  0.2626 -0.1186
 7768TIP3    H144719   6.097   3.874  10.651 -0.2730  2.0318 -1.4067
 7768TIP3    H244720   6.222   3.852  10.568 -0.3102  0.7630 -1.1370
 7769TIP3   OH244721   4.515   4.659   1.480 -0.2481  0.3939  0.1347
 7769TIP3    H144722   4.447   4.672   1.547 -0.9967 -2.1716 -0.0866
 7769TIP3    H244723   4.582   4.607   1.523 -0.0861 -0.1003 -0.7189
 7770TIP3   OH244724   0.794   5.871   2.599 -0.4260 -0.3659 -0.2227
 7770TIP3    H144725   0.758   5.784   2.584  1.2642 -1.3265  1.1734
 7770TIP3    H244726   0.811   5.906   2.511 -1.3208 -1.3351 -0.7905
 7771TIP3   OH244727   5.482   6.622  14.603  0.1694  0.5656  0.3697
 7771TIP3    H144728   5.448   6.683  14.668 -1.2574  0.1089  0.0724
 7771TIP3    H244729   5.502   6.675  14.527 -0.0737  0.8075  0.4768
 7772TIP3   OH244730   5.750   0.849  14.415  0.3979  0.0601 -0.5089
 7772TIP3    H144731   5.789   0.834  14.501 -0.3632  0.2137 -0.1292
 7772TIP3    H244732   5.816   0.818  14.352  1.2365  0.5769  0.1095
 7773TIP3   OH244733   6.366   0.746   1.164 -0.2239 -0.0824  0.2028
 7773TIP3    H144734   6.402   0.821   1.212 -0.9773  0.5543 -0.2121
 7773TIP3    H244735   6.367   0.775   1.072 -0.3020 -0.6739  0.0171
 7774TIP3   OH244736   1.285   4.612  16.794  0.7062  0.2182 -0.0225
 7774TIP3    H144737   1.272   4.529  16.839 -0.1765 -0.1230 -0.8685
 7774TIP3    H244738   1.377   4.633  16.808  0.5131  0.0028  1.7027
 7775TIP3   OH244739   3.881   2.078   0.597  0.1414  0.1012  0.3755
 7775TIP3    H144740   3.842   2.134   0.664  1.4111  1.8701 -0.3079
 7775TIP3    H244741   3.969   2.115   0.584 -0.2448  0.1167 -2.5866
 7776TIP3   OH244742   3.231   3.028   5.151  0.4808 -0.0569 -0.2454
 7776TIP3    H144743   3.192   2.942   5.140 -1.4440  0.9549 -1.6556
 7776TIP3    H244744   3.263   3.029   5.242  0.0677 -2.0349 -0.0639
 7777TIP3   OH244745   5.091   6.570  10.861  0.4317 -0.8055 -0.2934
 7777TIP3    H144746   5.030   6.560  10.933  0.7062  0.1121  0.0857
 7777TIP3    H244747   5.060   6.648  10.814  1.6994  0.1005  0.3293
 7778TIP3   OH244748   4.387   5.856  13.861  0.3849 -0.2862  0.1279
 7778TIP3    H144749   4.292   5.863  13.867  0.6579  2.7932  1.7320
 7778TIP3    H244750   4.413   5.925  13.800  1.8125  0.8142  1.9390
 7779TIP3   OH244751   0.088   5.302   5.926  0.4033  0.5059  0.2262
 7779TIP3    H144752   0.164   5.283   5.981  0.0977  0.6467  0.6928
 7779TIP3    H244753   0.061   5.390   5.951 -0.3440  0.1827  0.5513
 7780TIP3   OH244754   1.919   3.407  15.993  0.3704  0.2830  0.0222
 7780TIP3    H144755   1.992   3.367  16.042 -0.4462 -1.7391 -0.3727
 7780TIP3    H244756   1.962   3.470  15.935  1.5126  1.4751  2.0830
 7781TIP3   OH244757   2.760   4.684  13.994  0.3068 -0.0610 -0.7584
 7781TIP3    H144758   2.792   4.598  14.022  1.3604 -0.0729 -1.9533
 7781TIP3    H244759   2.818   4.747  14.037 -0.7762  0.0755  0.5132
 7782TIP3   OH244760   4.980   3.881  12.089 -0.2075 -0.0395  0.6588
 7782TIP3    H144761   4.934   3.811  12.135 -0.5407 -0.2542  0.0066
 7782TIP3    H244762   5.046   3.836  12.037 -2.0734 -0.1132 -1.7406
 7783TIP3   OH244763   3.097   5.291   2.018  0.7381 -0.5559 -0.5233
 7783TIP3    H144764   3.098   5.370   1.965  0.9394  0.4563  0.9763
 7783TIP3    H244765   3.005   5.265   2.021  0.4743  0.4253  0.1454
 7784TIP3   OH244766   1.559   4.338   4.417 -0.3753 -0.1005  0.1564
 7784TIP3    H144767   1.525   4.303   4.500  2.6334  1.6693  2.2640
 7784TIP3    H244768   1.653   4.323   4.422  0.1172  2.0131 -1.9410
 7785TIP3   OH244769   0.047   1.259   5.747  0.0453 -0.5422 -0.5857
 7785TIP3    H144770  -0.044   1.236   5.767  0.0765 -0.3070 -0.1664
 7785TIP3    H244771   0.100   1.197   5.796  0.1308  0.5084  0.6853
 7786TIP3   OH244772   5.479   6.183  10.726  0.4883 -0.0735 -0.6608
 7786TIP3    H144773   5.479   6.263  10.672  0.0886 -0.6957 -1.5922
 7786TIP3    H244774   5.509   6.114  10.667 -0.7073 -0.9077 -0.3178
 7787TIP3   OH244775   1.314   3.886   1.580 -0.2105 -0.2723 -0.1318
 7787TIP3    H144776   1.289   3.826   1.650 -0.4435 -0.3097 -0.2473
 7787TIP3    H244777   1.320   3.830   1.502  0.1205 -0.2446 -0.1280
 7788TIP3   OH244778   5.881   4.428  13.782  0.7495  0.6675  0.0339
 7788TIP3    H144779   5.873   4.474  13.698 -2.2061  0.0530 -0.0560
 7788TIP3    H244780   5.937   4.353  13.762 -1.3709 -0.4780 -1.8641
 7789TIP3   OH244781   0.847   0.346  12.226 -0.5293  0.1565  0.1417
 7789TIP3    H144782   0.827   0.405  12.298 -0.1892  0.8947 -0.3625
 7789TIP3    H244783   0.942   0.335  12.230 -0.2736  1.6630 -1.3014
 7790TIP3   OH244784   1.419   3.922  16.409  0.2941 -0.1774 -0.1632
 7790TIP3    H144785   1.405   3.828  16.394  0.2511 -0.1731 -0.1460
 7790TIP3    H244786   1.499   3.941  16.360  1.2136 -0.5676  1.1444
 7791TIP3   OH244787   4.296   6.591   1.195  0.2706  0.2363  0.3326
 7791TIP3    H144788   4.271   6.646   1.120  1.3216 -1.0387 -0.9952
 7791TIP3    H244789   4.383   6.620   1.219 -0.0707  0.6489  1.0724
 7792TIP3   OH244790   0.846   5.181  14.534  0.3623 -0.4219  0.3462
 7792TIP3    H144791   0.891   5.116  14.481  0.5189 -0.5835  0.6738
 7792TIP3    H244792   0.766   5.202  14.485  0.2405 -0.9639  0.3132
 7793TIP3   OH244793   4.433   6.702  13.858 -0.3214  0.2876 -0.5486
 7793TIP3    H144794   4.345   6.730  13.883 -0.8238 -0.9896 -0.8068
 7793TIP3    H244795   4.440   6.727  13.766  0.3696  2.2262  0.0130
 7794TIP3   OH244796   2.627   1.593   5.968  0.3780 -0.4593  0.5351
 7794TIP3    H144797   2.583   1.677   5.961  2.6113  0.9362  2.3353
 7794TIP3    H244798   2.693   1.595   5.899 -0.2876 -1.2307 -0.1371
 7795TIP3   OH244799   1.493   2.528   3.933 -0.8717  0.1862  0.1483
 7795TIP3    H144800   1.427   2.542   3.865 -0.2198 -0.2999 -0.5952
 7795TIP3    H244801   1.577   2.546   3.890 -0.6139  2.6072  1.5742
 7796TIP3   OH244802   3.644   6.623  15.588 -0.1182 -0.2990 -0.1347
 7796TIP3    H144803   3.550   6.615  15.571  0.0440 -1.3589 -0.5853
 7796TIP3    H244804   3.650   6.645  15.681 -0.8208 -0.1544 -0.1226
 7797TIP3   OH244805   4.970   0.111   4.100 -0.1662 -0.3776  0.1383
 7797TIP3    H144806   4.928   0.195   4.114 -0.1535 -0.0024 -1.9256
 7797TIP3    H244807   5.063   0.131   4.093 -0.0405 -0.7126  0.8358
 7798TIP3   OH244808   0.519   6.156   3.712  0.0123  0.2584  0.8954
 7798TIP3    H144809   0.539   6.206   3.633 -0.7458  1.0596  1.2051
 7798TIP3    H244810   0.505   6.066   3.681 -1.9180  0.8801 -0.1034
 7799TIP3   OH244811   2.305   3.302  15.543  0.0706 -0.2527 -0.7586
 7799TIP3    H144812   2.288   3.295  15.637  4.5147 -1.8636  0.0328
 7799TIP3    H244813   2.332   3.213  15.517  1.3376  0.7578 -3.0040
 7800TIP3   OH244814   6.742   0.495   5.654 -0.0206 -0.1162  0.2267
 7800TIP3    H144815   6.687   0.489   5.733  1.3054  0.8400  1.2453
 7800TIP3    H244816   6.831   0.507   5.688  0.2799  2.6595 -1.4381
 7801TIP3   OH244817   6.122   4.410   4.613  0.0610  0.1772  0.6753
 7801TIP3    H144818   6.144   4.318   4.625 -2.7364 -0.8193 -1.2912
 7801TIP3    H244819   6.189   4.443   4.553 -0.5918 -1.3476 -0.9189
 7802TIP3   OH244820   4.148   6.120   4.491 -0.2936  0.2173  0.1175
 7802TIP3    H144821   4.149   6.041   4.545 -1.6612 -0.7016 -1.1519
 7802TIP3    H244822   4.239   6.150   4.489 -0.0551 -0.3607  2.0014
 7803TIP3   OH244823   4.828   5.816  14.507  0.0218 -0.0004  0.3977
 7803TIP3    H144824   4.820   5.835  14.413 -0.0435  1.0173  0.6073
 7803TIP3    H244825   4.900   5.753  14.512  0.1982  0.1353 -0.3165
 7804TIP3   OH244826   4.484   6.666   1.673 -0.6657 -0.4318 -0.4340
 7804TIP3    H144827   4.573   6.638   1.693 -0.2100  0.8884 -0.5677
 7804TIP3    H244828   4.479   6.666   1.578 -0.6411 -0.0009 -0.4369
 7805TIP3   OH244829   4.303   5.920  10.623 -0.3367  0.2794  0.7965
 7805TIP3    H144830   4.347   5.895  10.542 -2.7069 -1.2373 -0.1068
 7805TIP3    H244831   4.210   5.922  10.600 -0.9955  0.5354  3.3009
 7806TIP3   OH244832   4.997   0.727   5.291 -0.5623 -0.1468 -0.1450
 7806TIP3    H144833   4.911   0.731   5.249 -1.0434 -2.8312  0.5257
 7806TIP3    H244834   5.007   0.636   5.319  2.2180  0.2688  0.4070
 7807TIP3   OH244835   3.604   5.236  14.323  0.2079 -0.4694 -0.2560
 7807TIP3    H144836   3.523   5.268  14.283 -0.3567 -1.1350  0.3472
 7807TIP3    H244837   3.647   5.187  14.253 -0.8640 -1.7850 -0.0036
 7808TIP3   OH244838   2.500   4.267  12.485  0.1491  0.0865 -0.2445
 7808TIP3    H144839   2.444   4.196  12.517  0.7563  0.0806  0.8254
 7808TIP3    H244840   2.439   4.326  12.439 -0.9210  0.5525  1.6876
 7809TIP3   OH244841   1.515   5.163  15.221 -0.2112  0.3983 -0.1101
 7809TIP3    H144842   1.569   5.229  15.264  0.4601  0.5652 -1.1960
 7809TIP3    H244843   1.519   5.185  15.128  1.7237 -2.3867 -0.7493
 7810TIP3   OH244844   0.093   3.785   3.795 -0.2796  0.1432 -0.4446
 7810TIP3    H144845   0.034   3.714   3.818 -0.3057  1.1442  2.7848
 7810TIP3    H244846   0.126   3.762   3.708 -2.8572 -2.0768 -0.8865
 7811TIP3   OH244847   4.110   0.959   1.787 -0.1992 -0.3853 -0.2593
 7811TIP3    H144848   4.021   0.955   1.821  0.0188  2.0949  0.7163
 7811TIP3    H244849   4.163   0.991   1.860  1.2347 -0.4309 -1.2482
 7812TIP3   OH244850   4.973   1.498   5.822  0.0459  0.0425 -0.1084
 7812TIP3    H144851   4.919   1.498   5.743 -2.6283  1.5457  1.6331
 7812TIP3    H244852   4.910   1.494   5.894  2.3300  0.3994  1.9816
 7813TIP3   OH244853   5.008   2.792   4.457 -0.2862  0.5658 -0.6730
 7813TIP3    H144854   5.025   2.812   4.549 -1.1326 -0.4360 -0.2907
 7813TIP3    H244855   5.031   2.872   4.410  2.9234  0.1864  0.0862
 7814TIP3   OH244856   4.593   6.205  14.245  0.0643  0.3365 -0.0133
 7814TIP3    H144857   4.586   6.300  14.249 -0.0194  0.3426 -0.3121
 7814TIP3    H244858   4.567   6.182  14.156  2.1260  0.2132 -0.6274
 7815TIP3   OH244859   4.544   1.148   3.683  0.6919  0.0057 -0.0643
 7815TIP3    H144860   4.489   1.183   3.753 -0.2898 -1.4754 -0.0579
 7815TIP3    H244861   4.611   1.097   3.730  0.3311 -0.5758 -0.1735
 7816TIP3   OH244862   4.528   1.758  15.621 -0.1128 -0.2728  0.6457
 7816TIP3    H144863   4.545   1.666  15.602 -0.9297 -0.7191  2.0176
 7816TIP3    H244864   4.574   1.775  15.703  0.8934  0.8305 -0.1284
 7817TIP3   OH244865   1.546   0.716  14.521 -0.0396  0.0559  0.0283
 7817TIP3    H144866   1.618   0.653  14.525  1.0383  1.2416 -0.3123
 7817TIP3    H244867   1.473   0.672  14.564  1.3745 -0.5404  1.9028
 7818TIP3   OH244868   3.837   0.445  12.465  0.4812  0.0577 -0.4156
 7818TIP3    H144869   3.807   0.484  12.383  0.5515  0.6247 -0.1739
 7818TIP3    H244870   3.792   0.360  12.470  0.7805 -0.1463 -1.2309
 7819TIP3   OH244871   2.293   0.389   1.162  0.0353  0.0600 -0.5123
 7819TIP3    H144872   2.284   0.307   1.211  0.1558  0.5638  0.3733
 7819TIP3    H244873   2.346   0.445   1.219 -0.9794  1.1491 -0.6133
 7820TIP3   OH244874   6.571   4.147   3.100 -0.7426  0.3827 -0.0166
 7820TIP3    H144875   6.489   4.159   3.052 -0.7346  2.7722  0.5290
 7820TIP3    H244876   6.563   4.205   3.176  1.0588 -0.0970  0.5513
 7821TIP3   OH244877   5.058   0.921   0.632 -0.1821 -0.4015  0.1064
 7821TIP3    H144878   5.109   0.953   0.707 -1.2667 -1.0605  1.1504
 7821TIP3    H244879   5.066   0.826   0.638 -0.0260 -0.4428 -0.8021
 7822TIP3   OH244880   4.170   2.039  16.745  0.1837  0.2666  0.1363
 7822TIP3    H144881   4.118   1.960  16.729  2.1639 -1.3069  1.1241
 7822TIP3    H244882   4.164   2.053  16.839  1.7724 -0.1569  0.3262
 7823TIP3   OH244883   5.266   5.864  12.231  0.2979  0.0380  0.0972
 7823TIP3    H144884   5.183   5.912  12.226  0.3119  0.0103 -0.3844
 7823TIP3    H244885   5.323   5.907  12.167  0.5787 -0.0986  0.2524
 7824TIP3   OH244886   6.443   2.795  13.211  0.3508 -0.4839 -0.0309
 7824TIP3    H144887   6.537   2.810  13.202  0.4099 -0.4464  0.6825
 7824TIP3    H244888   6.418   2.750  13.130  1.2648 -1.9057  0.4711
 7825TIP3   OH244889   2.547   0.909  15.999 -0.3564  0.7982  0.2700
 7825TIP3    H144890   2.466   0.868  15.968 -0.2423 -0.5583  1.7156
 7825TIP3    H244891   2.527   1.003  16.002 -1.0958  0.7378 -1.6437
 7826TIP3   OH244892   4.629   0.072   3.830 -0.8914  0.1815  0.3781
 7826TIP3    H144893   4.707   0.017   3.817 -0.7594  0.5726 -0.4932
 7826TIP3    H244894   4.561   0.030   3.777 -0.9538  0.5016  0.2011
 7827TIP3   OH244895   5.087   4.590   5.353 -0.0478 -0.0510  0.3312
 7827TIP3    H144896   5.066   4.577   5.261  0.3283  1.8246 -0.0503
 7827TIP3    H244897   5.008   4.630   5.390  0.8770  2.0156  0.1165
 7828TIP3   OH244898   3.301   5.628  10.843  0.0741  0.1632  0.0219
 7828TIP3    H144899   3.341   5.610  10.758 -1.7932  0.0688 -0.8719
 7828TIP3    H244900   3.285   5.723  10.842 -2.4057 -0.2135 -0.8965
 7829TIP3   OH244901   5.719   2.723   2.823 -0.2233 -0.3141 -0.1431
 7829TIP3    H144902   5.653   2.686   2.882  0.6890 -3.5116 -1.0222
 7829TIP3    H244903   5.679   2.716   2.736  0.4478 -0.2853 -0.4532
 7830TIP3   OH244904   5.776   6.273   2.672 -0.1374  0.7106 -0.0995
 7830TIP3    H144905   5.757   6.235   2.586 -0.4657  0.3842  0.1158
 7830TIP3    H244906   5.766   6.201   2.733  1.4526  0.6272  0.0725
 7831TIP3   OH244907   1.934   3.234   4.247 -0.5671  0.5309 -0.5357
 7831TIP3    H144908   1.887   3.304   4.291  1.4639  1.3444  0.4159
 7831TIP3    H244909   1.991   3.197   4.315 -0.3652 -0.9097 -1.4573
 7832TIP3   OH244910   3.410   0.255  14.377  0.4164  0.0989  0.2223
 7832TIP3    H144911   3.487   0.296  14.418 -0.5397  1.0263  1.1605
 7832TIP3    H244912   3.440   0.169  14.349  2.1814  1.0113 -0.7448
 7833TIP3   OH244913   0.980   4.741   4.049 -0.5934  0.5308  0.1877
 7833TIP3    H144914   0.944   4.660   4.013 -0.2477 -0.5942  2.2340
 7833TIP3    H244915   1.004   4.718   4.139  2.6108  2.0164 -0.2293
 7834TIP3   OH244916   2.709   3.546   2.065  0.1964  0.5317 -0.1338
 7834TIP3    H144917   2.745   3.578   1.982 -0.5785 -2.1497 -1.5499
 7834TIP3    H244918   2.770   3.578   2.131  1.1449  2.2362 -1.7857
 7835TIP3   OH244919   2.667   0.195   1.867  0.0516 -0.2241 -0.5004
 7835TIP3    H144920   2.676   0.251   1.944  0.2466 -0.1784 -0.5573
 7835TIP3    H244921   2.588   0.144   1.885  0.5812 -0.8361  0.1232
 7836TIP3   OH244922   6.726   2.215   4.676 -0.0821 -0.2998 -0.2037
 7836TIP3    H144923   6.799   2.159   4.650 -1.7724 -0.9567 -3.8865
 7836TIP3    H244924   6.765   2.301   4.688  1.3087 -0.5944 -2.3032
 7837TIP3   OH244925   1.388   2.085  12.273  0.3633  0.1649  0.1637
 7837TIP3    H144926   1.478   2.070  12.244  0.2634  0.3374 -0.2363
 7837TIP3    H244927   1.377   2.027  12.348  0.6875 -0.1276 -0.0150
 7838TIP3   OH244928   6.164   3.795  11.543  0.9243  0.1370  0.0880
 7838TIP3    H144929   6.090   3.794  11.604  0.5999 -0.8873 -0.2998
 7838TIP3    H244930   6.224   3.860  11.579 -1.0413  2.4697 -0.6492
 7839TIP3   OH244931   2.578   3.670   6.603 -0.4313 -0.5759  0.0816
 7839TIP3    H144932   2.658   3.649   6.554 -0.6259  1.9920 -1.4083
 7839TIP3    H244933   2.561   3.591   6.654  2.3010 -1.6804 -0.5867
 7840TIP3   OH244934   0.288   1.159  16.818  0.2900 -0.0592 -0.3508
 7840TIP3    H144935   0.314   1.240  16.861  2.3461 -0.3635 -0.9731
 7840TIP3    H244936   0.211   1.182  16.767  1.7604  1.8982 -1.7598
 7841TIP3   OH244937   0.550   5.966  15.856 -0.0029  0.3592 -0.4458
 7841TIP3    H144938   0.579   5.939  15.769 -0.9631 -0.4361 -0.5222
 7841TIP3    H244939   0.473   5.913  15.873 -0.0300  0.7729  0.7444
 7842TIP3   OH244940   6.642   0.441   3.782  0.3000  0.3219 -0.1725
 7842TIP3    H144941   6.710   0.375   3.794  0.6238  0.6062 -0.4393
 7842TIP3    H244942   6.577   0.422   3.850  0.2499 -0.4534 -0.4371
 7843TIP3   OH244943   2.296   6.736   1.085  0.5094 -0.4677 -0.4877
 7843TIP3    H144944   2.256   6.704   1.004 -0.1572  2.1736 -1.2611
 7843TIP3    H244945   2.377   6.779   1.057  0.0802  0.8042  0.1866
 7844TIP3   OH244946   1.643   0.734  12.699 -0.3185 -0.1450 -0.1418
 7844TIP3    H144947   1.646   0.724  12.604 -0.3861 -1.0117 -0.0564
 7844TIP3    H244948   1.555   0.765  12.717 -0.5829 -0.8052 -0.2894
 7845TIP3   OH244949   3.436   6.069  14.643 -0.6462  0.2923  0.3370
 7845TIP3    H144950   3.442   6.007  14.716  0.9682  1.1042  0.9006
 7845TIP3    H244951   3.446   6.155  14.684 -2.1892  0.9114 -0.5363
 7846TIP3   OH244952   2.487   2.577   6.054 -0.3029 -0.3528  0.6548
 7846TIP3    H144953   2.466   2.555   5.963  0.8765 -0.3433  0.3759
 7846TIP3    H244954   2.557   2.642   6.047  2.4662 -3.1296  1.6064
 7847TIP3   OH244955   1.736   1.982  11.498 -0.0115  0.3037  0.3578
 7847TIP3    H144956   1.694   1.897  11.506  0.0099  0.2276 -0.3287
 7847TIP3    H244957   1.824   1.970  11.533  1.0475 -0.7454 -2.5935
 7848TIP3   OH244958   2.409   3.273   4.416 -0.3071 -0.2310  0.2775
 7848TIP3    H144959   2.404   3.363   4.385 -0.0022 -0.1053  0.5830
 7848TIP3    H244960   2.503   3.258   4.431 -0.6044  0.2637  2.7704
 7849TIP3   OH244961   6.729   3.099   3.875  0.6021  0.6424  0.0923
 7849TIP3    H144962   6.689   3.180   3.843  0.1583 -0.6406 -2.7853
 7849TIP3    H244963   6.779   3.067   3.800  0.7892 -1.7338  1.2067
 7850TIP3   OH244964   2.472   5.715   0.905  0.3779 -0.2025 -0.4493
 7850TIP3    H144965   2.530   5.651   0.946  1.1528  0.6803 -0.1589
 7850TIP3    H244966   2.519   5.745   0.828  0.9151  1.5193  0.5266
 7851TIP3   OH244967   3.816   5.473  13.760 -0.6145  0.5858 -0.5152
 7851TIP3    H144968   3.809   5.455  13.854 -1.7061 -0.3764 -0.7625
 7851TIP3    H244969   3.730   5.508  13.737 -0.1162  1.4858 -1.0266
 7852TIP3   OH244970   5.203   4.432   5.663  0.0385  0.2888  0.2059
 7852TIP3    H144971   5.112   4.415   5.687  0.4356 -0.0520  1.4760
 7852TIP3    H244972   5.216   4.383   5.582 -0.1597 -1.7395  1.3803
 7853TIP3   OH244973   6.583   1.676  15.754  0.0560  0.2314  0.9223
 7853TIP3    H144974   6.553   1.736  15.685 -1.0159 -0.4392  0.7852
 7853TIP3    H244975   6.617   1.600  15.707  0.0778  0.1207  1.1173
 7854TIP3   OH244976   5.335   1.322   3.903  0.1848 -0.4932  0.0311
 7854TIP3    H144977   5.343   1.380   3.979 -2.9404 -0.7146  0.6186
 7854TIP3    H244978   5.349   1.379   3.828 -1.1837  0.7157  0.6654
 7855TIP3   OH244979   5.996   3.588   2.403  0.0851 -0.1589 -0.3408
 7855TIP3    H144980   6.072   3.646   2.411 -1.5977  1.9283  0.9423
 7855TIP3    H244981   5.949   3.620   2.326 -0.6736 -0.0055  0.1789
 7856TIP3   OH244982   2.050   3.863   5.590 -0.3369 -0.0707  0.1881
 7856TIP3    H144983   2.062   3.956   5.572 -0.0250  0.5084  3.0228
 7856TIP3    H244984   1.961   3.856   5.623 -0.4971 -0.8258 -0.4192
 7857TIP3   OH244985   0.211   5.819  14.367 -0.4312  0.2747 -0.3795
 7857TIP3    H144986   0.174   5.907  14.367  1.2602  1.0326 -1.4601
 7857TIP3    H244987   0.187   5.782  14.282 -0.4534  0.0082 -0.2592
 7858TIP3   OH244988   6.759   2.763  14.501 -0.3250  0.2378 -0.1811
 7858TIP3    H144989   6.854   2.747  14.498 -0.3751  0.1689 -3.7607
 7858TIP3    H244990   6.735   2.749  14.593  2.4280 -4.0013  0.0260
 7859TIP3   OH244991   0.881   1.810  13.101 -0.0128 -0.2271  0.2543
 7859TIP3    H144992   0.836   1.728  13.079 -1.7866  1.1687 -1.4724
 7859TIP3    H244993   0.818   1.859  13.154  1.0104  0.0737  1.2110
 7860TIP3   OH244994   2.793   5.015   2.587 -0.6678  0.6293  0.0255
 7860TIP3    H144995   2.813   4.958   2.513 -1.2831  0.9127 -0.3671
 7860TIP3    H244996   2.752   4.958   2.652 -0.7729  0.5197 -0.1381
 7861TIP3   OH244997   4.317   3.703   2.905  0.0169  0.2798  0.1956
 7861TIP3    H144998   4.253   3.639   2.936  0.5080 -0.3752 -0.1214
 7861TIP3    H244999   4.267   3.783   2.891 -0.6490 -0.1036  0.3669
 7862TIP3   OH245000   1.899   1.496   4.399  0.2015  0.3521  0.0605
 7862TIP3    H145001   1.810   1.483   4.366  0.2559 -2.3258  0.8698
 7862TIP3    H245002   1.898   1.457   4.487  1.7520  1.7465  0.7316
 7863TIP3   OH245003   1.827   4.380   2.122 -0.8077 -0.1838 -0.6433
 7863TIP3    H145004   1.779   4.312   2.169 -0.8303  0.1347 -0.2099
 7863TIP3    H245005   1.830   4.454   2.182  0.8561 -0.4393 -0.3860
 7864TIP3   OH245006   4.889   3.620   0.302 -0.3668 -0.7035 -0.4121
 7864TIP3    H145007   4.979   3.593   0.319 -0.5269 -1.2034 -0.3183
 7864TIP3    H245008   4.844   3.602   0.385 -0.0584  1.7673  0.3224
 7865TIP3   OH245009   0.323   5.590  11.415 -0.0549  0.3082  0.4357
 7865TIP3    H145010   0.258   5.527  11.448 -0.0729  0.9392  1.6274
 7865TIP3    H245011   0.360   5.630  11.493  1.0705  0.6760 -0.2678
 7866TIP3   OH245012   0.240   1.903  11.817  0.2381  0.3029  0.2874
 7866TIP3    H145013   0.316   1.863  11.773 -0.3526 -1.5315  0.8608
 7866TIP3    H245014   0.183   1.829  11.836 -1.0387  1.4979  1.1582
 7867TIP3   OH245015   6.076   4.859  16.296 -0.4095  0.0561 -0.7665
 7867TIP3    H145016   5.986   4.827  16.289  0.0262 -1.0912 -1.2568
 7867TIP3    H245017   6.101   4.881  16.206 -0.1977  0.3647 -0.6333
 7868TIP3   OH245018   5.797   6.360   3.938 -0.6780  0.0126  0.3120
 7868TIP3    H145019   5.839   6.369   4.023  0.9370 -1.0194 -0.3649
 7868TIP3    H245020   5.719   6.306   3.955  0.3939 -1.3772  0.9043
 7869TIP3   OH245021   0.752   1.541   6.458  0.6747 -0.4328  0.2923
 7869TIP3    H145022   0.756   1.455   6.416 -2.3815 -1.4574  1.9604
 7869TIP3    H245023   0.680   1.586   6.413  1.8612  1.0520 -0.1606
 7870TIP3   OH245024   3.803   0.018  15.117  0.8058 -0.5731  0.3264
 7870TIP3    H145025   3.894   0.046  15.121 -0.2800  2.9071  2.0997
 7870TIP3    H245026   3.797  -0.052  15.183  2.0384 -0.3632  0.6799
 7871TIP3   OH245027   1.767   1.803   0.001  0.1293 -0.1243 -0.5185
 7871TIP3    H145028   1.770   1.887  -0.044 -0.4582 -0.0469 -0.4167
 7871TIP3    H245029   1.778   1.737  -0.068 -0.6353 -0.0041 -0.7535
 7872TIP3   OH245030   4.669   2.880  15.089 -0.0270  0.0847 -0.3708
 7872TIP3    H145031   4.657   2.969  15.056 -0.0189  0.4956  0.7136
 7872TIP3    H245032   4.594   2.865  15.146  0.6469 -0.1201  0.4759
 7873TIP3   OH245033   0.272   4.152  11.098 -0.5427 -0.0960  0.7259
 7873TIP3    H145034   0.181   4.178  11.079 -0.7340 -2.0366 -1.1922
 7873TIP3    H245035   0.263   4.076  11.155 -0.0792  0.0762  1.0322
 7874TIP3   OH245036   5.307   3.889   3.889 -0.2897 -0.2117  0.0243
 7874TIP3    H145037   5.289   3.936   3.971  0.3525  0.3378 -0.1384
 7874TIP3    H245038   5.390   3.926   3.859  0.2619 -1.5202 -0.0722
 7875TIP3   OH245039   3.256   6.625   2.525 -0.2771 -0.0601 -0.0875
 7875TIP3    H145040   3.184   6.581   2.480  0.3923  0.1115 -1.3654
 7875TIP3    H245041   3.304   6.554   2.568 -0.5670 -0.3030 -0.1618
 7876TIP3   OH245042   0.199   6.498   5.290  0.4759 -0.2110  0.1274
 7876TIP3    H145043   0.179   6.591   5.294 -0.1766 -0.3043 -0.8758
 7876TIP3    H245044   0.267   6.485   5.356 -0.8584  0.6082  1.6980
 7877TIP3   OH245045   2.504   1.169  16.136  0.5136  0.0666 -0.4323
 7877TIP3    H145046   2.506   1.205  16.047 -1.2788  0.5053 -0.3271
 7877TIP3    H245047   2.449   1.231  16.185  0.2817 -0.9518  0.6096
 7878TIP3   OH245048   0.273   4.794  13.488  0.0730 -0.2779 -0.0670
 7878TIP3    H145049   0.340   4.798  13.420 -1.9291 -0.4798 -2.1023
 7878TIP3    H245050   0.323   4.792  13.570  2.4940  1.5221 -1.4240
 7879TIP3   OH245051   6.510   4.694   4.184  0.1205  0.3841  0.1718
 7879TIP3    H145052   6.520   4.713   4.277  0.8743 -2.2948  0.6671
 7879TIP3    H245053   6.579   4.632   4.164  0.5069  1.5620 -2.4127
 7880TIP3   OH245054   4.291   4.880   3.431 -0.0300  0.3445  0.1773
 7880TIP3    H145055   4.304   4.832   3.349  1.4873  0.0444  0.5914
 7880TIP3    H245056   4.341   4.960   3.420 -0.3856  0.6177  0.5459
 7881TIP3   OH245057   0.812   2.642  12.803 -0.0047 -0.3119  0.3924
 7881TIP3    H145058   0.796   2.572  12.866  2.6663  0.6648  2.2357
 7881TIP3    H245059   0.901   2.627  12.773  0.6723  2.3576  0.9447
 7882TIP3   OH245060   5.571   0.903  13.829  0.0486 -0.0390  0.4839
 7882TIP3    H145061   5.609   0.896  13.916 -0.0182 -0.2609  0.4960
 7882TIP3    H245062   5.572   0.814  13.795  1.6841  0.3226 -0.4306
 7883TIP3   OH245063   2.422   3.255  14.561  0.1602  0.3080 -0.1852
 7883TIP3    H145064   2.429   3.249  14.466  0.2803 -0.2377 -0.1460
 7883TIP3    H245065   2.377   3.174  14.587  1.0705 -0.0408  0.3189
 7884TIP3   OH245066   5.258   0.662  15.391 -0.5659 -0.1238  0.4092
 7884TIP3    H145067   5.227   0.695  15.306  0.2040  0.1133  0.2133
 7884TIP3    H245068   5.178   0.636  15.437 -1.1301  1.3954  0.3106
 7885TIP3   OH245069   3.161   0.571   6.189  0.4380  0.0855 -0.0453
 7885TIP3    H145070   3.213   0.645   6.220  1.8073 -0.1446 -1.7682
 7885TIP3    H245071   3.209   0.494   6.218 -0.7781 -0.1589  1.3948
 7886TIP3   OH245072   3.345   0.347   4.289 -0.7044 -0.3227  0.0596
 7886TIP3    H145073   3.400   0.277   4.325  1.9894  0.7783 -1.7303
 7886TIP3    H245074   3.357   0.421   4.349  1.7323  0.6674 -1.5310
 7887TIP3   OH245075   2.950   4.334  13.398  0.1686 -0.2398  0.0878
 7887TIP3    H145076   2.952   4.416  13.446  0.5236  1.6003 -2.9240
 7887TIP3    H245077   2.857   4.310  13.395  0.0059  0.3333  0.5110
 7888TIP3   OH245078   3.184   1.683   2.916 -0.5989  0.6132  0.1003
 7888TIP3    H145079   3.232   1.614   2.871 -2.3093  0.4048 -1.4547
 7888TIP3    H245080   3.198   1.761   2.864 -1.3212  0.7138  0.0449
 7889TIP3   OH245081   5.123   5.393   4.810 -0.6251 -0.4902  0.3935
 7889TIP3    H145082   5.206   5.379   4.855 -0.5857 -2.3116 -0.1989
 7889TIP3    H245083   5.147   5.408   4.719 -0.7795  2.0748  0.7277
 7890TIP3   OH245084   1.664   0.723   3.044 -0.3560  0.0046 -0.1656
 7890TIP3    H145085   1.572   0.749   3.038  0.0325  1.4369 -0.1257
 7890TIP3    H245086   1.663   0.628   3.035 -1.8539 -0.0020 -0.0406
 7891TIP3   OH245087   0.423   3.929   5.497  0.3074  0.5627 -0.0509
 7891TIP3    H145088   0.451   4.019   5.476 -0.9293  0.7902 -0.7841
 7891TIP3    H245089   0.327   3.932   5.492  0.1416 -0.2365  2.2998
 7892TIP3   OH245090   4.723   5.926   1.346 -0.0884 -0.0141  0.6193
 7892TIP3    H145091   4.803   5.951   1.300 -1.2933 -0.5245 -1.8497
 7892TIP3    H245092   4.745   5.844   1.391 -0.0147 -1.7554 -2.4662
 7893TIP3   OH245093   4.239   2.650  11.853  0.1247  0.5284 -0.0398
 7893TIP3    H145094   4.267   2.596  11.926  1.3239  0.3297 -0.6351
 7893TIP3    H245095   4.143   2.645  11.855  0.2045 -1.0325  0.3359
 7894TIP3   OH245096   4.919   4.916   2.239 -0.1347  0.1874  0.0607
 7894TIP3    H145097   4.977   4.894   2.312 -2.0875  0.2273  1.7033
 7894TIP3    H245098   4.876   4.998   2.267  0.1946  1.0275 -1.8155
 7895TIP3   OH245099   0.173   4.967  15.905 -0.1141  0.3656 -0.3351
 7895TIP3    H145100   0.175   5.061  15.924 -0.7958  0.2693  0.2617
 7895TIP3    H245101   0.265   4.942  15.896  0.1837  0.7351  1.3999
 7896TIP3   OH245102   6.600   2.446  17.102  0.3953 -0.0476  0.3539
 7896TIP3    H145103   6.644   2.526  17.072 -0.2298  0.5528  1.0213
 7896TIP3    H245104   6.567   2.467  17.189 -0.0945 -0.9124  0.3894
 7897TIP3   OH245105   2.464   6.021  14.576  0.3097  0.0531  1.3678
 7897TIP3    H145106   2.466   6.094  14.515  0.4099  0.6902  2.1303
 7897TIP3    H245107   2.371   6.006  14.593  0.2469 -0.5746  0.5389
 7898TIP3   OH245108   1.073   3.694   6.199  0.4775  0.0547  0.5149
 7898TIP3    H145109   1.008   3.636   6.239  0.2084 -0.1859 -0.2453
 7898TIP3    H245110   1.151   3.639   6.189  0.7088  0.2633  1.1732
 7899TIP3   OH245111   1.379   2.091   2.935 -0.8202 -0.5296  0.0413
 7899TIP3    H145112   1.411   2.055   3.018  1.6098  2.0167  0.2744
 7899TIP3    H245113   1.294   2.130   2.958 -0.0037  0.4768  1.4613
 7900TIP3   OH245114   1.244   5.553   1.521 -0.0344  0.3209 -0.3308
 7900TIP3    H145115   1.318   5.499   1.550  0.0836  0.1730 -0.8972
 7900TIP3    H245116   1.281   5.609   1.452 -0.2122  0.9592  0.0845
 7901TIP3   OH245117   3.823   1.114   1.460  0.0814  0.1072 -0.2366
 7901TIP3    H145118   3.780   1.123   1.374 -2.2751 -0.2773  0.8654
 7901TIP3    H245119   3.813   1.022   1.482 -0.1160  0.3938  0.8642
 7902TIP3   OH245120   5.401   5.507   0.937  0.1907  0.0809  0.4197
 7902TIP3    H145121   5.328   5.461   0.897  0.8473  0.8335 -1.7058
 7902TIP3    H245122   5.440   5.558   0.866  1.6863  1.0882  1.9096
 7903TIP3   OH245123   0.233   4.189  12.528 -0.0212 -0.5073 -0.2858
 7903TIP3    H145124   0.259   4.099  12.509 -0.6334 -0.8729  0.5931
 7903TIP3    H245125   0.262   4.239  12.452  0.2156 -1.4692 -0.8296
 7904TIP3   OH245126   1.595   4.799  16.238 -0.2865 -0.6458  0.6875
 7904TIP3    H145127   1.602   4.787  16.333  0.1024  0.1781  0.7642
 7904TIP3    H245128   1.576   4.892  16.227  1.6579 -0.3244 -0.1414
 7905TIP3   OH245129   4.678   6.417   5.092 -0.8158  0.4134  0.5375
 7905TIP3    H145130   4.621   6.484   5.130 -1.4694 -0.2782  0.7710
 7905TIP3    H245131   4.651   6.411   5.000 -0.8302  0.3836  0.5437
 7906TIP3   OH245132   5.162   6.468   4.359  0.0090  0.1412  0.6792
 7906TIP3    H145133   5.232   6.449   4.297  0.2297 -2.2228  1.6024
 7906TIP3    H245134   5.086   6.421   4.324 -0.7121  1.3586  0.5574
 7907TIP3   OH245135   4.975   3.574  15.859 -0.4133 -0.7729 -0.2868
 7907TIP3    H145136   5.065   3.592  15.832 -0.6438 -1.3841 -1.5381
 7907TIP3    H245137   4.935   3.535  15.781 -2.0677  0.5251 -0.1041
 7908TIP3   OH245138   5.229   1.396   5.955 -0.0129  0.4504 -0.4917
 7908TIP3    H145139   5.164   1.448   5.906 -1.8687  0.8103  2.2610
 7908TIP3    H245140   5.208   1.305   5.933  0.1133  0.6499 -1.4859
 7909TIP3   OH245141   4.321   0.932   0.446  0.0750 -0.8140 -0.6337
 7909TIP3    H145142   4.414   0.911   0.452  0.1122 -0.8886 -1.3507
 7909TIP3    H245143   4.277   0.847   0.446 -0.1291 -0.7348  1.5370
 7910TIP3   OH245144   4.731   2.095   3.700 -0.2128  0.5066 -0.8932
 7910TIP3    H145145   4.664   2.134   3.643 -0.5656 -0.5573 -1.2071
 7910TIP3    H245146   4.741   2.006   3.668  1.1535  0.5697 -0.6582
 7911TIP3   OH245147   6.104   3.484   3.885 -0.1273 -0.3713 -0.0923
 7911TIP3    H145148   6.033   3.422   3.901 -0.2684 -0.0157  0.6894
 7911TIP3    H245149   6.060   3.566   3.863  0.0604 -0.6030 -1.3591
 7912TIP3   OH245150   5.886   6.376   6.442 -0.1263  0.1087 -0.7183
 7912TIP3    H145151   5.832   6.297   6.444  0.6968 -0.4488 -0.2786
 7912TIP3    H245152   5.827   6.445   6.410 -1.0382 -0.5317 -0.4358
 7913TIP3   OH245153   1.255   3.541  12.094 -0.3721 -0.5321 -0.3551
 7913TIP3    H145154   1.244   3.598  12.018  0.9276 -0.3431 -0.4091
 7913TIP3    H245155   1.166   3.514  12.116 -1.1766  2.6953  0.6126
 7914TIP3   OH245156   3.753   4.187   4.832 -0.4975 -0.1228  0.3444
 7914TIP3    H145157   3.715   4.275   4.842 -1.1068 -0.2101 -1.1360
 7914TIP3    H245158   3.798   4.171   4.915 -3.5159  0.0556  2.0795
 7915TIP3   OH245159   6.293   6.750   1.541  0.4057  0.0983 -1.1810
 7915TIP3    H145160   6.214   6.696   1.548  2.2884 -2.6336 -0.5111
 7915TIP3    H245161   6.344   6.709   1.471  2.7619 -0.2112  0.6629
 7916TIP3   OH245162   0.034   0.321  15.439 -0.5500  0.4411 -0.6958
 7916TIP3    H145163  -0.038   0.280  15.487  0.6115  2.3532  2.8681
 7916TIP3    H245164   0.008   0.412  15.429  1.0427  0.9737 -0.0617
 7917TIP3   OH245165   6.521   4.604   1.521 -0.1074  0.6243  0.0941
 7917TIP3    H145166   6.526   4.657   1.601 -0.6207  1.2254 -0.2793
 7917TIP3    H245167   6.605   4.618   1.478  0.5831 -0.4918  1.0209
 7918TIP3   OH245168   3.340   5.767  15.547 -0.1112 -0.0200  0.6882
 7918TIP3    H145169   3.294   5.842  15.510  3.7546  2.1559 -0.0157
 7918TIP3    H245170   3.382   5.801  15.626  1.6543 -1.4220  0.3820
 7919TIP3   OH245171   1.924   5.285  11.577  0.1170  0.0914 -0.0237
 7919TIP3    H145172   1.844   5.309  11.531 -0.0561 -1.2176 -0.4410
 7919TIP3    H245173   1.914   5.191  11.595  1.3266  0.0282  0.3789
 7920TIP3   OH245174   0.202   4.528  16.874  0.0723  0.5484 -0.0354
 7920TIP3    H145175   0.240   4.508  16.789 -2.2276 -0.5620 -0.8439
 7920TIP3    H245176   0.160   4.613  16.863 -0.6076  0.2045 -0.1682
 7921TIP3   OH245177   0.215   6.232   2.172  0.2237 -0.2615  0.5810
 7921TIP3    H145178   0.309   6.222   2.184  0.4556 -0.3135 -1.1610
 7921TIP3    H245179   0.198   6.325   2.187  0.9828  0.2762 -1.7716
 7922TIP3   OH245180   6.117   2.733   3.832  0.3878  0.2136  0.7031
 7922TIP3    H145181   6.158   2.771   3.754 -0.1878 -1.3621 -0.3913
 7922TIP3    H245182   6.123   2.802   3.898  2.4066  0.9581 -0.2147
 7923TIP3   OH245183   0.926   4.036   5.623 -0.0113  0.3441  0.4064
 7923TIP3    H145184   0.929   3.941   5.631 -1.4854  0.2637  0.2477
 7923TIP3    H245185   1.012   4.066   5.651  0.0141 -0.9443  1.7332
 7924TIP3   OH245186   0.990   5.487   4.704  0.2635  0.6562 -0.0811
 7924TIP3    H145187   1.044   5.546   4.757 -0.2243 -0.9214  2.2551
 7924TIP3    H245188   0.909   5.536   4.689  0.4162  1.1291  0.6033
 7925TIP3   OH245189   3.743   0.991  16.702  0.6507 -0.5509  0.0152
 7925TIP3    H145190   3.678   0.946  16.756  0.6016 -0.1415  0.3047
 7925TIP3    H245191   3.824   0.988  16.754  0.5232  0.1298  0.2671
 7926TIP3   OH245192   2.286   3.663   1.844 -0.0452 -0.5664  0.5181
 7926TIP3    H145193   2.237   3.715   1.780  0.1897  1.2136  1.7488
 7926TIP3    H245194   2.228   3.590   1.864 -0.4419 -0.7323 -1.1529
 7927TIP3   OH245195   5.823   1.939  14.794  0.5839  0.0239  0.6226
 7927TIP3    H145196   5.901   1.993  14.784  0.6688 -0.3848 -1.1187
 7927TIP3    H245197   5.754   2.001  14.815  1.2436  0.4703  1.5124
 7928TIP3   OH245198   3.112   1.618   5.993  0.5469  0.6509 -0.5900
 7928TIP3    H145199   3.163   1.546   6.031  1.1076  0.6374 -1.3587
 7928TIP3    H245200   3.153   1.697   6.027 -0.8110  0.6099  1.2161
 7929TIP3   OH245201   3.488   5.959   4.982  0.4015  0.3776  0.1709
 7929TIP3    H145202   3.447   6.006   5.054  0.6519 -1.0065  1.2290
 7929TIP3    H245203   3.486   6.021   4.909  1.5173  2.3504  1.7771
 7930TIP3   OH245204   6.052   0.802   1.533  0.6812  0.3669  0.0493
 7930TIP3    H145205   6.036   0.717   1.491 -1.0610  0.9937 -0.6036
 7930TIP3    H245206   6.013   0.794   1.620 -2.1763  1.4338 -1.0543
 7931TIP3   OH245207   3.650   6.653  14.535  0.1204 -0.2105  0.0504
 7931TIP3    H145208   3.681   6.743  14.547 -3.5752  1.0174  1.3064
 7931TIP3    H245209   3.722   6.598  14.563  1.7927  2.3998  1.0570
 7932TIP3   OH245210   5.485   2.253   1.452  0.7906 -0.2414 -0.2451
 7932TIP3    H145211   5.462   2.184   1.513 -1.3959  1.4284  0.8929
 7932TIP3    H245212   5.574   2.233   1.425  0.4120 -3.1293  0.5359
 7933TIP3   OH245213   1.170   4.284   5.983 -0.0675 -0.8595 -0.0731
 7933TIP3    H145214   1.181   4.249   6.072  2.8248 -1.2502 -0.5529
 7933TIP3    H245215   1.166   4.379   5.996  0.6024 -0.8953  0.4740
 7934TIP3   OH245216   5.279   2.579   4.165 -0.3234 -0.5222  0.3902
 7934TIP3    H145217   5.260   2.673   4.163 -0.8943 -0.6379  0.5976
 7934TIP3    H245218   5.298   2.557   4.074 -0.9647 -0.3687  0.2182
 7935TIP3   OH245219   6.091   2.204   4.480  0.2796  0.5110 -0.2404
 7935TIP3    H145220   6.184   2.205   4.456  0.4094 -0.3504  0.2217
 7935TIP3    H245221   6.088   2.251   4.563  0.8206 -2.4771  1.5385
 7936TIP3   OH245222   0.529   5.312   5.524 -0.1663 -0.1062  0.4810
 7936TIP3    H145223   0.579   5.388   5.555 -0.0818 -0.4772  1.2730
 7936TIP3    H245224   0.581   5.277   5.452  0.2646  0.0503  0.7115
 7937TIP3   OH245225   1.114   5.470  11.985  0.6845 -0.3448  0.2685
 7937TIP3    H145226   1.045   5.504  12.042  1.5950  0.2532  1.0070
 7937TIP3    H245227   1.111   5.375  11.999 -1.0964 -0.5121 -0.9544
 7938TIP3   OH245228   6.425   3.649  14.274 -0.0292 -0.2499 -0.4907
 7938TIP3    H145229   6.368   3.590  14.225  2.2631 -0.1042 -3.5013
 7938TIP3    H245230   6.421   3.617  14.364 -3.1152 -1.5523 -1.0056
 7939TIP3   OH245231   2.492   4.103  15.113 -0.0206 -0.0365  0.5165
 7939TIP3    H145232   2.519   4.162  15.042 -1.5733  0.1548  0.0694
 7939TIP3    H245233   2.435   4.157  15.167 -0.7335 -0.8758  0.6013
 7940TIP3   OH245234   0.310   6.634  12.147  0.1370  0.0092  0.3132
 7940TIP3    H145235   0.379   6.634  12.081  0.4614  0.2021  0.6505
 7940TIP3    H245236   0.355   6.656  12.229 -0.4359  0.8434  0.4134
 7941TIP3   OH245237   5.531   6.451  16.366 -0.1175 -0.2902  0.3507
 7941TIP3    H145238   5.507   6.465  16.275 -0.2670  1.5393  0.6528
 7941TIP3    H245239   5.448   6.459  16.414  0.1637  0.0424  0.7799
 7942TIP3   OH245240   1.700   2.533   3.758  0.2532  0.4411  0.0807
 7942TIP3    H145241   1.772   2.473   3.772 -0.0360 -0.0059 -0.3182
 7942TIP3    H245242   1.738   2.606   3.709  0.2190 -0.2796 -1.0358
 7943TIP3   OH245243   0.404   1.369  15.096 -0.2828 -0.7301  0.1741
 7943TIP3    H145244   0.368   1.308  15.161 -1.0512 -0.0868  0.3714
 7943TIP3    H245245   0.332   1.382  15.034 -0.0140 -0.2806 -0.0440
 7944TIP3   OH245246   6.531   3.030   1.301 -0.0098  0.0419 -0.0552
 7944TIP3    H145247   6.492   2.948   1.332  0.3907  0.6896  2.2529
 7944TIP3    H245248   6.458   3.092   1.296  0.0608  0.1708  0.4555
 7945TIP3   OH245249   1.975   5.210   3.531  0.2124 -0.4598 -0.5750
 7945TIP3    H145250   1.986   5.156   3.452 -0.4035 -1.9219  0.3134
 7945TIP3    H245251   2.060   5.203   3.576  0.5935  0.4476 -1.1489
 7946TIP3   OH245252   5.528   6.174  11.583  0.0312 -0.0723 -0.4315
 7946TIP3    H145253   5.620   6.145  11.586  0.0810 -0.0027 -1.1473
 7946TIP3    H245254   5.511   6.207  11.671  0.0760 -1.9529  0.3001
 7947TIP3   OH245255   3.841   5.245  10.965 -0.4364 -0.3181  0.0403
 7947TIP3    H145256   3.747   5.234  10.958 -0.3786  0.2631 -1.6896
 7947TIP3    H245257   3.853   5.327  11.012 -0.7849 -0.2164 -0.0555
 7948TIP3   OH245258   6.667   2.789  11.838 -0.1051  0.1008  0.4765
 7948TIP3    H145259   6.758   2.779  11.809  0.2252  0.3692  1.3714
 7948TIP3    H245260   6.667   2.872  11.886 -1.1623  0.8454 -0.7756
 7949TIP3   OH245261   1.584   5.294   4.585  0.0411  0.3416  0.3300
 7949TIP3    H145262   1.491   5.275   4.595  0.0175 -0.0399 -0.5602
 7949TIP3    H245263   1.613   5.321   4.673 -0.5970 -0.9202  0.9475
 7950TIP3   OH245264   5.651   3.773  16.686  0.0772 -0.3940  0.3044
 7950TIP3    H145265   5.724   3.713  16.696 -0.6401 -1.0325  1.8481
 7950TIP3    H245266   5.574   3.717  16.672 -0.2463  0.2341 -0.4752
 7951TIP3   OH245267   4.575   4.604  16.868 -0.4074  0.1124  0.4690
 7951TIP3    H145268   4.544   4.684  16.910  0.6472  1.0383 -0.4484
 7951TIP3    H245269   4.551   4.615  16.776  1.3511  0.2071  0.0076
 7952TIP3   OH245270   4.013   5.387  13.036  0.1291  0.0811  0.0771
 7952TIP3    H145271   4.053   5.438  13.106  0.2566  0.0781  0.0051
 7952TIP3    H245272   3.930   5.432  13.019  0.1064  0.0930  0.2143
 7953TIP3   OH245273   2.979   1.894  16.478 -0.0522  0.3717 -0.4018
 7953TIP3    H145274   2.947   1.882  16.388  1.1998 -0.4529 -0.7523
 7953TIP3    H245275   3.070   1.923  16.467 -0.2417  1.3705  0.5971
 7954TIP3   OH245276   1.224   4.165   0.709  0.0759  0.1996 -0.0729
 7954TIP3    H145277   1.212   4.233   0.642 -0.7765 -0.5920 -0.7392
 7954TIP3    H245278   1.253   4.213   0.786  0.0201  1.2623 -0.6912
 7955TIP3   OH245279   3.654   5.843  14.256  0.1324 -0.1876 -0.4599
 7955TIP3    H145280   3.669   5.888  14.339  0.2237 -0.4392 -0.3391
 7955TIP3    H245281   3.673   5.751  14.275 -2.1227 -0.6222 -0.1638
 7956TIP3   OH245282   4.071   2.272  12.914  0.1210 -0.0246 -0.2025
 7956TIP3    H145283   3.983   2.296  12.883  0.6869  1.0132 -1.0195
 7956TIP3    H245284   4.108   2.354  12.947  0.7771 -0.4707  0.1776
 7957TIP3   OH245285   5.752   0.625   4.583  0.4026 -0.1336  0.1943
 7957TIP3    H145286   5.760   0.559   4.653  0.7671  0.4771  0.7364
 7957TIP3    H245287   5.829   0.681   4.594 -0.9300  1.5885  1.0117
 7958TIP3   OH245288   6.028   6.215  14.281  0.4661 -0.5263  0.2177
 7958TIP3    H145289   5.962   6.164  14.234  0.9002 -0.3618 -0.5687
 7958TIP3    H245290   6.020   6.186  14.372 -0.3728 -0.8442  0.0450
 7959TIP3   OH245291   3.301   3.516   5.217 -0.0488 -0.3052  0.1320
 7959TIP3    H145292   3.250   3.435   5.207 -1.8993  0.9665 -1.0461
 7959TIP3    H245293   3.265   3.557   5.295  0.9429 -0.6469  0.7717
 7960TIP3   OH245294   4.338   2.574  16.334  0.8172 -0.1342 -0.5479
 7960TIP3    H145295   4.412   2.534  16.379 -0.0002  0.0653  1.0131
 7960TIP3    H245296   4.291   2.500  16.294  1.2225 -0.3686 -0.5872
 7961TIP3   OH245297   1.373   5.442  12.131  0.3114 -0.0448  0.2455
 7961TIP3    H145298   1.283   5.463  12.105  0.3682  0.3753  0.3889
 7961TIP3    H245299   1.364   5.371  12.194  0.1944 -1.4878 -1.3521
 7962TIP3   OH245300   5.959   3.788   3.015  0.5218  0.5998 -0.8840
 7962TIP3    H145301   5.883   3.772   3.072 -0.7722 -1.5403 -3.1237
 7962TIP3    H245302   5.951   3.879   2.989 -0.0303  1.0165  0.6839
 7963TIP3   OH245303   4.159   1.589   2.860 -0.0637  0.2744 -0.3056
 7963TIP3    H145304   4.175   1.583   2.954  3.2412 -1.0008 -0.9030
 7963TIP3    H245305   4.155   1.499   2.830  1.1280  0.6692 -1.7303
 7964TIP3   OH245306   2.452   5.427  11.680 -0.1811 -0.1103 -0.1152
 7964TIP3    H145307   2.526   5.479  11.710  0.1678 -0.5500 -0.2072
 7964TIP3    H245308   2.383   5.491  11.663 -0.6288  0.1149  2.2855
 7965TIP3   OH245309   6.425   2.115   1.217 -0.3486  0.2880 -0.2315
 7965TIP3    H145310   6.467   2.042   1.263 -0.1671  0.3789 -0.2518
 7965TIP3    H245311   6.349   2.136   1.271  0.4073  1.0392  0.5629
 7966TIP3   OH245312   2.421   4.347   2.761  0.5223  0.3082 -0.1940
 7966TIP3    H145313   2.362   4.370   2.690  2.1861  0.3430 -1.6102
 7966TIP3    H245314   2.423   4.251   2.761  0.7060  0.3121 -0.3487
 7967TIP3   OH245315   2.122   5.251   4.728 -0.2542  0.3262  0.5649
 7967TIP3    H145316   2.133   5.346   4.734 -0.1062  0.2287  2.3366
 7967TIP3    H245317   2.152   5.219   4.813 -1.6999 -1.1706  0.5258
 7968TIP3   OH245318   1.560   2.921   5.045  0.6462 -0.0956 -0.6272
 7968TIP3    H145319   1.616   2.946   4.972  1.2922 -1.1673 -0.5165
 7968TIP3    H245320   1.614   2.860   5.096 -0.4313 -0.7339 -0.2337
 7969TIP3   OH245321   2.659   1.501  17.008  0.0498 -0.2084  0.0601
 7969TIP3    H145322   2.599   1.513  16.934 -1.8488  0.3421  1.6643
 7969TIP3    H245323   2.638   1.414  17.041 -0.1955  0.1783  0.9243
 7970TIP3   OH245324   2.642   6.668   1.933  0.0602  0.3880  0.4653
 7970TIP3    H145325   2.726   6.661   1.979 -0.5162 -0.4846  1.4127
 7970TIP3    H245326   2.662   6.638   1.844  0.5162 -0.9256  0.9958
 7971TIP3   OH245327   2.836   2.993  12.846 -0.3570 -0.2092 -0.2248
 7971TIP3    H145328   2.832   2.931  12.773 -0.7133  1.6714 -1.8342
 7971TIP3    H245329   2.930   3.009  12.860 -0.2783 -0.8315 -0.0293
 7972TIP3   OH245330   1.051   4.383  11.100 -0.2701 -0.6238 -0.0570
 7972TIP3    H145331   1.072   4.445  11.170 -1.1725 -0.1324 -0.2267
 7972TIP3    H245332   1.084   4.424  11.021 -2.4735  0.4714 -0.4265
 7973TIP3   OH245333   2.005   2.118  16.880 -0.7790 -0.1370 -0.5343
 7973TIP3    H145334   1.954   2.172  16.820  1.0264  0.8199 -1.2069
 7973TIP3    H245335   2.091   2.158  16.882 -0.3135 -1.1846  1.3617
 7974TIP3   OH245336   5.864   0.121   1.956  0.7080 -0.1508  0.0883
 7974TIP3    H145337   5.779   0.164   1.963 -0.0524 -1.5679 -0.0447
 7974TIP3    H245338   5.928   0.192   1.958 -0.4656  0.9111  0.5121
 7975TIP3   OH245339   4.584   6.362  15.062 -0.2317 -0.4353 -0.6322
 7975TIP3    H145340   4.653   6.297  15.077 -0.3275 -0.5641 -0.7386
 7975TIP3    H245341   4.622   6.422  14.997  0.1099  0.0114 -0.0197
 7976TIP3   OH245342   6.740   3.242  15.432 -0.1385  0.7464  0.8751
 7976TIP3    H145343   6.673   3.174  15.419  0.4688  0.2275  0.4054
 7976TIP3    H245344   6.704   3.298  15.500 -1.3688  0.8816  0.1325
 7977TIP3   OH245345   0.466   0.672  15.182 -0.1406 -0.3413  0.3233
 7977TIP3    H145346   0.498   0.618  15.254 -0.6588  1.7246  2.1404
 7977TIP3    H245347   0.370   0.663  15.186 -0.1070 -2.3724 -1.8594
 7978TIP3   OH245348   0.248   4.878   1.148  0.0010 -0.2129  0.8045
 7978TIP3    H145349   0.264   4.800   1.093 -0.6744  0.9519 -1.0895
 7978TIP3    H245350   0.334   4.919   1.156  0.2382 -0.7864  1.2469
 7979TIP3   OH245351   0.667   1.486  13.599  0.1253  0.4461  0.0697
 7979TIP3    H145352   0.673   1.413  13.537 -0.7026 -1.2090  1.8871
 7979TIP3    H245353   0.717   1.556  13.559  1.8596 -1.4900 -1.2110
 7980TIP3   OH245354   5.627   0.905   2.981  0.1287 -0.3550  0.6365
 7980TIP3    H145355   5.653   0.835   3.041  1.7056  0.4794  0.9576
 7980TIP3    H245356   5.596   0.975   3.037  2.7578  0.9051  0.6060
 7981TIP3   OH245357   2.126   2.611  16.516  1.0416  0.1743 -0.1942
 7981TIP3    H145358   2.167   2.525  16.525  0.7573  0.1042  0.4601
 7981TIP3    H245359   2.041   2.593  16.476  0.6874  0.0706  0.5938
 7982TIP3   OH245360   0.094   6.343  15.265 -0.3025 -0.1085  0.1699
 7982TIP3    H145361   0.067   6.342  15.173 -0.6066 -0.4244  0.2613
 7982TIP3    H245362   0.185   6.370  15.263 -0.7634  1.4727 -0.1163
 7983TIP3   OH245363   3.176   5.302   6.193 -0.1078 -0.4441 -0.1729
 7983TIP3    H145364   3.229   5.242   6.244 -0.1464  1.8338  2.6373
 7983TIP3    H245365   3.088   5.294   6.229 -0.4919  0.0343 -0.9746
 7984TIP3   OH245366   1.001   5.314   6.341 -0.2850 -0.0946  0.2705
 7984TIP3    H145367   1.029   5.281   6.255  2.0681  1.6300  0.3221
 7984TIP3    H245368   1.048   5.259   6.404 -1.4558 -0.8889  0.4698
 7985TIP3   OH245369   3.910   1.669   0.842  0.0470  0.0832  0.6943
 7985TIP3    H145370   3.939   1.593   0.891  2.4094  1.0825  0.8993
 7985TIP3    H245371   3.856   1.719   0.904  0.2255 -0.3577  1.2075
 7986TIP3   OH245372   4.316   2.013   1.095 -0.0344  0.5252  0.0698
 7986TIP3    H145373   4.317   2.029   1.189  0.2035  0.0651  0.1422
 7986TIP3    H245374   4.233   1.968   1.079 -0.6830  1.7664 -0.1281
 7987TIP3   OH245375   3.895   1.373   0.377  0.7607 -0.2985 -0.2008
 7987TIP3    H145376   3.965   1.307   0.383  0.3157 -0.8770 -1.3800
 7987TIP3    H245377   3.871   1.389   0.468  2.1915 -0.3520  0.2122
 7988TIP3   OH245378   4.308   0.531  12.625 -0.0789 -0.2318  0.0995
 7988TIP3    H145379   4.259   0.538  12.708  1.6355 -0.8532  1.1879
 7988TIP3    H245380   4.337   0.440  12.622 -0.8606 -0.4459 -1.6398
 7989TIP3   OH245381   2.037   4.050  12.747 -0.6776  0.2159 -0.1335
 7989TIP3    H145382   1.997   4.094  12.822 -0.2881 -0.8282  0.7053
 7989TIP3    H245383   2.051   3.960  12.777  1.9261  0.4367 -0.5225
 7990TIP3   OH245384   3.761   2.590  15.642 -0.0879  0.1286 -0.7432
 7990TIP3    H145385   3.693   2.540  15.687  0.8035 -0.8017 -0.4164
 7990TIP3    H245386   3.720   2.675  15.624 -1.4797 -0.5708 -0.9486
 7991TIP3   OH245387   3.631   1.732   0.119 -0.5172  0.0783  0.2801
 7991TIP3    H145388   3.609   1.689   0.036  1.8383  1.4096 -1.0782
 7991TIP3    H245389   3.674   1.664   0.170  1.7740  0.3136 -1.2533
 7992TIP3   OH245390   5.967   0.477   2.527 -0.0245 -0.9716 -0.0995
 7992TIP3    H145391   5.915   0.558   2.530 -0.8682 -1.5069 -0.1731
 7992TIP3    H245392   5.959   0.448   2.436  1.0495 -0.6475 -0.3066
 7993TIP3   OH245393   5.877   1.120  14.623 -0.2704 -0.3491 -0.4035
 7993TIP3    H145394   5.828   1.179  14.566 -0.8815 -0.7510 -0.2953
 7993TIP3    H245395   5.810   1.063  14.662 -0.0928  1.2254  2.2861
 7994TIP3   OH245396   3.341   1.142  15.405  0.0518 -0.3906 -0.1203
 7994TIP3    H145397   3.342   1.152  15.500 -2.7745 -1.0701  0.0143
 7994TIP3    H245398   3.260   1.184  15.377  0.2818 -1.2204 -2.1150
 7995TIP3   OH245399   5.383   0.352  16.217 -0.4595 -0.4128  0.3384
 7995TIP3    H145400   5.380   0.260  16.244 -0.0694 -0.5654 -0.1254
 7995TIP3    H245401   5.476   0.371  16.207 -0.4657  0.4592  1.8369
 7996TIP3   OH245402   2.294   5.177   3.082 -0.1865  0.1151 -0.7581
 7996TIP3    H145403   2.327   5.112   3.142  3.3794  1.1603 -1.4701
 7996TIP3    H245404   2.325   5.261   3.117 -2.1949  1.1903 -1.4323
 7997TIP3   OH245405   5.447   2.856  13.990  0.0047  0.1051  0.7125
 7997TIP3    H145406   5.541   2.862  13.972 -0.2826  0.3463 -0.7610
 7997TIP3    H245407   5.442   2.820  14.079  1.4806 -0.7118  0.4792
 7998TIP3   OH245408   6.545   3.906   4.596 -0.2615  0.1091  0.6376
 7998TIP3    H145409   6.545   3.940   4.686  3.5661  1.5708  0.1587
 7998TIP3    H245410   6.569   3.981   4.542  0.0995 -1.3870 -1.3247
 7999TIP3   OH245411   6.121   1.816  14.413  0.1592  0.1699  0.6017
 7999TIP3    H145412   6.065   1.739  14.417  0.0175  0.3357  2.2651
 7999TIP3    H245413   6.209   1.781  14.398  0.1594 -0.3683  1.7500
 8000TIP3   OH245414   3.205   5.022   1.400 -0.0031  0.0177  0.0024
 8000TIP3    H145415   3.292   5.007   1.437 -0.4483  0.3067  1.1815
 8000TIP3    H245416   3.221   5.070   1.319  0.8978  0.5018  0.4729
 8001TIP3   OH245417   1.461   4.502  11.414 -0.0302  0.1035  0.3563
 8001TIP3    H145418   1.497   4.574  11.363  1.9502 -0.1113  1.4108
 8001TIP3    H245419   1.497   4.514  11.502 -1.2875 -1.0303  1.0591
 8002TIP3   OH245420   5.189   5.434  14.252  0.5498 -0.0266 -0.3247
 8002TIP3    H145421   5.094   5.418  14.256  0.7497 -1.0421  1.2865
 8002TIP3    H245422   5.213   5.449  14.344  2.1190 -0.9379 -0.5787
 8003TIP3   OH245423   5.903   1.437  12.006  0.2573 -0.2263  0.3261
 8003TIP3    H145424   5.984   1.448  12.055  0.5581  0.9381 -0.4113
 8003TIP3    H245425   5.835   1.425  12.073  0.8051  0.3535  0.9808
 8004TIP3   OH245426   1.520   3.930  15.344 -0.0909  0.0925  0.1987
 8004TIP3    H145427   1.607   3.971  15.348 -0.6597  1.1931  1.8073
 8004TIP3    H245428   1.535   3.840  15.373  0.4467  0.3893  0.8590
 8005TIP3   OH245429   1.467   2.096   5.873 -0.2467  0.7591 -0.5949
 8005TIP3    H145430   1.388   2.114   5.822 -0.5505  3.5136  0.7434
 8005TIP3    H245431   1.466   2.162   5.942  2.3235 -0.2804  0.4908
 8006TIP3   OH245432   6.488   4.008   2.259  0.2931  0.3111  0.0596
 8006TIP3    H145433   6.460   3.976   2.173  2.3323  1.2708 -1.0079
 8006TIP3    H245434   6.419   4.068   2.286  0.0168  0.6047 -1.2892
 8007TIP3   OH245435   0.326   1.064  10.676  0.2525 -0.0267  0.4396
 8007TIP3    H145436   0.334   0.969  10.688  0.5228 -0.1597 -0.7720
 8007TIP3    H245437   0.411   1.098  10.701  0.8903 -0.3277 -1.2478
 8008TIP3   OH245438   5.415   1.941  11.161  0.7507 -0.0008  0.2017
 8008TIP3    H145439   5.383   2.030  11.146 -0.6765 -0.5403 -0.0200
 8008TIP3    H245440   5.353   1.885  11.115  0.6780 -1.2194  1.7338
 8009TIP3   OH245441   1.555   2.587  11.995  0.5156 -0.3264  0.5659
 8009TIP3    H145442   1.470   2.543  12.007  0.2936 -0.0581 -0.0127
 8009TIP3    H245443   1.616   2.534  12.045  0.0110 -0.5492  0.9528
 8010TIP3   OH245444   0.033   0.778  10.993  0.1947 -0.0662  0.4666
 8010TIP3    H145445   0.126   0.767  10.973  0.2749 -0.6609  1.1412
 8010TIP3    H245446   0.027   0.866  11.030 -0.0033  1.1759 -2.3977
 8011TIP3   OH245447   2.385   3.071  16.924  0.3787  0.8931  0.5605
 8011TIP3    H145448   2.338   3.025  16.994 -1.7731 -0.0010 -1.4005
 8011TIP3    H245449   2.417   3.151  16.965 -1.1649  0.5728  2.4862
 8012TIP3   OH245450   4.934   5.252  12.489  0.1367 -0.2823 -0.0639
 8012TIP3    H145451   5.027   5.270  12.474  0.0650  1.1525  1.0474
 8012TIP3    H245452   4.910   5.192  12.419  2.0181 -1.0737 -0.0805
 8013TIP3   OH245453   0.924   0.786   5.700 -0.2157 -0.1462 -0.0617
 8013TIP3    H145454   0.924   0.880   5.717 -2.6119 -0.1148 -0.0824
 8013TIP3    H245455   0.985   0.774   5.628 -2.0861  1.8116 -2.0470
 8014TIP3   OH245456   4.710   5.213  16.480 -0.1950  0.0982 -0.0836
 8014TIP3    H145457   4.653   5.290  16.478  0.8271  0.8474 -1.5134
 8014TIP3    H245458   4.797   5.248  16.501  0.6102 -0.4210 -2.4033
 8015TIP3   OH245459   2.741   4.665   1.167  0.4561 -0.1757 -0.1248
 8015TIP3    H145460   2.653   4.646   1.134  0.5738 -0.3635 -0.3331
 8015TIP3    H245461   2.753   4.605   1.241  0.5798 -0.4607 -0.3760
 8016TIP3   OH245462   1.247   1.552   0.032 -0.5064 -0.5307  0.0713
 8016TIP3    H145463   1.284   1.506  -0.044  1.3249 -0.9785  1.1833
 8016TIP3    H245464   1.282   1.641   0.026  1.2935 -1.0969  1.4131
 8017TIP3   OH245465   2.379   6.017  11.790  0.3158  0.0167  0.5339
 8017TIP3    H145466   2.373   6.075  11.715 -0.2313 -1.0248 -0.2308
 8017TIP3    H245467   2.460   5.967  11.776  0.5224  0.2298  0.9374
 8018TIP3   OH245468   6.658   1.701  11.366  0.1446  0.0859  0.6590
 8018TIP3    H145469   6.571   1.735  11.348  0.3705  1.3731  1.8437
 8018TIP3    H245470   6.649   1.654  11.449  0.3735 -0.5932  0.3003
 8019TIP3   OH245471   2.626   3.304  12.964  0.6684 -0.3477  0.2644
 8019TIP3    H145472   2.671   3.321  12.881  0.4487 -1.3282 -0.0524
 8019TIP3    H245473   2.540   3.272  12.939  0.2380  0.3024  0.8790
 8020TIP3   OH245474   2.723   4.443   2.068 -0.3793 -0.0449  0.4390
 8020TIP3    H145475   2.678   4.372   2.114 -0.6151 -0.2858 -0.1427
 8020TIP3    H245476   2.652   4.495   2.030 -0.1752 -0.8346 -1.0812
 8021TIP3   OH245477   5.674   0.971  16.526 -0.0965 -0.1248 -0.0285
 8021TIP3    H145478   5.749   1.029  16.541 -1.1417  1.2039  0.1448
 8021TIP3    H245479   5.676   0.953  16.432  0.6673 -0.4184  0.0428
 8022TIP3   OH245480   2.880   5.792   3.128  0.1950  0.3705 -0.9330
 8022TIP3    H145481   2.975   5.798   3.140  0.1804 -1.0285  0.0512
 8022TIP3    H245482   2.844   5.857   3.188  0.5099  0.3790 -0.7490
 8023TIP3   OH245483   2.402   6.510  12.311 -0.2614 -0.2195  0.2168
 8023TIP3    H145484   2.404   6.541  12.220  1.4083 -0.7975  0.0232
 8023TIP3    H245485   2.327   6.451  12.315 -1.5512  1.3546 -0.2480
 8024TIP3   OH245486   1.820   2.023   5.009  0.3603  0.2054 -0.6970
 8024TIP3    H145487   1.770   1.942   4.994  0.2350  0.2547 -0.5579
 8024TIP3    H245488   1.771   2.067   5.079 -0.0363  0.7988 -1.3507
 8025TIP3   OH245489   0.190   0.972  15.936  0.0249  0.0274 -0.3285
 8025TIP3    H145490   0.103   0.988  15.899 -0.2816  0.3116  0.5057
 8025TIP3    H245491   0.185   0.884  15.972  0.0386  0.1047 -0.1399
 8026TIP3   OH245492   5.726   2.165   3.148  0.3394  0.1500  0.0948
 8026TIP3    H145493   5.646   2.148   3.198  0.1785  2.0467  0.5199
 8026TIP3    H245494   5.703   2.237   3.089  1.7247  0.7036  0.2130
 8027TIP3   OH245495   2.071   6.399  11.459 -0.4849 -0.0415 -0.6178
 8027TIP3    H145496   2.146   6.367  11.509 -1.4796 -0.4823  0.6467
 8027TIP3    H245497   2.100   6.482  11.422  1.0952 -0.8866 -1.3490
 8028TIP3   OH245498   6.695   6.100   2.642  0.2820 -0.1277 -0.0202
 8028TIP3    H145499   6.773   6.155   2.636  1.5629 -1.7566  1.0091
 8028TIP3    H245500   6.637   6.146   2.702  0.8473  0.6576 -0.0733
 8029TIP3   OH245501   0.595   3.799   1.909 -0.0005  0.2448 -1.1368
 8029TIP3    H145502   0.585   3.857   1.985 -1.9438 -2.3841  0.7215
 8029TIP3    H245503   0.685   3.814   1.879  0.4013  2.2516  0.9095
 8030TIP3   OH245504   3.318   1.911   5.908  0.0835  0.1412  0.2990
 8030TIP3    H145505   3.288   1.893   5.997  0.3834 -0.6169  0.2485
 8030TIP3    H245506   3.407   1.877   5.905  0.0926  0.2076 -0.2789
 8031TIP3   OH245507   6.491   2.062   1.653  0.2515  0.0513 -0.7278
 8031TIP3    H145508   6.572   2.043   1.605  0.0627  1.4781 -1.6087
 8031TIP3    H245509   6.480   2.156   1.646  0.0606  0.2666  1.8751
 8032TIP3   OH245510   3.383   5.609  12.774  0.4881 -0.3512 -0.4206
 8032TIP3    H145511   3.378   5.562  12.691  0.2974  0.3375 -0.8017
 8032TIP3    H245512   3.454   5.565  12.822  0.7481 -0.6074 -1.0357
 8033TIP3   OH245513   3.197   2.565  12.419  0.2480  0.2625 -0.1857
 8033TIP3    H145514   3.142   2.566  12.341  0.2179  0.1578 -0.1659
 8033TIP3    H245515   3.138   2.587  12.491  0.2730  0.3464 -0.1921
 8034TIP3   OH245516   2.036   4.327   4.309 -0.2671 -0.1630  0.4577
 8034TIP3    H145517   2.050   4.232   4.319  0.4766 -0.2036 -0.7938
 8034TIP3    H245518   2.110   4.356   4.256 -1.6103  0.7474 -0.9648
 8035TIP3   OH245519   5.489   6.294   4.788  0.1549  0.3218  0.0669
 8035TIP3    H145520   5.429   6.290   4.862  0.7635  0.3939  0.5578
 8035TIP3    H245521   5.475   6.382   4.751  0.0878  0.4013  0.2829
 8036TIP3   OH245522   0.581   3.786  13.237  0.3505  0.5072 -0.4026
 8036TIP3    H145523   0.572   3.725  13.164  1.3981  0.6519 -0.6608
 8036TIP3    H245524   0.506   3.768  13.293 -0.0764 -0.0904 -1.1622
 8037TIP3   OH245525   4.685   1.118   5.980  0.2960  0.3369 -0.3500
 8037TIP3    H145526   4.687   1.031   6.019 -1.8322  0.3649 -0.0893
 8037TIP3    H245527   4.676   1.178   6.054 -0.4175  0.6088 -0.6433
 8038TIP3   OH245528   1.166   0.256  15.809  0.4324  0.5717  0.2712
 8038TIP3    H145529   1.239   0.221  15.861  1.1401  1.1212 -0.3377
 8038TIP3    H245530   1.115   0.307  15.872 -0.7819 -1.7567  1.2344
 8039TIP3   OH245531   0.083   5.523  15.958  1.0451 -0.4586 -0.3593
 8039TIP3    H145532   0.109   5.447  16.010  0.2550 -0.3108  0.2522
 8039TIP3    H245533   0.117   5.599  16.006  0.2321 -0.3163 -0.0094
 8040TIP3   OH245534   3.099   0.230   3.348 -0.1970 -0.1510  0.2415
 8040TIP3    H145535   3.123   0.179   3.426  0.1772  0.7695  0.7402
 8040TIP3    H245536   3.136   0.317   3.365  2.7769 -0.8023 -2.4382
 8041TIP3   OH245537   6.644   2.569  15.998 -0.2006 -0.1064 -0.4479
 8041TIP3    H145538   6.676   2.522  16.075 -2.5564  1.3795  1.5161
 8041TIP3    H245539   6.723   2.600  15.955  1.2872 -3.3476 -0.2090
 8042TIP3   OH245540   3.874   0.201  14.772  0.0052 -0.0391 -0.0914
 8042TIP3    H145541   3.904   0.158  14.852 -0.8559 -1.6282 -0.6050
 8042TIP3    H245542   3.835   0.283  14.802  0.4545 -0.2249  1.0335
 8043TIP3   OH245543   4.512   0.841   3.743  0.3480 -0.3709  0.4417
 8043TIP3    H145544   4.441   0.905   3.746  1.0059  0.3509  0.9470
 8043TIP3    H245545   4.499   0.787   3.821 -0.8869 -1.6049 -0.6016
 8044TIP3   OH245546   6.227   2.952  16.641 -0.3124  0.0992  0.2007
 8044TIP3    H145547   6.195   2.867  16.671  1.4648 -0.7190 -0.2120
 8044TIP3    H245548   6.219   3.009  16.718 -2.5354 -0.1345  0.1728
 8045TIP3   OH245549   3.379   5.229   3.145 -0.7612  0.1955 -0.0377
 8045TIP3    H145550   3.326   5.195   3.217 -0.0846 -2.2771 -0.6532
 8045TIP3    H245551   3.316   5.260   3.080 -1.3769  1.4351  1.1205
 8046TIP3   OH245552   1.547   5.813   0.059  0.3994  0.1880 -0.0584
 8046TIP3    H145553   1.454   5.808   0.036  0.2715  0.2986  0.4276
 8046TIP3    H245554   1.557   5.748   0.129  0.8601 -0.4047 -0.6768
 8047TIP3   OH245555   6.031   3.212   1.105  0.2618  1.4466  0.2881
 8047TIP3    H145556   6.023   3.161   1.185 -0.2997  2.5362  0.9478
 8047TIP3    H245557   6.124   3.236   1.101  0.7575 -0.5632 -0.6343
 8048TIP3   OH245558   1.426   2.315  15.616 -0.3213 -0.1077 -0.0419
 8048TIP3    H145559   1.508   2.349  15.652  0.4744 -0.9505 -1.0160
 8048TIP3    H245560   1.391   2.387  15.564 -0.1795  0.2500  0.3597
 8049TIP3   OH245561   0.980   2.373  12.062  0.1492  0.0903  0.4442
 8049TIP3    H145562   0.949   2.436  12.126 -1.2116 -0.2427  0.1282
 8049TIP3    H245563   0.913   2.304  12.060 -0.9557  1.1310 -2.8362
 8050TIP3   OH245564   6.749   5.742  12.389  0.3668  0.6100  0.0925
 8050TIP3    H145565   6.763   5.700  12.304  0.1731  1.4942 -0.3739
 8050TIP3    H245566   6.728   5.833  12.369 -3.3973  0.0299  0.8613
 8051TIP3   OH245567   3.319   4.192   3.690  0.2573  0.1190  0.3783
 8051TIP3    H145568   3.349   4.159   3.775  0.5490  0.6468  0.4771
 8051TIP3    H245569   3.270   4.272   3.711 -0.8751 -0.5051  0.1803
 8052TIP3   OH245570   0.564   1.382  10.590  0.1066  0.6044 -0.5676
 8052TIP3    H145571   0.516   1.464  10.606  0.8357  0.6135  1.7152
 8052TIP3    H245572   0.510   1.335  10.527 -1.0298  2.2499 -0.8646
 8053TIP3   OH245573   2.336   1.733  16.687 -0.1668  0.5376  0.4176
 8053TIP3    H145574   2.344   1.818  16.643  0.8191  2.0042  3.2826
 8053TIP3    H245575   2.250   1.736  16.729 -1.0185 -0.7700 -1.1806
 8054TIP3   OH245576   5.413   3.133  14.478  0.3197  0.1883 -0.5640
 8054TIP3    H145577   5.460   3.115  14.397  1.0484  2.5295 -0.7201
 8054TIP3    H245578   5.482   3.152  14.542 -0.2823 -0.6613  0.3625
 8055TIP3   OH245579   4.183   4.039   4.479  0.2880  0.0685 -0.1788
 8055TIP3    H145580   4.234   4.064   4.555 -1.3530 -0.0525  0.9934
 8055TIP3    H245581   4.098   4.013   4.514 -0.6947  0.5564 -2.0868
 8056TIP3   OH245582   4.230   1.629  11.438 -0.2476  0.0688  0.1189
 8056TIP3    H145583   4.190   1.613  11.523 -1.0956  0.0916 -0.2791
 8056TIP3    H245584   4.190   1.711  11.407 -0.2912 -0.1885 -0.5158
 8057TIP3   OH245585   0.740   1.847   5.949  0.5602  0.2781 -0.2583
 8057TIP3    H145586   0.779   1.793   6.017 -2.3637 -0.1551  1.1803
 8057TIP3    H245587   0.744   1.794   5.870  0.6937 -0.7071  0.4089
 8058TIP3   OH245588   4.391   1.679  16.249 -0.1433 -0.1327 -0.1723
 8058TIP3    H145589   4.333   1.610  16.216  0.8104 -0.6525 -0.7782
 8058TIP3    H245590   4.366   1.689  16.341  0.4434 -2.0664  0.2197
 8059TIP3   OH245591   3.789   0.213   4.826  0.5897 -0.3807  0.2290
 8059TIP3    H145592   3.884   0.197   4.820  0.9380  1.5757  0.0415
 8059TIP3    H245593   3.756   0.142   4.880  2.0971 -1.3908 -0.1324
 8060TIP3   OH245594   5.228   4.027   5.219 -0.0221  0.4187  0.3815
 8060TIP3    H145595   5.138   4.059   5.222  0.0685  0.5767  1.6359
 8060TIP3    H245596   5.276   4.097   5.174 -0.4732  0.4339 -0.0906
 8061TIP3   OH245597   0.874   1.797   0.757  0.6565  0.1467  0.1071
 8061TIP3    H145598   0.940   1.864   0.736 -0.6443  1.9718  1.6477
 8061TIP3    H245599   0.798   1.847   0.788 -0.5226 -2.0420  0.8640
 8062TIP3   OH245600   0.386   4.408   0.219  0.9085  0.7020 -0.0397
 8062TIP3    H145601   0.457   4.347   0.200 -0.1750 -1.5064  2.6680
 8062TIP3    H245602   0.430   4.487   0.249  2.2650  0.0588 -0.2669
 8063TIP3   OH245603   3.304   0.453  12.261 -0.7273  0.2003 -0.1989
 8063TIP3    H145604   3.363   0.459  12.337  1.0424  0.4076 -1.5702
 8063TIP3    H245605   3.260   0.538  12.259  1.0315  1.1302 -0.8177
 8064TIP3   OH245606   6.176   2.960   3.993  0.6767 -0.2836 -0.1975
 8064TIP3    H145607   6.259   2.916   4.014  0.9649 -1.3299 -3.2967
 8064TIP3    H245608   6.198   3.053   3.995  1.9198 -0.5417 -0.8124
 8065TIP3   OH245609   1.138   0.066   4.479 -0.3239  0.1132  0.4951
 8065TIP3    H145610   1.228   0.033   4.474 -0.6780 -0.9783  1.1475
 8065TIP3    H245611   1.130   0.102   4.567 -0.5087  0.2442  0.4229
 8066TIP3   OH245612   5.816   4.893  16.840 -0.0604  0.3049  0.1035
 8066TIP3    H145613   5.762   4.830  16.792 -0.0909 -1.3666  2.2319
 8066TIP3    H245614   5.790   4.881  16.932  1.2140  2.1902  0.7391
 8067TIP3   OH245615   4.469   5.054  16.535 -0.2289 -0.0447  0.2470
 8067TIP3    H145616   4.554   5.091  16.512 -0.4083 -0.3878 -0.9918
 8067TIP3    H245617   4.474   4.963  16.506 -0.6057 -0.3929  1.2281
 8068TIP3   OH245618   5.320   0.924  12.163  0.1957 -0.3442  0.1353
 8068TIP3    H145619   5.409   0.890  12.173  1.2076  2.3485  0.6703
 8068TIP3    H245620   5.291   0.942  12.253 -0.7391 -0.7815 -0.0679
 8069TIP3   OH245621   2.708   3.356  11.097 -0.3502 -0.0809 -0.3174
 8069TIP3    H145622   2.720   3.405  11.178  0.7535 -3.0733  1.4315
 8069TIP3    H245623   2.796   3.345  11.062 -0.5710 -0.8888 -0.6398
 8070TIP3   OH245624   3.247   4.789   1.121  0.7391 -0.2083  0.2393
 8070TIP3    H145625   3.253   4.802   1.026 -0.1986  0.6429  0.2922
 8070TIP3    H245626   3.324   4.833   1.157  0.2184  0.9059  0.0063
 8071TIP3   OH245627   6.339   3.081   5.715 -0.1646 -1.0266  1.1963
 8071TIP3    H145628   6.331   3.103   5.808  0.3741 -0.0818  1.0257
 8071TIP3    H245629   6.353   3.165   5.671 -0.7942 -1.4221  0.2107
 8072TIP3   OH245630   5.823   3.033   2.045 -0.3985  0.5964  0.2448
 8072TIP3    H145631   5.851   2.947   2.016 -0.9245  1.1846 -2.2105
 8072TIP3    H245632   5.904   3.082   2.059 -0.0734  0.8952 -2.3403
 8073TIP3   OH245633   2.710   0.654  15.292  0.3171 -0.0710  0.3479
 8073TIP3    H145634   2.653   0.643  15.368 -0.0211 -1.1906 -0.0499
 8073TIP3    H245635   2.650   0.666  15.218  0.6492  1.6495  0.3303
 8074TIP3   OH245636   5.507   4.915  13.482  0.0012 -0.0398  0.0751
 8074TIP3    H145637   5.592   4.880  13.511  0.5271  0.4793 -0.7833
 8074TIP3    H245638   5.484   4.860  13.407 -0.6146 -0.4335  0.5589
 8075TIP3   OH245639   0.107   4.610  13.615 -0.5187  0.2425  0.1130
 8075TIP3    H145640   0.120   4.685  13.556  0.4762 -0.3803 -0.4751
 8075TIP3    H245641   0.188   4.607  13.668 -0.9454  0.1370  0.7673
 8076TIP3   OH245642   0.708   1.819  11.829 -0.2922 -0.3570 -0.4565
 8076TIP3    H145643   0.622   1.795  11.795 -0.6258 -0.5977  0.5563
 8076TIP3    H245644   0.748   1.736  11.855  0.4832 -0.3108 -1.4567
 8077TIP3   OH245645   1.852   4.237   1.132  0.2142  0.0986  0.3092
 8077TIP3    H145646   1.871   4.222   1.039 -0.2355  2.1552 -0.1239
 8077TIP3    H245647   1.766   4.198   1.146  0.1884 -0.0240 -0.1873
 8078TIP3   OH245648   0.724   2.020  15.200 -0.2866  0.1379 -0.5274
 8078TIP3    H145649   0.630   2.010  15.212 -0.5951 -0.2469 -3.0277
 8078TIP3    H245650   0.753   1.935  15.166  0.9311  0.2910  0.1218
 8079TIP3   OH245651   5.545   1.069  14.442  0.3487  0.2434  0.0221
 8079TIP3    H145652   5.589   0.985  14.429  1.1646  0.8526 -1.2511
 8079TIP3    H245653   5.547   1.083  14.537  0.6071 -0.9561  0.1929
 8080TIP3   OH245654   5.250   5.322  13.573 -0.1758  0.5630 -0.0912
 8080TIP3    H145655   5.249   5.228  13.557 -2.0555  0.5262  0.2151
 8080TIP3    H245656   5.197   5.359  13.503  1.9373  1.5737 -1.1981
 8081TIP3   OH245657   1.659   2.166   2.953  0.2198  0.0609 -0.1996
 8081TIP3    H145658   1.569   2.137   2.939  0.2832  0.0545 -0.6057
 8081TIP3    H245659   1.663   2.187   3.047 -0.6459  1.6008 -0.4984
 8082TIP3   OH245660   4.839   2.039  11.962 -0.8654  0.8141  0.0516
 8082TIP3    H145661   4.752   1.998  11.966 -1.0859  1.3096  0.3600
 8082TIP3    H245662   4.878   2.020  12.047 -1.0119  1.3491  0.2338
 8083TIP3   OH245663   6.120   2.983  15.315  0.0306 -0.0757  0.3055
 8083TIP3    H145664   6.088   3.069  15.341 -1.0314  0.3634 -2.3668
 8083TIP3    H245665   6.204   3.001  15.273  0.0772 -0.4006  0.2620
 8084TIP3   OH245666   0.539   0.214   2.036 -0.4289  0.3161  0.0953
 8084TIP3    H145667   0.634   0.211   2.028 -0.2686  1.9391  1.0387
 8084TIP3    H245668   0.511   0.123   2.030  0.8368  0.0983 -3.9915
 8085TIP3   OH245669   4.193   5.786   2.883 -0.5234  0.7158  0.5633
 8085TIP3    H145670   4.270   5.730   2.876 -1.9171 -1.1833 -0.1462
 8085TIP3    H245671   4.205   5.854   2.817  0.4351  0.3153  0.3269
 8086TIP3   OH245672   5.397   5.957  11.972  0.1186 -0.5895 -0.7209
 8086TIP3    H145673   5.402   6.053  11.969 -0.2899 -0.4774  1.2243
 8086TIP3    H245674   5.488   5.928  11.976  0.2203 -0.2008 -0.0084
 8087TIP3   OH245675   1.519   5.545   1.781  0.6492  0.1893 -0.4931
 8087TIP3    H145676   1.546   5.481   1.715  1.4611  1.1201 -1.0883
 8087TIP3    H245677   1.601   5.587   1.808  0.3017 -0.0224  0.9653
 8088TIP3   OH245678   3.351   2.597  17.087 -0.5176 -0.4488  0.0166
 8088TIP3    H145679   3.381   2.656  17.017  1.6500 -0.6065  0.7751
 8088TIP3    H245680   3.286   2.647  17.135 -1.3997 -0.0232 -1.5680
 8089TIP3   OH245681   1.590   2.257   4.903 -0.8765  0.0501  0.5361
 8089TIP3    H145682   1.511   2.251   4.957 -1.2567  1.7470  0.2181
 8089TIP3    H245683   1.645   2.321   4.948 -1.1462  1.3963 -0.9738
 8090TIP3   OH245684   0.254   2.027  11.325 -0.2069  0.4100 -0.4262
 8090TIP3    H145685   0.227   1.973  11.399 -0.7373 -0.3080 -1.1273
 8090TIP3    H245686   0.231   2.116  11.349  0.7677  0.3483  0.7912
 8091TIP3   OH245687   0.493   5.871  15.028  0.1867 -0.5221 -0.0780
 8091TIP3    H145688   0.489   5.790  14.977 -1.1839  0.1202 -1.0173
 8091TIP3    H245689   0.427   5.857  15.097  0.2695 -0.3853  0.0269
 8092TIP3   OH245690   3.439   0.603   3.196  0.3174  0.2379 -0.3287
 8092TIP3    H145691   3.509   0.606   3.131  1.3026  0.0283  0.7167
 8092TIP3    H245692   3.396   0.519   3.182  0.8999 -0.0578 -0.3163
 8093TIP3   OH245693   0.788   5.245  17.149 -0.0627  0.1070 -0.0748
 8093TIP3    H145694   0.882   5.258  17.166  0.4829  0.3419 -2.9867
 8093TIP3    H245695   0.751   5.333  17.157 -0.1130 -0.0343  1.3941
 8094TIP3   OH245696   2.255   1.128   0.852 -0.0149  0.6034  0.2945
 8094TIP3    H145697   2.165   1.138   0.822 -0.1063 -0.1586  0.3036
 8094TIP3    H245698   2.300   1.086   0.779  0.1610  0.3251  0.5594
 8095TIP3   OH245699   2.780   0.127   2.475  0.2868  0.2187 -0.0196
 8095TIP3    H145700   2.813   0.044   2.441  0.7441 -0.2059  1.4247
 8095TIP3    H245701   2.760   0.179   2.397  0.6089 -1.0019 -0.9291
 8096TIP3   OH245702   1.720   2.375  17.156  0.0179 -0.7910 -0.7476
 8096TIP3    H145703   1.646   2.387  17.096 -0.0019 -1.1419 -0.7929
 8096TIP3    H245704   1.774   2.453  17.143 -0.6887 -0.2109 -0.2362
 8097TIP3   OH245705   6.375   3.527  13.568 -0.2807 -0.3761  0.0065
 8097TIP3    H145706   6.363   3.615  13.603  1.9810 -0.2282  0.4611
 8097TIP3    H245707   6.286   3.490  13.564 -1.0892  1.4092  1.1126
 8098TIP3   OH245708   0.510   3.380  15.965  0.2437 -0.7229  0.4110
 8098TIP3    H145709   0.499   3.370  15.870 -0.2280  0.3959  0.3406
 8098TIP3    H245710   0.567   3.308  15.990  1.8474  0.0127 -1.0268
 8099TIP3   OH245711   2.507   1.595  13.666  0.2021  0.2060 -0.0143
 8099TIP3    H145712   2.418   1.561  13.653 -0.5051  2.5750 -1.8629
 8099TIP3    H245713   2.547   1.591  13.579  1.4598  0.3269  0.5503
 8100TIP3   OH245714   6.297   5.077  13.806 -0.0135  0.1991 -0.2828
 8100TIP3    H145715   6.348   5.019  13.750 -1.2919  0.0648 -1.3355
 8100TIP3    H245716   6.345   5.079  13.889  1.7258  0.1321 -1.2604
 8101TIP3   OH245717   3.113   2.626  14.852  0.0601  0.4782  0.4500
 8101TIP3    H145718   3.041   2.628  14.789 -2.4126 -0.8304  3.1187
 8101TIP3    H245719   3.150   2.538  14.842 -0.2135  0.3345  0.7035
 8102TIP3   OH245720   2.121   0.566  12.715 -0.0965 -0.4875 -0.3204
 8102TIP3    H145721   2.049   0.621  12.746  0.4123  0.0887 -0.1553
 8102TIP3    H245722   2.091   0.476  12.729 -0.5023 -0.2397  0.3855
 8103TIP3   OH245723   4.318   4.328   4.605 -0.5799 -0.0315  0.1259
 8103TIP3    H145724   4.300   4.315   4.698 -0.0747 -0.0746  0.2241
 8103TIP3    H245725   4.400   4.280   4.590 -0.7872 -0.2259 -0.3934
 8104TIP3   OH245726   0.721   6.165   6.498  0.7017 -0.4687  0.3614
 8104TIP3    H145727   0.694   6.085   6.544  0.1214  0.1520  1.1253
 8104TIP3    H245728   0.784   6.206   6.557 -1.2236  1.1443  1.3899
 8105TIP3   OH245729   5.467   5.348  12.554  0.1465 -0.5018 -0.6633
 8105TIP3    H145730   5.452   5.359  12.460  1.0806  1.9620 -0.5569
 8105TIP3    H245731   5.396   5.396  12.596  1.6954  1.4021 -0.1461
 8106TIP3   OH245732   3.071   2.543  16.365 -0.2143  0.0949 -0.6605
 8106TIP3    H145733   3.163   2.547  16.339 -0.3566 -0.6676 -1.3066
 8106TIP3    H245734   3.033   2.624  16.332  0.0578  0.0588 -1.0586
 8107TIP3   OH245735   6.689   0.337   0.806 -1.0428 -0.3647  0.0986
 8107TIP3    H145736   6.717   0.252   0.773 -0.1083 -0.2673  0.6059
 8107TIP3    H245737   6.768   0.392   0.800 -1.8795  0.7242 -1.0883
 8108TIP3   OH245738   2.958   2.871   1.567 -0.2082 -0.4602  0.2792
 8108TIP3    H145739   2.895   2.897   1.500 -0.0674  0.5399  0.5263
 8108TIP3    H245740   3.039   2.853   1.519 -0.3413 -0.5621  0.0941
 8109TIP3   OH245741   5.253   4.679   4.718 -0.5852 -0.0559 -0.4244
 8109TIP3    H145742   5.173   4.628   4.711 -0.9593  0.6619 -1.4532
 8109TIP3    H245743   5.321   4.623   4.679 -0.3973 -1.0586  1.3199
 8110TIP3   OH245744   0.942   5.583  17.146 -0.1454  0.1035 -0.2544
 8110TIP3    H145745   0.848   5.567  17.136 -0.1760  0.9849 -1.4810
 8110TIP3    H245746   0.951   5.678  17.144  0.7452  0.0366  0.2226
 8111TIP3   OH245747   0.999   5.009  12.693 -0.2814  0.1799  0.0790
 8111TIP3    H145748   1.062   5.069  12.654 -1.3068 -0.6709 -3.0370
 8111TIP3    H245749   1.038   4.923  12.683 -1.4606 -0.2509 -0.9245
 8112TIP3   OH245750   5.031   5.034  14.071  0.2847  0.5238  0.3067
 8112TIP3    H145751   5.103   4.981  14.105  1.2261  1.6156  0.0250
 8112TIP3    H245752   5.059   5.060  13.984  0.0695  1.9464  0.6555
 8113TIP3   OH245753   3.348   4.604   2.387  0.5498  0.1060 -0.6144
 8113TIP3    H145754   3.348   4.520   2.431  1.5680  1.1028  1.3480
 8113TIP3    H245755   3.355   4.583   2.294  0.1086 -1.9748 -0.1867
 8114TIP3   OH245756   6.513   5.256  15.291 -0.4610 -0.2466 -0.2453
 8114TIP3    H145757   6.605   5.266  15.267 -0.4312  0.0356 -0.0116
 8114TIP3    H245758   6.509   5.170  15.334 -0.5364 -0.8105 -1.3501
 8115TIP3   OH245759   3.273   4.125  11.601 -0.0331  0.3517 -0.6686
 8115TIP3    H145760   3.243   4.121  11.510 -1.3521  1.6508 -0.2906
 8115TIP3    H245761   3.197   4.100  11.653  0.6549 -0.1657  0.0982
 8116TIP3   OH245762   3.955   6.119  12.945 -0.0449 -0.0211  0.7680
 8116TIP3    H145763   3.870   6.076  12.946  0.1625 -0.4299  1.3348
 8116TIP3    H245764   3.935   6.212  12.937 -0.4913 -0.2314 -0.6382
 8117TIP3   OH245765   6.764   2.435   4.976 -0.1726  0.2437 -0.4673
 8117TIP3    H145766   6.699   2.464   5.040 -0.3919  2.5668 -1.6655
 8117TIP3    H245767   6.826   2.381   5.026 -3.2887 -2.5052  0.5794
 8118TIP3   OH245768   2.347   4.335   3.868  0.3158  0.0966 -0.0074
 8118TIP3    H145769   2.375   4.329   3.960  0.4986 -1.2692 -0.1355
 8118TIP3    H245770   2.252   4.323   3.871  0.4444 -0.9999 -0.0809
 8119TIP3   OH245771   1.812   1.233   1.686  0.0240  0.2890  0.2973
 8119TIP3    H145772   1.736   1.291   1.690  0.4907  0.8321  1.4931
 8119TIP3    H245773   1.860   1.251   1.767  1.3834 -0.1136 -0.4127
 8120TIP3   OH245774   5.400   5.630   2.868 -0.2021 -0.2996  0.0192
 8120TIP3    H145775   5.409   5.692   2.941  0.1811 -0.2403 -0.0784
 8120TIP3    H245776   5.369   5.683   2.795  0.8286 -0.0835 -0.2670
 8121TIP3   OH245777   0.056   1.469  13.386  0.4576  0.4321 -0.4836
 8121TIP3    H145778   0.130   1.417  13.419  0.1890 -0.7026 -1.6277
 8121TIP3    H245779  -0.021   1.431  13.430  0.2529 -0.1927 -1.3731
 8122TIP3   OH245780   2.069   2.173  14.550 -0.6547 -0.1083  0.1772
 8122TIP3    H145781   2.134   2.239  14.577 -1.8507  0.8406  0.7720
 8122TIP3    H245782   2.048   2.127  14.631 -1.0377 -0.1382  0.0596
 8123TIP3   OH245783   1.194   3.878  16.216 -0.4754  0.4026 -0.0119
 8123TIP3    H145784   1.283   3.913  16.228 -0.1042 -0.4221 -0.2877
 8123TIP3    H245785   1.147   3.906  16.294  0.2955  0.0545  0.5901
 8124TIP3   OH245786   4.909   3.582  14.734  0.7328  0.2393 -0.5513
 8124TIP3    H145787   4.938   3.555  14.647 -2.1635  0.7521 -1.7250
 8124TIP3    H245788   4.926   3.676  14.737  1.4111  0.1123 -0.3115
 8125TIP3   OH245789   3.435   2.528   1.713 -0.7415 -0.0560 -0.3373
 8125TIP3    H145790   3.427   2.438   1.680 -2.0531 -0.6742  1.5558
 8125TIP3    H245791   3.512   2.563   1.669 -0.2767 -2.0697 -1.1986
 8126TIP3   OH245792   5.649   5.116   5.034 -0.4501 -0.6913 -0.1465
 8126TIP3    H145793   5.604   5.165   5.102 -2.0583 -2.1878 -0.0960
 8126TIP3    H245794   5.721   5.072   5.079  0.5254  0.9694 -0.0522
 8127TIP3   OH245795   1.388   1.126  16.893 -0.5637  0.3477  0.2713
 8127TIP3    H145796   1.461   1.064  16.890  0.5105  1.5762  0.1897
 8127TIP3    H245797   1.351   1.125  16.805  0.4610  0.9670 -0.1840
 8128TIP3   OH245798   6.375   3.372  12.600 -0.3993  0.4040 -0.6157
 8128TIP3    H145799   6.440   3.353  12.668 -1.0460  1.7196  0.4008
 8128TIP3    H245800   6.298   3.403  12.649 -0.5635  2.2583 -1.9843
 8129TIP3   OH245801   4.430   3.662   2.567  0.0651  0.4737  0.3528
 8129TIP3    H145802   4.506   3.669   2.509  0.5693 -1.2058  0.8035
 8129TIP3    H245803   4.463   3.618   2.645 -1.4695 -0.6695  0.3774
 8130TIP3   OH245804   1.720   1.888   5.576  0.6834  0.7599 -0.2457
 8130TIP3    H145805   1.625   1.889   5.588  0.8659 -1.9302  1.8498
 8130TIP3    H245806   1.752   1.958   5.632  0.0975  0.0911  0.9403
 8131TIP3   OH245807   0.693   1.664   5.738  0.4630  0.0198  0.1034
 8131TIP3    H145808   0.666   1.730   5.674 -0.9714 -0.8498 -0.2163
 8131TIP3    H245809   0.745   1.602   5.688  0.2965 -0.0486  0.0140
 8132TIP3   OH245810   0.520   4.671   4.284  0.2924 -0.0638  0.6398
 8132TIP3    H145811   0.591   4.686   4.346  0.6859  1.4793 -0.1428
 8132TIP3    H245812   0.449   4.727   4.316 -0.4190 -1.2353  1.1460
 8133TIP3   OH245813   2.804   2.217  16.756 -0.9985 -0.2932 -0.4206
 8133TIP3    H145814   2.736   2.261  16.705  0.4398  1.4106 -0.9239
 8133TIP3    H245815   2.787   2.242  16.846  0.1058  1.7467 -0.7526
 8134TIP3   OH245816   3.827   1.243  14.899 -0.3878  0.2110 -0.0843
 8134TIP3    H145817   3.816   1.338  14.904 -1.3713  0.0907  0.1688
 8134TIP3    H245818   3.741   1.208  14.922 -0.8906 -0.6678 -3.0538
 8135TIP3   OH245819   3.030   0.199   0.435  0.3233  0.9542  0.4539
 8135TIP3    H145820   2.984   0.186   0.352  1.7671  0.9381 -0.3617
 8135TIP3    H245821   2.976   0.262   0.482 -0.7759  0.5922 -0.2815
 8136TIP3   OH245822   6.728   5.960  12.196  0.4039  0.3339 -0.1577
 8136TIP3    H145823   6.700   6.043  12.235  0.1407 -0.1619  0.7257
 8136TIP3    H245824   6.786   5.986  12.125  1.2093  1.2515  0.8171
 8137TIP3   OH245825   5.426   3.072   1.722  0.2324 -0.0433  0.1081
 8137TIP3    H145826   5.476   3.093   1.800 -0.0574 -0.3359  0.3709
 8137TIP3    H245827   5.388   2.986   1.739  2.5265 -1.4165 -1.5231
 8138TIP3   OH245828   0.046   2.772   1.003 -0.1559 -0.3458  0.4862
 8138TIP3    H145829   0.128   2.727   0.982  0.6354  0.9042  0.8386
 8138TIP3    H245830   0.060   2.810   1.089 -1.0276  0.0565  0.4613
 8139TIP3   OH245831   4.978   0.411  15.156 -0.3898 -0.0691 -0.1732
 8139TIP3    H145832   4.927   0.481  15.197 -1.5969 -1.2131  0.3488
 8139TIP3    H245833   5.032   0.455  15.090  0.2958  1.5852  1.4462
 8140TIP3   OH245834   4.884   3.136   1.898 -0.0976 -0.3937 -0.1619
 8140TIP3    H145835   4.958   3.193   1.876 -0.2145 -0.4344 -0.6770
 8140TIP3    H245836   4.903   3.055   1.851 -0.2300 -0.5704  0.0927
 8141TIP3   OH245837   6.609   4.229  14.132  0.5645  0.6167 -0.3879
 8141TIP3    H145838   6.615   4.163  14.201  1.7401 -0.0887 -1.1396
 8141TIP3    H245839   6.558   4.300  14.170  0.8633  0.0558  1.0714
 8142TIP3   OH245840   2.050   1.385   2.373 -0.7230  0.0326 -0.3357
 8142TIP3    H145841   2.101   1.383   2.454 -0.7440 -2.4892 -0.3354
 8142TIP3    H245842   1.960   1.365   2.401 -1.2372  1.8667 -0.6528
 8143TIP3   OH245843   6.512   2.210   0.368 -0.5531  0.0630 -0.2910
 8143TIP3    H145844   6.453   2.136   0.379 -0.4158 -0.0259 -0.1490
 8143TIP3    H245845   6.509   2.256   0.452 -0.0765 -0.1954 -0.1304
 8144TIP3   OH245846   3.127   2.250   3.515  0.2939 -0.0541  0.2127
 8144TIP3    H145847   3.198   2.206   3.468 -0.1900 -3.0477  2.1702
 8144TIP3    H245848   3.142   2.229   3.607 -3.1765 -0.9307  0.6629
 8145TIP3   OH245849   4.621   4.885  11.432 -0.0999  0.0276  0.5826
 8145TIP3    H145850   4.598   4.818  11.496  0.1650  0.8235  1.5336
 8145TIP3    H245851   4.607   4.968  11.479  2.7138  0.5780  0.5315
 8146TIP3   OH245852   1.920   0.147   1.155 -0.1127  0.4111 -0.3914
 8146TIP3    H145853   1.877   0.081   1.210 -2.4611  0.0700 -2.5874
 8146TIP3    H245854   1.863   0.224   1.161  1.2498  1.4048  0.0659
 8147TIP3   OH245855   0.893   4.250   0.509 -0.1513 -0.8206 -0.2571
 8147TIP3    H145856   0.936   4.220   0.428  2.6174 -1.8163  1.5184
 8147TIP3    H245857   0.908   4.345   0.510 -0.3220 -0.7839 -0.9988
 8148TIP3   OH245858   1.102   1.269  17.177  0.3799  0.3495  0.4463
 8148TIP3    H145859   1.025   1.314  17.213  0.4947  0.6178  0.3516
 8148TIP3    H245860   1.125   1.319  17.099  1.2766  0.8564  1.0445
 8149TIP3   OH245861   6.505   4.936  13.690  0.2305  0.5594 -0.4583
 8149TIP3    H145862   6.560   5.005  13.651  0.4073  0.4224 -0.4536
 8149TIP3    H245863   6.567   4.866  13.709 -0.0461  0.1490 -1.0544
 8150TIP3   OH245864   6.678   4.988  14.228 -0.2895 -0.3324  0.4423
 8150TIP3    H145865   6.730   4.977  14.149 -0.8346 -0.8625  0.1550
 8150TIP3    H245866   6.729   4.946  14.297 -0.9173 -1.9795 -0.0727
 8151TIP3   OH245867   0.728   5.803  11.918 -0.0712 -0.7448 -0.4795
 8151TIP3    H145868   0.806   5.847  11.950 -1.3238 -1.0235  3.0928
 8151TIP3    H245869   0.692   5.864  11.853  0.4729  1.6190  1.3729
 8152TIP3   OH245870   0.260   2.580  15.115 -0.2913  0.2762 -0.3343
 8152TIP3    H145871   0.344   2.623  15.096 -0.4530 -0.3992 -2.8191
 8152TIP3    H245872   0.228   2.553  15.029 -1.5620 -2.2585  0.8949
 8153TIP3   OH245873   2.493   0.517  11.300 -0.0939 -0.1182  0.3556
 8153TIP3    H145874   2.500   0.549  11.210  2.5890 -2.2575 -0.2660
 8153TIP3    H245875   2.492   0.597  11.353 -0.2983  1.1453 -1.4702
 8154TIP3   OH245876   0.031   1.923   2.859 -0.6191 -0.4034  0.0284
 8154TIP3    H145877   0.115   1.879   2.871  0.8452  2.2144 -0.2708
 8154TIP3    H245878  -0.023   1.894   2.932  2.0284  1.2445  2.7355
 8155TIP3   OH245879   1.028   6.282   0.440 -0.1996 -0.4384  0.1442
 8155TIP3    H145880   0.984   6.366   0.425  0.8591  0.3164  1.1423
 8155TIP3    H245881   0.994   6.224   0.372  0.1456  1.2173 -1.4865
 8156TIP3   OH245882   2.337   5.319  15.787  0.1335 -0.4202  0.3762
 8156TIP3    H145883   2.261   5.318  15.728  0.2406 -2.2415  0.2699
 8156TIP3    H245884   2.315   5.256  15.855  1.3437 -0.5796  0.6183
 8157TIP3   OH245885   2.717   6.304  16.340  0.9065 -0.0840 -0.0379
 8157TIP3    H145886   2.796   6.263  16.377  0.7300  1.0288  1.6520
 8157TIP3    H245887   2.645   6.266  16.390  0.5307  0.2458 -0.3276
 8158TIP3   OH245888   2.436   5.982   3.954  0.0762  0.3734  0.6370
 8158TIP3    H145889   2.506   5.929   3.993  0.6629 -0.1685 -1.1283
 8158TIP3    H245890   2.396   5.925   3.889  1.1423  2.2959 -1.7867
 8159TIP3   OH245891   4.274   4.760  15.253 -0.0534  0.4256 -0.0982
 8159TIP3    H145892   4.227   4.763  15.337  0.5393 -2.0975  0.3555
 8159TIP3    H245893   4.366   4.773  15.276  0.0972 -0.1590 -0.3434
 8160TIP3   OH245894   0.099   4.648   2.394 -1.0499 -0.0572  0.0186
 8160TIP3    H145895   0.030   4.581   2.399  0.2297 -1.4213 -0.2645
 8160TIP3    H245896   0.159   4.626   2.466  0.2901 -0.2478 -1.1400
 8161TIP3   OH245897   6.125   3.359   0.127 -0.1756 -0.1319 -0.3567
 8161TIP3    H145898   6.042   3.329   0.166 -0.1906  0.5854  0.1886
 8161TIP3    H245899   6.156   3.426   0.188  1.0875 -0.7785 -0.2807
 8162TIP3   OH245900   2.664   6.419   1.586  0.4320  0.4870  0.8645
 8162TIP3    H145901   2.704   6.334   1.605 -0.5095 -0.4334 -1.1744
 8162TIP3    H245902   2.604   6.402   1.514  0.0656  2.8545  0.5768
 8163TIP3   OH245903   6.721   5.262   0.372  0.0908 -0.0404  0.3376
 8163TIP3    H145904   6.749   5.313   0.296 -2.0310 -0.7754 -0.9559
 8163TIP3    H245905   6.776   5.295   0.444  1.5776  1.1972 -1.3228
 8164TIP3   OH245906   2.885   3.689   1.915 -0.5579 -0.0937  0.0180
 8164TIP3    H145907   2.938   3.622   1.957 -0.0558  0.7604  0.7818
 8164TIP3    H245908   2.886   3.667   1.822  2.5366  0.8370 -0.2165
 8165TIP3   OH245909   3.897   1.670   3.114  0.2631 -0.3133 -0.2327
 8165TIP3    H145910   3.877   1.585   3.075 -0.8248 -1.2467  2.2348
 8165TIP3    H245911   3.984   1.660   3.151 -0.3297 -0.7453  1.0651
 8166TIP3   OH245912   0.708   0.306  13.104 -0.4257 -0.1863  0.0460
 8166TIP3    H145913   0.733   0.398  13.111 -0.1733 -0.3082  0.7300
 8166TIP3    H245914   0.617   0.308  13.075 -0.1402  0.2659 -0.8424
 8167TIP3   OH245915   3.776   6.755  12.248 -0.0356  0.4731  0.7625
 8167TIP3    H145916   3.740   6.793  12.328  0.8374  0.1467  1.3231
 8167TIP3    H245917   3.819   6.829  12.204  0.3997  0.4391  1.1254
 8168TIP3   OH245918   1.821   5.814   6.161 -0.6342 -0.5218 -0.5863
 8168TIP3    H145919   1.789   5.858   6.083 -0.4536  1.1798  0.2781
 8168TIP3    H245920   1.912   5.792   6.141 -0.6551 -0.2881 -0.9330
 8169TIP3   OH245921   2.263   2.749  16.959 -0.0939  0.1959  0.2593
 8169TIP3    H145922   2.315   2.773  17.037 -1.6707  0.7039  1.1765
 8169TIP3    H245923   2.236   2.833  16.922  1.3409 -0.0209 -1.3520
 8170TIP3   OH245924   3.937   4.269  16.686 -0.3345 -0.4402  0.6534
 8170TIP3    H145925   3.921   4.355  16.648  0.6769  0.0207  1.2557
 8170TIP3    H245926   3.940   4.209  16.611  0.4585  0.2828  0.0999
 8171TIP3   OH245927   0.034   0.421   4.958 -0.0731  0.0710 -0.4395
 8171TIP3    H145928   0.029   0.396   5.051  0.0558 -0.1453 -0.4878
 8171TIP3    H245929   0.102   0.489   4.956 -2.1783  2.2517  0.0543
 8172TIP3   OH245930   2.253   1.499   5.330 -0.0979 -0.3717  0.1212
 8172TIP3    H145931   2.168   1.540   5.345 -0.6153 -1.6554  0.7402
 8172TIP3    H245932   2.275   1.458   5.414  1.4201  0.4702  0.1446
 8173TIP3   OH245933   3.070   1.353   1.205 -0.4026 -0.1673 -0.5331
 8173TIP3    H145934   3.038   1.383   1.290 -0.9694  0.0682 -0.8265
 8173TIP3    H245935   3.072   1.258   1.211  0.8436 -0.1098  0.2060
 8174TIP3   OH245936   4.871   4.471  12.380 -0.0111  0.1823  0.3145
 8174TIP3    H145937   4.781   4.440  12.384 -0.5903  1.7011 -0.3343
 8174TIP3    H245938   4.886   4.514  12.464 -0.1561  0.6015  0.1287
 8175TIP3   OH245939   2.091   5.032  13.654 -0.6871  0.1576  0.1006
 8175TIP3    H145940   2.167   4.980  13.681 -0.6122  0.4042  0.3622
 8175TIP3    H245941   2.023   5.012  13.718 -1.0965 -0.6506 -0.5687
 8176TIP3   OH245942   0.809   4.169  12.999 -0.0087  0.1726 -0.0534
 8176TIP3    H145943   0.717   4.186  12.979  0.1294 -0.1889 -1.0428
 8176TIP3    H245944   0.807   4.091  13.055 -0.1684 -1.4805 -2.2772
 8177TIP3   OH245945   4.428   5.964   2.136  0.5376  0.5057 -0.3614
 8177TIP3    H145946   4.477   6.047   2.133 -2.0292  2.0309 -0.9719
 8177TIP3    H245947   4.344   5.988   2.174  0.4073 -2.1909  1.1287
 8178TIP3   OH245948   0.173   0.767   0.190  0.3828  0.1175 -0.1434
 8178TIP3    H145949   0.134   0.680   0.187 -1.0868  0.7162  1.2524
 8178TIP3    H245950   0.236   0.767   0.117  1.0447 -2.3852  0.3889
 8179TIP3   OH245951   1.587   6.209   5.637 -0.5685 -0.1642  0.3151
 8179TIP3    H145952   1.677   6.209   5.604 -0.1472 -1.7206  1.4106
 8179TIP3    H245953   1.546   6.285   5.595  0.9680 -0.0143 -0.9678
 8180TIP3   OH245954   6.184   0.607  11.871  0.6873 -0.0876  0.4779
 8180TIP3    H145955   6.246   0.536  11.854  1.2356  0.3665  0.5740
 8180TIP3    H245956   6.236   0.687  11.863  0.4829  0.2336  2.1864
 8181TIP3   OH245957   3.275   6.186   5.863 -0.1550 -0.1329  0.1471
 8181TIP3    H145958   3.303   6.227   5.781 -0.4298 -2.2387 -1.0587
 8181TIP3    H245959   3.181   6.200   5.867  0.0180  0.9037  0.6558
 8182TIP3   OH245960   2.951   0.874  14.342 -0.5410 -0.0718 -0.4196
 8182TIP3    H145961   3.035   0.907  14.372 -0.6554  0.2864 -0.4950
 8182TIP3    H245962   2.971   0.788  14.304 -0.3298 -0.3378  0.2797
 8183TIP3   OH245963   1.058   5.242  14.252  0.4515  0.2525  0.2844
 8183TIP3    H145964   0.970   5.258  14.219  0.1128 -1.0041  0.5522
 8183TIP3    H245965   1.085   5.325  14.290  0.3094  1.3344 -1.8904
 8184TIP3   OH245966   1.592   6.555   2.531  0.3362  0.3019  0.0545
 8184TIP3    H145967   1.670   6.590   2.575 -0.4034  2.4765 -0.3094
 8184TIP3    H245968   1.590   6.601   2.447 -1.1072 -0.0823 -0.1254
 8185TIP3   OH245969   6.778   1.548  16.629  0.3566  0.0042  0.4997
 8185TIP3    H145970   6.730   1.622  16.591  2.5693  1.4607  0.4567
 8185TIP3    H245971   6.816   1.582  16.710 -0.4612 -1.7547  1.6667
 8186TIP3   OH245972   2.321   0.932   1.223  0.1282 -0.0090  0.7053
 8186TIP3    H145973   2.385   0.947   1.293  1.8079  0.5965 -0.9276
 8186TIP3    H245974   2.260   0.868   1.259  1.3218 -0.1579  2.5040
 8187TIP3   OH245975   5.296   4.419  13.169 -0.5101  0.0981 -0.0290
 8187TIP3    H145976   5.271   4.427  13.261  0.2143 -1.4450  0.3225
 8187TIP3    H245977   5.392   4.422  13.170 -0.4593 -1.0404 -0.6042
 8188TIP3   OH245978   0.896   1.581   2.094 -0.2550 -0.4138 -0.0198
 8188TIP3    H145979   0.805   1.557   2.080 -0.5375  0.2785  0.5391
 8188TIP3    H245980   0.924   1.527   2.168 -0.2708 -0.4893 -0.0692
 8189TIP3   OH245981   2.502   3.897   6.721 -0.1672 -0.7377  0.6105
 8189TIP3    H145982   2.514   3.817   6.671 -0.8918 -0.4543 -0.0131
 8189TIP3    H245983   2.418   3.932   6.693  0.7653  0.9745 -0.1439
 8190TIP3   OH245984   1.627   3.995  14.985 -0.6963  0.6464 -0.4890
 8190TIP3    H145985   1.641   4.014  15.078 -0.0785  0.3453 -0.5139
 8190TIP3    H245986   1.627   4.081  14.943 -1.0427  0.7873 -0.2017
 8191TIP3   OH245987   4.116   2.681  12.176  0.8258 -0.3567 -0.5539
 8191TIP3    H145988   4.175   2.637  12.114  0.4697 -1.5295 -0.0851
 8191TIP3    H245989   4.104   2.617  12.246  3.0023  1.7511  1.8593
 8192TIP3   OH245990   4.204   4.222   4.259  0.8199 -0.0608 -0.0349
 8192TIP3    H145991   4.179   4.219   4.351  0.9793 -1.2602 -0.0272
 8192TIP3    H245992   4.166   4.142   4.221 -0.1226  0.9322 -1.2337
 8193TIP3   OH245993   3.704   3.621  13.840  0.6721 -0.0237 -0.1543
 8193TIP3    H145994   3.643   3.679  13.794  0.6586 -2.3255 -3.1744
 8193TIP3    H245995   3.787   3.668  13.837  0.1788  0.8488 -0.5506
 8194TIP3   OH245996   5.790   1.168   2.840 -1.2409 -0.4185 -0.8102
 8194TIP3    H145997   5.787   1.253   2.798  1.0176 -0.1979 -0.5731
 8194TIP3    H245998   5.804   1.187   2.933 -0.7190 -1.0509 -0.7556
 8195TIP3   OH245999   5.040   5.285   1.858  0.7577  0.6300  0.1873
 8195TIP3    H146000   5.073   5.375   1.864 -0.7756  1.1977  0.2438
 8195TIP3    H246001   4.989   5.284   1.777 -0.5018  0.2381  0.9777
 8196TIP3   OH246002   6.208   2.428   3.991 -0.5941 -0.2454 -0.3761
 8196TIP3    H146003   6.285   2.480   3.968 -0.4586 -0.6594 -0.8378
 8196TIP3    H246004   6.227   2.396   4.079  0.2095 -1.2131 -0.9019
 8197TIP3   OH246005   3.781   0.650   5.998  0.6778 -0.2939 -0.5658
 8197TIP3    H146006   3.808   0.601   5.920 -0.7541 -0.9676 -0.6746
 8197TIP3    H246007   3.861   0.661   6.049  1.3224 -1.3435 -1.3237
 8198TIP3   OH246008   2.645   4.927  11.770  0.7150  0.1182 -0.1532
 8198TIP3    H146009   2.660   4.833  11.777 -1.7989 -0.2567  0.9502
 8198TIP3    H246010   2.585   4.936  11.696  0.8079  0.8330 -0.1406
 8199TIP3   OH246011   0.025   0.379  11.127 -0.0308 -0.0219 -0.0123
 8199TIP3    H146012   0.095   0.316  11.137  0.1754  0.2556  0.3115
 8199TIP3    H246013   0.016   0.419  11.214 -1.8034 -1.3227  0.4179
 8200TIP3   OH246014   5.474   2.318   3.242 -0.6768 -0.6351 -0.4888
 8200TIP3    H146015   5.522   2.356   3.316  0.6571  1.4309 -2.3250
 8200TIP3    H246016   5.448   2.394   3.189 -1.6461 -2.0567 -2.1145
 8201TIP3   OH246017   4.704   6.348  12.631 -0.2898 -0.3111 -0.1423
 8201TIP3    H146018   4.709   6.436  12.592  0.6469  0.1689  1.0374
 8201TIP3    H246019   4.655   6.361  12.712 -0.6754 -0.9907 -0.2688
 8202TIP3   OH246020   5.738   6.041  16.028 -0.4636 -0.3531 -0.4249
 8202TIP3    H146021   5.824   6.083  16.025  0.0634 -1.4736 -1.3343
 8202TIP3    H246022   5.736   5.998  16.113  0.0505 -0.7014 -0.5885
 8203TIP3   OH246023   2.737   1.687   3.401 -0.1363 -0.4954 -0.2103
 8203TIP3    H146024   2.820   1.733   3.388 -0.1545 -0.3148  0.3126
 8203TIP3    H246025   2.698   1.728   3.478  0.0770 -1.6956  0.5620
 8204TIP3   OH246026   1.228   5.796  16.721 -0.2302  0.6440 -0.7994
 8204TIP3    H146027   1.275   5.848  16.786  1.1168 -0.9901 -0.4240
 8204TIP3    H246028   1.197   5.720  16.769 -1.4189  0.6635 -1.5295
 8205TIP3   OH246029   0.383   6.745  12.465  0.2353  0.0764 -0.4226
 8205TIP3    H146030   0.464   6.791  12.445 -0.3093  0.4841 -1.7563
 8205TIP3    H246031   0.314   6.809  12.449 -0.3137 -0.0397  1.4311
 8206TIP3   OH246032   1.420   3.630  13.469 -0.1116  0.6862  0.0361
 8206TIP3    H146033   1.336   3.642  13.513 -0.4890  2.2120 -1.0500
 8206TIP3    H246034   1.425   3.704  13.408  1.3628 -0.2002 -0.9281
 8207TIP3   OH246035   0.061   6.272  16.379 -0.2251  0.6934  0.7966
 8207TIP3    H146036   0.153   6.291  16.399 -0.2866  0.6395  1.1246
 8207TIP3    H246037   0.024   6.357  16.355  0.0226  0.6412  0.2173
 8208TIP3   OH246038   0.581   2.960   5.714 -0.3481 -0.1873  0.0819
 8208TIP3    H146039   0.560   2.910   5.792  1.2044 -1.1066 -0.0676
 8208TIP3    H246040   0.577   2.897   5.642  0.8900  0.0525 -0.2096
 8209TIP3   OH246041   0.415   6.121   5.607 -0.1871 -0.0658  0.4708
 8209TIP3    H146042   0.478   6.057   5.576  1.3387  0.9715  1.3985
 8209TIP3    H246043   0.404   6.102   5.700  0.4072  1.1015  0.7911
 8210TIP3   OH246044   0.240   1.563   0.331  0.1058  0.8164 -0.3227
 8210TIP3    H146045   0.332   1.580   0.312  0.0725  0.2702 -1.0063
 8210TIP3    H246046   0.223   1.477   0.291 -0.4454  0.4716  0.6189
 8211TIP3   OH246047   0.301   0.335   1.676  0.1168 -0.2473 -0.4090
 8211TIP3    H146048   0.353   0.312   1.599  0.7009 -0.7766  0.1399
 8211TIP3    H246049   0.210   0.334   1.645  0.3331 -0.6841 -1.0374
 8212TIP3   OH246050   0.989   4.629  16.163  0.9770  0.2725 -0.2569
 8212TIP3    H146051   0.926   4.678  16.111  0.4882  1.0360  1.0183
 8212TIP3    H246052   1.054   4.598  16.100 -0.6383 -0.4791 -1.5926
 8213TIP3   OH246053   5.149   6.579   0.092  0.0981 -0.0236  0.4752
 8213TIP3    H146054   5.062   6.571   0.052  1.0222  1.2085 -1.8722
 8213TIP3    H246055   5.208   6.535   0.032  0.9507 -2.2617  2.8464
 8214TIP3   OH246056   5.377   1.126  13.430 -0.0383 -0.1371  0.5348
 8214TIP3    H146057   5.415   1.130  13.518 -0.3450  0.3361  0.6491
 8214TIP3    H246058   5.332   1.210  13.420  0.8527  0.2286 -0.4752
 8215TIP3   OH246059   1.770   3.538  16.785 -0.0608 -0.1684  0.3517
 8215TIP3    H146060   1.856   3.507  16.812  0.6028  1.0953 -0.2604
 8215TIP3    H246061   1.758   3.503  16.697 -0.4164 -0.8154  0.6595
 8216TIP3   OH246062   3.960   4.370  12.717  0.3445  0.0803  0.0347
 8216TIP3    H146063   3.881   4.381  12.665  2.1877  0.7810 -2.7190
 8216TIP3    H246064   3.993   4.459  12.732  1.0855 -0.2480  0.4259
 8217TIP3   OH246065   2.331   0.187   5.822  0.0867 -0.4104  0.1053
 8217TIP3    H146066   2.411   0.135   5.834  0.2384  0.1069  1.2972
 8217TIP3    H246067   2.269   0.151   5.885  0.1327  0.7374  0.8093
 8218TIP3   OH246068   3.641   5.479  16.331  0.3875  0.0097 -0.1830
 8218TIP3    H146069   3.683   5.525  16.258 -0.0016 -0.7094 -0.8793
 8218TIP3    H246070   3.586   5.413  16.288 -2.1459  1.5054  0.6547
 8219TIP3   OH246071   1.119   2.869   3.451 -0.2952  0.3156 -0.2201
 8219TIP3    H146072   1.045   2.822   3.411 -0.2261 -1.2003  1.3402
 8219TIP3    H246073   1.079   2.918   3.523  0.1299 -0.0884  0.2945
 8220TIP3   OH246074   0.486   2.127  16.737 -0.1796  0.3743  0.1659
 8220TIP3    H146075   0.535   2.131  16.819 -0.6410  1.3837  0.3915
 8220TIP3    H246076   0.467   2.218  16.715 -0.3016  0.1028 -0.9210
 8221TIP3   OH246077   4.854   1.125   1.740 -0.2065  0.0594  0.1572
 8221TIP3    H146078   4.795   1.179   1.687  0.3005  0.7428  0.2758
 8221TIP3    H246079   4.796   1.070   1.793 -0.7075 -1.5240 -2.0088
 8222TIP3   OH246080   0.401   2.743  10.916  0.4609  0.0225 -0.5307
 8222TIP3    H146081   0.336   2.786  10.860  1.1507 -0.6772 -1.8977
 8222TIP3    H246082   0.449   2.684  10.857 -0.6814 -2.9108  1.3640
 8223TIP3   OH246083   4.356   1.461   3.607  0.2539 -0.1147  0.7436
 8223TIP3    H146084   4.292   1.531   3.604 -0.5347 -0.8076  1.2665
 8223TIP3    H246085   4.403   1.475   3.690  1.3610  0.8845 -0.0297
 8224TIP3   OH246086   3.201   0.895  12.424  0.5961 -0.0019  0.8479
 8224TIP3    H146087   3.195   0.800  12.431 -1.4943  0.0469  0.0103
 8224TIP3    H246088   3.156   0.928  12.501  1.6115  0.3158  1.3124
 8225TIP3   OH246089   3.057   0.913  16.191  0.2926  0.8015 -0.2165
 8225TIP3    H146090   3.076   0.998  16.230  2.5477  0.2426 -0.0254
 8225TIP3    H246091   3.114   0.908  16.115  1.0274 -0.9893  0.4145
 8226TIP3   OH246092   4.663   3.473  13.896  0.1575  0.1402 -0.0207
 8226TIP3    H146093   4.641   3.430  13.979  2.9223  0.2864  0.8602
 8226TIP3    H246094   4.724   3.412  13.853  2.1966  2.0175  0.1103
 8227TIP3   OH246095   3.543   3.984   5.235 -0.5317 -0.2436  0.1794
 8227TIP3    H146096   3.513   4.075   5.230 -0.9599 -0.4279 -0.8055
 8227TIP3    H246097   3.500   3.948   5.313 -1.2594  0.0772 -0.0722
 8228TIP3   OH246098   4.381   1.451   0.656  0.6105  0.0969 -0.3359
 8228TIP3    H146099   4.329   1.459   0.735 -0.9976  0.8772 -1.4420
 8228TIP3    H246100   4.458   1.401   0.682  0.1369  0.4259  1.7218
 8229TIP3   OH246101   3.661   2.515  14.844  0.0989  0.2307 -0.3710
 8229TIP3    H146102   3.715   2.547  14.916 -0.4443 -1.5948  0.8700
 8229TIP3    H246103   3.573   2.508  14.881  0.1897 -2.6132 -0.6097
 8230TIP3   OH246104   6.365   2.472  13.520  0.1249 -0.6204 -0.0778
 8230TIP3    H146105   6.323   2.556  13.501  0.0651 -0.3594  1.1998
 8230TIP3    H246106   6.307   2.428  13.581  1.0622 -0.8060  0.6977
 8231TIP3   OH246107   3.077   2.125   2.977 -0.2121  0.0615  0.1788
 8231TIP3    H146108   3.077   2.209   2.930  0.2499 -0.3571 -0.5739
 8231TIP3    H246109   3.032   2.144   3.059 -3.3025  0.2158 -1.4549
 8232TIP3   OH246110   6.191   6.069  12.100 -0.0182 -0.1562 -0.0673
 8232TIP3    H146111   6.217   5.984  12.066 -1.4803 -0.2827 -0.9322
 8232TIP3    H246112   6.166   6.053  12.191  1.3495 -0.3162  0.2900
 8233TIP3   OH246113   2.932   0.738   3.682  0.3300 -0.7185 -0.3439
 8233TIP3    H146114   2.906   0.827   3.704 -0.4330 -0.5634 -1.7932
 8233TIP3    H246115   2.874   0.683   3.735  1.2975 -0.3615  1.0983
 8234TIP3   OH246116   2.938   0.593  16.524  0.0077  0.2831 -0.7867
 8234TIP3    H146117   2.901   0.635  16.447  0.7109  2.9228  0.2673
 8234TIP3    H246118   3.032   0.586  16.505 -0.1600 -1.2333 -1.1263
 8235TIP3   OH246119   4.316   5.833   5.495  0.0712  0.4899 -0.2646
 8235TIP3    H146120   4.353   5.746   5.511  0.7119  0.5088 -1.6325
 8235TIP3    H246121   4.221   5.818   5.495  0.1685 -0.1500 -0.1687
 8236TIP3   OH246122   5.782   5.481  16.997  0.2697  0.1292  0.0020
 8236TIP3    H146123   5.856   5.479  16.936 -0.1793  0.6579 -0.5706
 8236TIP3    H246124   5.789   5.566  17.041 -0.2114  0.3439 -0.3304
 8237TIP3   OH246125   3.454   6.435  11.681 -0.0347 -0.1319  0.0240
 8237TIP3    H146126   3.489   6.353  11.718 -0.0272 -0.4354 -0.6422
 8237TIP3    H246127   3.392   6.406  11.614  0.1970  0.4092 -0.4288
 8238TIP3   OH246128   0.235   5.921  11.914 -0.0029  0.0520  0.3777
 8238TIP3    H146129   0.165   5.934  11.850 -0.0740 -1.6309  0.0744
 8238TIP3    H246130   0.190   5.894  11.994  0.3180 -2.1922 -0.1476
 8239TIP3   OH246131   5.626   5.758  13.982 -0.4482 -0.4342 -0.1124
 8239TIP3    H146132   5.595   5.829  14.038 -1.4023  0.0531 -1.2239
 8239TIP3    H246133   5.560   5.754  13.912  0.5893 -1.1868 -1.0421
 8240TIP3   OH246134   0.113   2.835   2.292  0.2874  0.1085  0.1993
 8240TIP3    H146135   0.123   2.908   2.353 -0.3275 -1.5465  2.3050
 8240TIP3    H246136   0.102   2.758   2.347 -2.2750 -1.1704 -1.9711
 8241TIP3   OH246137   4.611   4.451  12.722 -0.9811 -0.4238 -1.0212
 8241TIP3    H146138   4.702   4.465  12.747 -1.3448 -1.4594  0.9327
 8241TIP3    H246139   4.595   4.358  12.739 -2.1763 -0.4418 -2.1413
 8242TIP3   OH246140   2.882   3.045  11.488  0.2037 -0.3751  0.1745
 8242TIP3    H146141   2.837   2.990  11.552 -1.0092  0.9156  0.4412
 8242TIP3    H246142   2.940   3.100  11.540 -0.4471  0.3602  0.1150
 8243TIP3   OH246143   3.251   4.817  16.189  0.2995 -0.1804 -0.1144
 8243TIP3    H146144   3.198   4.897  16.187  0.3241 -0.1514  0.3210
 8243TIP3    H246145   3.260   4.792  16.097  2.5272  1.7848 -0.4938
 8244TIP3   OH246146   6.783   2.037  12.540 -0.0937 -0.2480  0.1453
 8244TIP3    H146147   6.825   1.982  12.606  0.0039 -0.7882 -0.3547
 8244TIP3    H246148   6.845   2.037  12.466 -0.8547 -0.8566 -0.5003
 8245TIP3   OH246149   0.243   6.341   4.059  0.2936  0.3233  0.2768
 8245TIP3    H146150   0.158   6.305   4.036  1.5994 -2.6512 -0.0417
 8245TIP3    H246151   0.231   6.375   4.148 -1.7031  1.6957 -0.4757
 8246TIP3   OH246152   1.843   6.517  15.121 -0.6223  0.4585  0.7874
 8246TIP3    H146153   1.901   6.442  15.111 -1.4922 -0.1140 -0.0378
 8246TIP3    H246154   1.766   6.495  15.069 -1.4596  1.3387  1.6410
 8247TIP3   OH246155   1.085   1.610  15.145 -0.2002 -0.0848  0.0822
 8247TIP3    H146156   1.088   1.643  15.235  1.2438 -3.2602  1.2600
 8247TIP3    H246157   1.172   1.629  15.109 -0.6541  0.8438 -0.5657
 8248TIP3   OH246158   3.797   1.831  11.794  0.2162  0.0702 -0.6705
 8248TIP3    H146159   3.763   1.918  11.772  1.7067  0.6980 -0.5932
 8248TIP3    H246160   3.870   1.849  11.854 -0.3126 -1.3147  0.3999
 8249TIP3   OH246161   1.102   2.800   0.312  0.3633  0.9342 -0.3974
 8249TIP3    H146162   1.043   2.821   0.240 -0.4538  0.7816  0.2221
 8249TIP3    H246163   1.100   2.705   0.317  1.6376  0.8570 -1.1804
 8250TIP3   OH246164   2.472   0.079  10.892  0.0080 -0.0040 -0.2719
 8250TIP3    H146165   2.462   0.120  10.977 -0.3760  0.5960 -0.6069
 8250TIP3    H246166   2.443  -0.011  10.905  0.0157  0.0684  0.2451
 8251TIP3   OH246167   1.280   6.241  17.115  0.4569 -0.6288 -0.1929
 8251TIP3    H146168   1.370   6.268  17.097 -0.1044  0.5248 -1.3613
 8251TIP3    H246169   1.241   6.228  17.029 -0.9946  0.5919  0.2601
 8252TIP3   OH246170   2.729   4.295   2.565 -0.7565 -0.7256  0.4877
 8252TIP3    H146171   2.637   4.272   2.555 -1.0785  0.9949 -0.7974
 8252TIP3    H246172   2.732   4.389   2.546  0.8958 -0.2304  2.9075
 8253TIP3   OH246173   5.984   2.934   2.647 -0.5227  0.8397 -0.0826
 8253TIP3    H146174   6.026   3.019   2.636  0.1508  0.5193 -0.0060
 8253TIP3    H246175   5.929   2.944   2.725 -0.8650  1.3688 -0.3954
 8254TIP3   OH246176   6.473   6.251   4.453  0.2113 -0.7088  0.2423
 8254TIP3    H146177   6.533   6.185   4.488  0.1768 -0.6571  0.3959
 8254TIP3    H246178   6.391   6.204   4.440  1.2195 -1.6755 -3.2121
 8255TIP3   OH246179   2.782   5.453  12.661 -0.1928 -0.1742  0.5845
 8255TIP3    H146180   2.767   5.376  12.606  0.2637 -0.1131  0.3739
 8255TIP3    H246181   2.707   5.454  12.721  0.3201 -1.3749  1.2614
 8256TIP3   OH246182   6.241   0.389   3.050  0.1478  0.5045  0.0186
 8256TIP3    H146183   6.283   0.408   2.966  0.2526 -1.0066 -0.2792
 8256TIP3    H246184   6.149   0.372   3.028  0.3603 -0.7691  0.0931
 8257TIP3   OH246185   0.389   5.961  16.391  0.0475 -0.7825 -0.2840
 8257TIP3    H146186   0.462   5.909  16.359  0.8507  1.0893 -1.5775
 8257TIP3    H246187   0.333   5.973  16.315 -0.1655  0.1585  0.0124
 8258TIP3   OH246188   0.336   3.731   1.828  0.1438  0.4949  0.9681
 8258TIP3    H146189   0.422   3.759   1.859  0.8028  0.1698 -0.5192
 8258TIP3    H246190   0.310   3.799   1.766  0.7879 -1.0651 -1.0339
 8259TIP3   OH246191   6.065   2.872   1.646  0.0915 -0.1497 -0.0872
 8259TIP3    H146192   6.089   2.960   1.618 -0.4139  0.3529  1.0433
 8259TIP3    H246193   6.066   2.820   1.565 -0.2645  1.0360 -0.8644
 8260TIP3   OH246194   4.095   3.509   3.324 -0.6066  0.3093  0.2539
 8260TIP3    H146195   4.023   3.546   3.272  0.3728 -0.0295 -1.3563
 8260TIP3    H246196   4.085   3.550   3.410 -1.1747  2.2713 -0.7100
 8261TIP3   OH246197   2.564   5.131  11.233 -0.1241  0.2460 -0.7846
 8261TIP3    H146198   2.591   5.142  11.142 -0.9476 -0.7778 -1.1539
 8261TIP3    H246199   2.484   5.079  11.229 -0.2378  0.2966  0.5151
 8262TIP3   OH246200   5.483   0.868   6.110 -0.7914  0.5052  0.0545
 8262TIP3    H146201   5.515   0.957   6.114 -2.3253  1.1038 -0.5661
 8262TIP3    H246202   5.492   0.835   6.199  3.2865 -0.0201 -0.4656
 8263TIP3   OH246203   1.588   5.374   6.218 -0.2535  0.1202 -0.2762
 8263TIP3    H146204   1.660   5.408   6.272 -0.6215  0.0134  0.2830
 8263TIP3    H246205   1.524   5.446   6.216 -1.6124 -0.9723  1.9661
 8264TIP3   OH246206   6.122   3.845  13.238 -0.5677  0.2529  0.4571
 8264TIP3    H146207   6.120   3.871  13.146  0.6365 -1.2977 -0.0398
 8264TIP3    H246208   6.065   3.768  13.242 -0.6485  0.3375  1.0241
 8265TIP3   OH246209   0.638   2.080  11.553  0.1099 -0.2076  0.3752
 8265TIP3    H146210   0.707   2.121  11.607 -0.0340  1.1325 -0.4290
 8265TIP3    H246211   0.557   2.103  11.598  0.0004  0.7794 -0.3008
 8266TIP3   OH246212   6.429   0.152  13.436 -0.0554 -0.0233 -0.7399
 8266TIP3    H146213   6.462   0.191  13.355  0.7926 -1.3300 -1.0336
 8266TIP3    H246214   6.477   0.197  13.506 -2.2295  2.5414 -0.8108
 8267TIP3   OH246215   5.305   5.041  13.601  0.5123  0.0420 -0.2399
 8267TIP3    H146216   5.399   5.027  13.594  0.5193 -0.2694  0.4942
 8267TIP3    H246217   5.274   5.041  13.510  1.0727 -0.9374 -0.4387
 8268TIP3   OH246218   5.782   6.676  12.768 -0.0343 -0.6302 -0.0582
 8268TIP3    H146219   5.756   6.763  12.799 -0.9108 -0.1192 -2.1100
 8268TIP3    H246220   5.873   6.687  12.739 -0.1246 -0.4030 -0.2588
 8269TIP3   OH246221   1.056   3.895   6.016  0.1305  0.3194 -0.0163
 8269TIP3    H146222   0.969   3.933   6.024 -0.2595 -0.4725 -0.3492
 8269TIP3    H246223   1.069   3.847   6.098  1.0828  2.0856  0.8740
 8270TIP3   OH246224   5.670   2.825   0.848  0.2689  0.5514  0.2701
 8270TIP3    H146225   5.590   2.876   0.836 -0.3566 -0.4138  0.2684
 8270TIP3    H246226   5.672   2.806   0.942  0.8964  1.2003  0.3970
 8271TIP3   OH246227   4.767   2.941   3.398  0.3866 -0.1879 -0.4027
 8271TIP3    H146228   4.781   3.026   3.358 -0.3764  0.8453  1.4538
 8271TIP3    H246229   4.851   2.921   3.440  0.0465  0.4885  0.6379
 8272TIP3   OH246230   5.905   6.773   5.104 -0.6502 -0.2954  0.5224
 8272TIP3    H146231   5.856   6.853   5.124  0.6727  0.2559  1.5993
 8272TIP3    H246232   5.853   6.703   5.142 -1.2018  0.1706  0.6347
 8273TIP3   OH246233   4.875   4.938   5.784  1.1342 -0.1846 -0.2893
 8273TIP3    H146234   4.904   4.939   5.875 -0.0978  0.8490  0.1016
 8273TIP3    H246235   4.900   4.851   5.752 -1.5973 -1.9813  2.1180
 8274TIP3   OH246236   3.222   3.760   3.867 -0.4149  0.4875  0.1086
 8274TIP3    H146237   3.242   3.823   3.798  0.5496 -0.1113 -0.1647
 8274TIP3    H246238   3.296   3.699   3.867 -1.3868 -0.7150  0.2895
 8275TIP3   OH246239   2.422   4.083   4.393  0.5810 -0.1321 -0.1428
 8275TIP3    H146240   2.393   4.174   4.400  1.3320  0.1301 -0.3642
 8275TIP3    H246241   2.517   4.086   4.410  0.9821 -0.5837 -2.1167
 8276TIP3   OH246242   2.416   3.627  15.947 -0.1649  0.1553 -0.1173
 8276TIP3    H146243   2.498   3.597  15.985  0.1719  0.5965 -0.4897
 8276TIP3    H246244   2.349   3.604  16.012  0.1379 -0.9732 -0.1913
 8277TIP3   OH246245   3.100   3.268   1.560 -0.7497  0.2814  0.2635
 8277TIP3    H146246   3.180   3.222   1.585 -0.3746  0.8244  0.0561
 8277TIP3    H246247   3.129   3.341   1.506 -1.5090 -0.5455 -1.3077
 8278TIP3   OH246248   6.554   3.535  15.107 -0.7860 -0.0698 -0.2262
 8278TIP3    H146249   6.537   3.624  15.076  0.7841  0.1947 -0.3681
 8278TIP3    H246250   6.596   3.491  15.033 -0.2414 -0.4909  0.3267
 8279TIP3   OH246251   1.268   5.518  11.056  0.0160  0.6783 -0.0641
 8279TIP3    H146252   1.229   5.440  11.015 -0.7513  1.3887 -0.7148
 8279TIP3    H246253   1.207   5.540  11.126  0.0608  0.8718 -0.0842
 8280TIP3   OH246254   4.168   0.519   5.807 -0.7644  0.1942  0.3682
 8280TIP3    H146255   4.074   0.518   5.824 -1.0787  2.4557 -1.0907
 8280TIP3    H246256   4.176   0.538   5.713  1.1716  1.9230  0.8412
 8281TIP3   OH246257   3.440   3.324   2.456 -0.6690  0.1448  0.1791
 8281TIP3    H146258   3.519   3.342   2.405 -2.1902  1.2346 -1.8364
 8281TIP3    H246259   3.432   3.229   2.457  1.3911 -0.0500  1.5663
 8282TIP3   OH246260   2.614   3.990  11.923  0.2251 -0.2817  0.7882
 8282TIP3    H146261   2.624   4.083  11.941 -2.6961  0.2615 -0.0505
 8282TIP3    H246262   2.590   3.951  12.007 -0.5276  0.0771  0.7464
 8283TIP3   OH246263   5.100   1.567   4.731 -0.2531  0.5981  0.2809
 8283TIP3    H146264   5.134   1.583   4.643 -0.3142 -1.1898 -0.0998
 8283TIP3    H246265   5.165   1.605   4.790  1.0209 -0.3454 -0.4947
 8284TIP3   OH246266   2.902   6.690   0.372 -0.2543 -0.4903 -0.1752
 8284TIP3    H146267   2.973   6.655   0.318 -0.0796  0.4125 -0.5288
 8284TIP3    H246268   2.919   6.654   0.459  0.4807 -0.5069 -0.3195
 8285TIP3   OH246269   6.454   6.700   0.417 -0.6905  0.0608  0.3652
 8285TIP3    H146270   6.413   6.772   0.466 -2.4699  0.3104 -1.4117
 8285TIP3    H246271   6.452   6.729   0.326 -0.1440 -1.6475 -0.2095
 8286TIP3   OH246272   5.701   1.519   3.569 -0.0810  0.6787  0.1156
 8286TIP3    H146273   5.732   1.592   3.515  1.7212 -0.9146 -1.0566
 8286TIP3    H246274   5.628   1.482   3.519 -0.0797  0.7929  0.0278
 8287TIP3   OH246275   4.308   0.249  16.003 -0.5216  0.1263  0.3327
 8287TIP3    H146276   4.385   0.193  15.989 -1.0778 -0.4409 -0.4941
 8287TIP3    H246277   4.283   0.234  16.094  1.5724  1.8654  1.2748
 8288TIP3   OH246278   1.163   5.142  13.681 -0.3339 -0.4591 -0.4046
 8288TIP3    H146279   1.080   5.149  13.728 -0.1016 -1.2016  0.1321
 8288TIP3    H246280   1.157   5.058  13.635  0.3699 -0.8045  0.1338
 8289TIP3   OH246281   5.290   2.109  15.369 -0.3474  0.3857 -0.5871
 8289TIP3    H146282   5.325   2.058  15.442  1.0003  0.2359 -1.3159
 8289TIP3    H246283   5.297   2.052  15.293 -0.8013  0.9000 -1.0241
 8290TIP3   OH246284   1.497   1.061   4.449 -0.6096 -0.9313  0.2617
 8290TIP3    H146285   1.542   0.994   4.397 -0.2394  0.9204 -1.8266
 8290TIP3    H246286   1.558   1.134   4.453 -1.8547  0.1062  0.7244
 8291TIP3   OH246287   1.538   0.162   3.859 -0.0603  0.0922 -0.4495
 8291TIP3    H146288   1.463   0.206   3.818 -0.3342  0.4423  0.4305
 8291TIP3    H246289   1.502   0.120   3.937  0.2703 -1.4021 -1.0829
 8292TIP3   OH246290   4.754   1.456  14.814  0.2582  0.0346 -0.3512
 8292TIP3    H146291   4.677   1.495  14.856  0.8089  0.6841  0.0720
 8292TIP3    H246292   4.804   1.417  14.886 -1.0407 -2.8428 -0.9419
 8293TIP3   OH246293   0.223   5.493   4.706 -0.5438 -0.5742 -0.4629
 8293TIP3    H146294   0.283   5.522   4.775 -0.5230 -0.7222 -0.4194
 8293TIP3    H246295   0.280   5.477   4.631 -0.8611  2.3359 -1.4077
 8294TIP3   OH246296   2.012   2.721   0.381 -0.2830  0.3662  0.0218
 8294TIP3    H146297   1.922   2.748   0.365 -0.2641  0.1848 -0.4007
 8294TIP3    H246298   2.058   2.801   0.405 -0.2358  0.6987 -1.1772
 8295TIP3   OH246299   0.442   1.051   2.653 -0.0881  0.3938 -0.6355
 8295TIP3    H146300   0.535   1.042   2.676 -0.5925 -0.8231  0.9759
 8295TIP3    H246301   0.441   1.041   2.557  1.2052 -1.7830 -0.4690
 8296TIP3   OH246302   0.449   1.579   4.346  0.2548 -0.0171  0.0110
 8296TIP3    H146303   0.518   1.610   4.288  0.4408  0.9686  0.7536
 8296TIP3    H246304   0.495   1.547   4.424 -0.0399 -0.6935 -0.0855
 8297TIP3   OH246305   1.575   4.455   0.164 -0.2288 -0.1132  0.2113
 8297TIP3    H146306   1.662   4.486   0.188 -0.7890  0.8457  1.0318
 8297TIP3    H246307   1.561   4.486   0.075  0.1231  0.0394  0.2109
 8298TIP3   OH246308   4.350   5.899   2.603 -0.1362  0.6099 -0.6214
 8298TIP3    H146309   4.386   5.821   2.560  0.2109 -0.1423  1.0022
 8298TIP3    H246310   4.407   5.970   2.576 -0.9511  0.4688 -2.7962
 8299TIP3   OH246311   3.222   0.691  11.897 -0.3578 -0.1281 -0.4445
 8299TIP3    H146312   3.172   0.767  11.925 -0.0538 -0.8263  2.0828
 8299TIP3    H246313   3.159   0.619  11.896 -0.0650 -0.3945 -0.1428
 8300TIP3   OH246314   5.021   0.300   3.250 -0.0775  0.2664  0.8564
 8300TIP3    H146315   5.003   0.234   3.318 -0.3222 -1.1183 -0.5052
 8300TIP3    H246316   4.936   0.312   3.206  0.6444 -0.8941 -0.9358
 8301TIP3   OH246317   3.350   0.959  13.828  0.3147 -0.4324 -0.4800
 8301TIP3    H146318   3.358   0.864  13.821 -2.2626 -0.6751 -0.3834
 8301TIP3    H246319   3.385   0.980  13.914 -0.2771 -1.4436  0.0136
 8302TIP3   OH246320   0.536   0.321  12.282  0.0296 -0.5821 -0.3771
 8302TIP3    H146321   0.609   0.351  12.228  0.5466 -0.0444  0.6127
 8302TIP3    H246322   0.459   0.331  12.226  0.6662 -0.7759 -1.2837
 8303TIP3   OH246323   5.056   6.240  15.376  0.2662  0.3595 -0.3079
 8303TIP3    H146324   5.031   6.153  15.346  0.0976  0.5069 -0.5889
 8303TIP3    H246325   4.985   6.266  15.435 -0.3239  0.8406 -1.2221
 8304TIP3   OH246326   6.066   2.335  10.674  0.3755  1.0121 -0.2239
 8304TIP3    H146327   5.980   2.344  10.715  1.0087  2.4907  0.8041
 8304TIP3    H246328   6.104   2.257  10.714  0.4568  1.6955  1.0625
 8305TIP3   OH246329   0.458   6.595   5.592 -0.3390 -0.1279  0.2795
 8305TIP3    H146330   0.507   6.627   5.516 -0.7391  0.6888  0.3678
 8305TIP3    H246331   0.424   6.510   5.563  0.5192 -0.3811 -0.0300
 8306TIP3   OH246332   5.901   6.388  10.969  0.5549 -0.2934 -0.5139
 8306TIP3    H146333   5.806   6.391  10.957  0.3110 -2.2622  0.6602
 8306TIP3    H246334   5.914   6.407  11.063  1.1859 -1.6782 -0.3048
 8307TIP3   OH246335   0.543   1.564   0.376  0.0780  0.7104  0.0217
 8307TIP3    H146336   0.491   1.519   0.443  1.0976 -0.8718 -0.2239
 8307TIP3    H246337   0.627   1.579   0.418  0.1538  1.2559 -0.3288
 8308TIP3   OH246338   5.876   4.115  13.368 -0.5627  0.1273  0.1589
 8308TIP3    H146339   5.894   4.202  13.332 -0.3328 -0.1149 -0.3123
 8308TIP3    H246340   5.953   4.096  13.421 -1.3636  0.9287  1.6419
 8309TIP3   OH246341   2.276   6.764   1.468  0.1332 -0.0084  0.4233
 8309TIP3    H146342   2.254   6.806   1.385 -2.2070  0.0513  1.0193
 8309TIP3    H246343   2.293   6.673   1.445  0.5270  0.2425 -0.2679
 8310TIP3   OH246344   6.114   3.513  11.023 -0.2996  0.4876  0.2147
 8310TIP3    H146345   6.079   3.445  10.966  1.0140  0.1367 -0.1757
 8310TIP3    H246346   6.040   3.572  11.037 -0.9353 -0.0203 -0.9388
 8311TIP3   OH246347   2.418   3.564   3.343 -0.4751 -0.0558  0.1767
 8311TIP3    H146348   2.494   3.505   3.353 -0.6283 -0.2177  0.3978
 8311TIP3    H246349   2.342   3.507   3.357 -0.7386 -0.4596 -2.6816
 8312TIP3   OH246350   2.456   3.300  11.744  0.1356 -0.2988 -0.0303
 8312TIP3    H146351   2.389   3.345  11.692  1.0831  0.0320 -0.9696
 8312TIP3    H246352   2.469   3.217  11.698 -0.3080 -0.7859  0.6977
 8313TIP3   OH246353   5.564   2.709   0.568 -0.5935 -0.3637  0.3556
 8313TIP3    H146354   5.570   2.803   0.586  0.5649 -0.6244  1.4928
 8313TIP3    H246355   5.491   2.679   0.623 -2.3431  0.2047 -1.6054
 8314TIP3   OH246356   2.518   2.851  16.438  0.0689  0.0901  0.2277
 8314TIP3    H146357   2.433   2.861  16.480  0.8404  2.1482  1.3248
 8314TIP3    H246358   2.559   2.778  16.485 -1.1452 -1.0818 -0.4707
 8315TIP3   OH246359   4.091   1.600  14.818  0.6229 -0.2904  0.7629
 8315TIP3    H146360   4.062   1.636  14.902 -0.4850  1.0533 -0.1900
 8315TIP3    H246361   4.017   1.612  14.759  0.8857 -2.4702 -0.0758
 8316TIP3   OH246362   1.662   6.656  17.086 -0.4613  0.1377  0.4192
 8316TIP3    H146363   1.605   6.688  17.015  2.0810  2.1816 -0.7864
 8316TIP3    H246364   1.663   6.728  17.150  0.9140  0.2060  0.3288
 8317TIP3   OH246365   1.855   6.305  13.254  0.0912 -0.3933  0.1229
 8317TIP3    H146366   1.797   6.233  13.232 -1.5672  1.3617 -1.3910
 8317TIP3    H246367   1.924   6.302  13.188 -1.3547  0.9246 -1.4696
 8318TIP3   OH246368   3.911   6.187  14.322 -0.1271 -0.3652 -0.2575
 8318TIP3    H146369   3.958   6.183  14.405 -0.2105 -1.1406 -0.2399
 8318TIP3    H246370   3.939   6.269  14.282 -1.2555  0.7695  1.2171
 8319TIP3   OH246371   3.182   6.487  12.341 -0.4928 -0.3857  0.6526
 8319TIP3    H146372   3.223   6.562  12.299 -1.2574 -0.0372  0.5248
 8319TIP3    H246373   3.103   6.471  12.290  0.1538 -1.8800  0.0878
 8320TIP3   OH246374   1.880   3.640   4.660 -0.2469 -0.0447 -0.1834
 8320TIP3    H146375   1.938   3.687   4.719 -0.9109 -0.2377  0.6296
 8320TIP3    H246376   1.849   3.707   4.598  0.3728  0.1734 -0.2598
 8321TIP3   OH246377   3.605   1.044  13.151 -0.5809 -0.1502 -0.1878
 8321TIP3    H146378   3.523   1.012  13.189 -1.0258  1.3386  0.1703
 8321TIP3    H246379   3.595   1.140  13.152  1.8722  0.1317  1.4522
 8322TIP3   OH246380   3.680   3.701   5.656 -0.3625  0.3783  0.0706
 8322TIP3    H146381   3.685   3.705   5.751  2.2990  1.4521 -0.0756
 8322TIP3    H246382   3.683   3.792   5.628  0.6806 -0.0150 -1.1181
 8323TIP3   OH246383   4.486   3.121   0.335 -0.3502  0.2927 -0.0334
 8323TIP3    H146384   4.536   3.144   0.413  0.9519  0.1181 -0.7987
 8323TIP3    H246385   4.450   3.205   0.305 -1.5454  0.2378  1.2067
 8324TIP3   OH246386   4.410   4.031  12.149  0.0508 -0.0877 -0.2800
 8324TIP3    H146387   4.432   3.944  12.184  2.2724  0.2223 -0.8106
 8324TIP3    H246388   4.434   4.026  12.057  0.8517  1.2856 -0.1648
 8325TIP3   OH246389   1.746   5.375   0.285  0.4323 -0.5672 -0.1243
 8325TIP3    H146390   1.691   5.322   0.228 -0.1171  0.0748 -0.2004
 8325TIP3    H246391   1.735   5.336   0.372 -0.7934  0.0412  0.0109
 8326TIP3   OH246392   5.596   1.815  13.312 -0.2778 -0.5493 -0.2139
 8326TIP3    H146393   5.592   1.894  13.259  1.9722 -0.3305 -0.1064
 8326TIP3    H246394   5.571   1.844  13.400 -2.3704 -0.5795 -0.7734
 8327TIP3   OH246395   2.902   0.985   5.739  0.1488 -0.1678 -0.5550
 8327TIP3    H146396   2.808   0.993   5.750 -0.0282 -0.7563 -1.5493
 8327TIP3    H246397   2.932   1.076   5.727 -0.3254 -0.0016 -0.4973
 8328TIP3   OH246398   2.537   4.294   5.091  0.1029  0.3011  0.2522
 8328TIP3    H146399   2.555   4.388   5.096 -1.1184  0.4937  1.3612
 8328TIP3    H246400   2.574   4.258   5.171  0.1897 -0.0964  0.0337
 8329TIP3   OH246401   5.155   0.535   2.397  0.1536  0.6331 -0.2388
 8329TIP3    H146402   5.072   0.524   2.351  0.4178  0.4765 -0.6775
 8329TIP3    H246403   5.182   0.624   2.376 -0.3048  0.9693  0.5682
 8330TIP3   OH246404   5.920   1.176  14.211 -0.2366 -0.3551  0.7228
 8330TIP3    H146405   5.910   1.081  14.212  0.3160 -0.4200  0.3774
 8330TIP3    H246406   5.908   1.202  14.120 -0.4907 -0.0820  0.8311
 8331TIP3   OH246407   2.120   1.518  11.611 -0.1302 -0.1360  0.7892
 8331TIP3    H146408   2.215   1.530  11.612 -0.3054  2.1565 -2.5584
 8331TIP3    H246409   2.103   1.472  11.529 -1.8557 -1.1752  1.7232
 8332TIP3   OH246410   1.128   4.512   1.694 -0.2374 -0.6570 -0.9146
 8332TIP3    H146411   1.079   4.439   1.730 -0.2747 -1.2699 -2.1695
 8332TIP3    H246412   1.062   4.568   1.653 -0.4581  1.1870  1.8320
 8333TIP3   OH246413   1.968   4.472   5.402  0.3603 -0.2137 -0.1068
 8333TIP3    H146414   2.037   4.502   5.461  2.0765 -2.3998 -0.9182
 8333TIP3    H246415   1.977   4.528   5.324  2.1008 -1.3385 -0.7344
 8334TIP3   OH246416   2.218   4.763  12.753  0.8668 -0.0897  0.3706
 8334TIP3    H146417   2.282   4.816  12.706  0.6914  0.3433  0.6230
 8334TIP3    H246418   2.151   4.824  12.782  1.3477 -0.2157  1.8315
 8335TIP3   OH246419   1.361   3.782  12.389  0.3263  0.8269  0.0791
 8335TIP3    H146420   1.346   3.871  12.358  0.3124  0.9145  0.3388
 8335TIP3    H246421   1.430   3.748  12.332 -0.0484  0.8176 -0.3727
 8336TIP3   OH246422   4.650   5.437   5.589 -1.1343  0.0907 -0.4434
 8336TIP3    H146423   4.634   5.345   5.567  1.7292 -0.4112 -0.5882
 8336TIP3    H246424   4.637   5.441   5.684  1.2537 -1.0849 -0.0175
 8337TIP3   OH246425   5.455   0.712  17.163 -0.5673 -0.7064  0.6417
 8337TIP3    H146426   5.460   0.631  17.214 -1.1176 -0.8157  0.5273
 8337TIP3    H246427   5.546   0.741  17.155 -0.2275 -1.9943 -0.4062
 8338TIP3   OH246428   3.972   3.911  12.488 -0.4967 -0.3739  0.4731
 8338TIP3    H146429   3.974   3.982  12.552  0.4476 -0.1301  0.1839
 8338TIP3    H246430   3.900   3.855  12.516 -1.4333  0.8540  0.5362
 8339TIP3   OH246431   3.860   0.415   6.688  0.2828  0.2145  0.0868
 8339TIP3    H146432   3.923   0.366   6.740 -1.3396 -0.3316  1.6018
 8339TIP3    H246433   3.868   0.505   6.718  1.6170  0.4975 -1.0452
 8340TIP3   OH246434   1.318   6.366  12.360  0.4594 -0.0877  0.4370
 8340TIP3    H146435   1.396   6.401  12.404 -0.0737  0.9427  0.5905
 8340TIP3    H246436   1.270   6.444  12.332  0.0685 -0.7201 -0.7062
 8341TIP3   OH246437   1.135   4.052  11.366 -0.1748  0.1706 -0.4722
 8341TIP3    H146438   1.084   3.980  11.329  0.8133 -0.5068 -0.5701
 8341TIP3    H246439   1.199   4.073  11.299  0.6408 -0.0254  0.2268
 8342TIP3   OH246440   0.378   1.247   5.762 -0.1384  0.1230 -0.0727
 8342TIP3    H146441   0.412   1.176   5.708  0.9970  0.4677  0.1720
 8342TIP3    H246442   0.312   1.206   5.818  1.1405 -0.9038  0.6875
 8343TIP3   OH246443   5.605   3.103  12.211 -0.1282 -0.8830  0.5009
 8343TIP3    H146444   5.659   3.177  12.186 -0.9605 -0.1735  0.7524
 8343TIP3    H246445   5.648   3.066  12.287  0.2222 -0.5694  0.4550
 8344TIP3   OH246446   1.686   6.672   0.192  0.5107  0.3205 -0.8606
 8344TIP3    H146447   1.758   6.614   0.166  0.1842 -0.6669  0.4085
 8344TIP3    H246448   1.724   6.760   0.188  2.4336 -0.3186  1.7821
 8345TIP3   OH246449   4.986   3.392  11.641  0.2468 -0.2044 -0.6364
 8345TIP3    H146450   4.903   3.438  11.626 -0.3052 -1.0951 -0.3560
 8345TIP3    H246451   4.968   3.336  11.717  1.2499 -0.0527 -0.2863
 8346TIP3   OH246452   4.703   1.306  15.881 -0.3257 -0.5892  0.0580
 8346TIP3    H146453   4.657   1.222  15.884 -0.9515 -0.1906  2.0829
 8346TIP3    H246454   4.794   1.282  15.862 -0.8710 -1.5636 -1.4498
 8347TIP3   OH246455   3.799   1.465  11.866 -0.0936 -0.1108 -0.1616
 8347TIP3    H146456   3.748   1.494  11.789  2.0661  0.4793 -1.4203
 8347TIP3    H246457   3.890   1.476  11.839  0.7063 -0.2250  2.3985
 8348TIP3   OH246458   2.463   3.609  13.628 -0.1361  0.2257  0.1397
 8348TIP3    H146459   2.420   3.540  13.579  1.3945 -0.2436 -0.5544
 8348TIP3    H246460   2.464   3.577  13.719 -0.7648  0.0109  0.0729
 8349TIP3   OH246461   3.980   5.349   3.025 -0.1043  0.4576 -0.2461
 8349TIP3    H146462   3.926   5.377   2.950 -0.4345  0.7419  0.0983
 8349TIP3    H246463   4.054   5.305   2.985  0.3683  1.7241 -0.8006
 8350TIP3   OH246464   0.426   5.990  11.172  0.2091  0.2168  0.1724
 8350TIP3    H146465   0.482   6.059  11.207 -0.2616  0.0552  1.2533
 8350TIP3    H246466   0.394   6.025  11.089  1.9254  0.2994 -0.4671
 8351TIP3   OH246467   0.266   5.796   6.000 -0.4188  0.4365 -0.3862
 8351TIP3    H146468   0.277   5.758   6.087  2.4654  1.2057 -0.3631
 8351TIP3    H246469   0.237   5.886   6.016 -0.6097  0.3503 -0.2461
 8352TIP3   OH246470   5.120   2.403   6.324  0.0751 -0.7409  0.0169
 8352TIP3    H146471   5.160   2.462   6.388 -0.9645 -0.0295  0.0118
 8352TIP3    H246472   5.149   2.316   6.351  0.6297 -0.3412  0.7396
 8353TIP3   OH246473   5.538   5.888   6.181  0.1413 -0.3746  0.3746
 8353TIP3    H146474   5.444   5.883   6.201  0.2823  3.7494  2.5695
 8353TIP3    H246475   5.545   5.864   6.089 -3.3114  1.1747 -0.3468
 8354TIP3   OH246476   4.307   5.650   4.468  1.1614  0.5932  0.3560
 8354TIP3    H146477   4.255   5.709   4.524  1.3737  1.6288 -0.5312
 8354TIP3    H246478   4.243   5.585   4.437  0.5838  1.3175  0.0160
 8355TIP3   OH246479   3.397   4.148  15.693 -0.5427  0.8098 -0.1822
 8355TIP3    H146480   3.466   4.087  15.669  1.2089  1.9120  1.8016
 8355TIP3    H246481   3.433   4.195  15.769 -2.4808  3.1374 -0.6490
 8356TIP3   OH246482   2.526   6.472   3.984 -0.2256 -0.5129 -0.1268
 8356TIP3    H146483   2.435   6.499   4.001 -0.1069 -0.1791 -0.0295
 8356TIP3    H246484   2.541   6.400   4.046 -0.0541  0.1840  0.6542
 8357TIP3   OH246485   5.677   2.278  14.474 -0.5934  0.5526 -0.5690
 8357TIP3    H146486   5.752   2.335  14.459 -0.3605 -0.0002 -1.5027
 8357TIP3    H246487   5.608   2.338  14.505 -0.8439  1.5850 -3.0366
 8358TIP3   OH246488   2.030   3.593  12.270 -0.3402  0.1827 -0.5771
 8358TIP3    H146489   2.119   3.565  12.292 -0.4255  1.5726  1.6649
 8358TIP3    H246490   2.041   3.675  12.223 -0.5179  2.2330  2.8096
 8359TIP3   OH246491   0.398   0.482   2.252  0.7183 -0.1267 -0.3636
 8359TIP3    H146492   0.399   0.497   2.158  0.1483  0.9481 -0.2092
 8359TIP3    H246493   0.458   0.548   2.288 -0.2210  0.4714  0.1468
 8360TIP3   OH246494   2.020   2.437   5.120 -0.3552  0.4965  0.4181
 8360TIP3    H146495   1.958   2.426   5.192 -1.9693  0.8313 -0.8754
 8360TIP3    H246496   2.094   2.381   5.143 -1.3766 -0.3432  1.7355
 8361TIP3   OH246497   2.796   5.765   2.262  0.4400  0.3949  0.4380
 8361TIP3    H146498   2.756   5.852   2.261  0.5925  0.4684  0.8664
 8361TIP3    H246499   2.724   5.706   2.241 -0.1518  0.4239  2.2907
 8362TIP3   OH246500   4.216   5.784  10.879  0.3619  0.1780 -0.1319
 8362TIP3    H146501   4.246   5.842  10.809 -2.7006  0.4364 -1.2638
 8362TIP3    H246502   4.283   5.714  10.881  0.8691  0.5119 -2.8567
 8363TIP3   OH246503   3.384   1.540   4.357 -0.6128  0.4049 -0.5955
 8363TIP3    H146504   3.376   1.463   4.413 -1.7437  1.8174  1.2361
 8363TIP3    H246505   3.445   1.598   4.405 -1.4515  1.5491 -0.8888
 8364TIP3   OH246506   6.410   5.903  14.857 -0.1532 -0.1348  0.2784
 8364TIP3    H146507   6.505   5.905  14.844  0.2116 -1.9655  2.4073
 8364TIP3    H246508   6.387   5.811  14.851 -1.4366  0.0381  2.1868
 8365TIP3   OH246509   5.017   3.581   3.593 -0.7041  0.6508 -0.3067
 8365TIP3    H146510   4.981   3.603   3.679 -0.2872  1.7116 -0.4020
 8365TIP3    H246511   5.090   3.523   3.612 -0.8755  0.5463  0.0322
 8366TIP3   OH246512   3.615   1.860  11.256  0.3281 -0.7376 -0.3036
 8366TIP3    H146513   3.555   1.852  11.182 -1.9329  2.7732  1.0149
 8366TIP3    H246514   3.698   1.885  11.216 -0.3080 -0.9561 -1.8132
 8367TIP3   OH246515   2.356   1.185   2.744  0.5331  0.0435 -0.4172
 8367TIP3    H146516   2.318   1.168   2.657 -2.3512 -1.6498  1.1007
 8367TIP3    H246517   2.317   1.118   2.800  2.0507  1.3804  2.3055
 8368TIP3   OH246518   4.488   6.002  11.854  0.0782  0.1377  0.2509
 8368TIP3    H146519   4.577   6.035  11.846 -0.5645  1.6474 -0.8554
 8368TIP3    H246520   4.462   5.980  11.764 -1.7161  2.5229  0.1485
 8369TIP3   OH246521   5.936   5.488   4.038  0.2239  0.4150 -0.0333
 8369TIP3    H146522   5.911   5.463   3.949 -2.3586  1.4674  0.3543
 8369TIP3    H246523   6.029   5.509   4.032 -0.2464  1.9419 -2.8356
 8370TIP3   OH246524   5.258   0.139   1.433  0.2243 -0.6001  0.6863
 8370TIP3    H146525   5.276   0.170   1.522  1.2275  0.8418  0.0138
 8370TIP3    H246526   5.165   0.118   1.433 -0.1806  1.0719  1.5954
 8371TIP3   OH246527   4.942   6.371   6.169 -0.1143  0.0736  0.4138
 8371TIP3    H146528   4.993   6.408   6.242  0.3259 -2.7067  1.5772
 8371TIP3    H246529   4.943   6.277   6.185 -0.7131 -0.5154 -2.7844
 8372TIP3   OH246530   5.306   5.898   3.415 -0.7540  0.3577 -0.8114
 8372TIP3    H146531   5.269   5.957   3.482 -1.6266 -2.2065  1.0426
 8372TIP3    H246532   5.237   5.892   3.349 -0.9301  0.9172 -0.6842
 8373TIP3   OH246533   1.101   0.906  13.390  0.8198 -0.5454  0.5080
 8373TIP3    H146534   1.106   0.997  13.358  0.3595 -0.8834 -0.5660
 8373TIP3    H246535   1.162   0.858  13.335  2.7681 -0.4976  2.5789
 8374TIP3   OH246536   2.543   5.896  14.027  0.1333 -0.3494 -0.6839
 8374TIP3    H146537   2.496   5.979  14.033  0.1004 -0.4758  0.8446
 8374TIP3    H246538   2.617   5.915  13.969  0.6486  0.9860  0.3884
 8375TIP3   OH246539   1.749   5.804   1.120  0.4450 -0.7816 -0.6061
 8375TIP3    H146540   1.838   5.808   1.087  0.5882  0.3990 -0.1097
 8375TIP3    H246541   1.700   5.863   1.063 -0.1266 -1.8027 -1.1876
 8376TIP3   OH246542   4.683   6.415   6.053  0.0703 -0.4087 -0.0459
 8376TIP3    H146543   4.660   6.323   6.065  1.8845 -1.0067 -0.9207
 8376TIP3    H246544   4.746   6.433   6.123 -0.4033  0.2126  0.2222
 8377TIP3   OH246545   4.167   2.953  15.403  0.0156 -0.0204  0.0831
 8377TIP3    H146546   4.130   2.865  15.415 -0.7494  0.3204  0.2011
 8377TIP3    H246547   4.162   2.994  15.489  1.7325 -0.3763  0.3756
 8378TIP3   OH246548   0.612   0.672   1.413 -0.5267 -0.3128  0.0864
 8378TIP3    H146549   0.666   0.617   1.469 -0.8177 -0.4855  0.2010
 8378TIP3    H246550   0.575   0.612   1.348  0.8125  0.0944 -1.0804
 8379TIP3   OH246551   6.550   2.093  15.896 -0.0901  0.3638 -0.0955
 8379TIP3    H146552   6.484   2.090  15.826 -1.8138  0.1808  1.4946
 8379TIP3    H246553   6.518   2.161  15.955  1.6265  0.8733  0.2582
 8380TIP3   OH246554   3.825   5.243   5.558  0.0163 -0.2653  0.7060
 8380TIP3    H146555   3.878   5.221   5.635  1.0127 -1.4032 -0.2815
 8380TIP3    H246556   3.757   5.176   5.555  1.2413 -1.5005 -0.5756
 8381TIP3   OH246557   1.287   2.700   0.080 -0.1973 -0.1868 -0.4244
 8381TIP3    H146558   1.301   2.783   0.034  1.7852  0.0702  0.5873
 8381TIP3    H246559   1.206   2.713   0.129  0.0235  1.1150 -0.3774
 8382TIP3   OH246560   2.732   0.452  16.121  0.0695  0.3621 -1.0302
 8382TIP3    H146561   2.695   0.442  16.209  0.3172 -2.8682 -1.2269
 8382TIP3    H246562   2.657   0.442  16.062 -0.1084  2.6035 -1.2315
 8383TIP3   OH246563   0.464   3.476   2.415 -0.4442 -0.6268 -0.0413
 8383TIP3    H146564   0.528   3.438   2.355  2.1208  0.6121  1.8123
 8383TIP3    H246565   0.394   3.411   2.421  0.2350 -1.6717 -2.7092
 8384TIP3   OH246566   5.736   3.168  10.565 -0.7196 -0.4912  0.1603
 8384TIP3    H146567   5.778   3.240  10.519  0.4769 -1.6367 -0.5718
 8384TIP3    H246568   5.807   3.107  10.586 -1.7633 -1.6666  0.3668
 8385TIP3   OH246569   5.404   5.674   0.692 -0.4056  0.4181 -0.6084
 8385TIP3    H146570   5.330   5.734   0.683 -0.3940  0.5279 -0.0162
 8385TIP3    H246571   5.383   5.600   0.636 -0.4003  1.0049 -1.3858
 8386TIP3   OH246572   4.499   1.409  13.685 -0.2200 -0.5784 -0.0544
 8386TIP3    H146573   4.474   1.448  13.768  3.4122  0.2862  0.7099
 8386TIP3    H246574   4.445   1.454  13.620 -0.6399  1.1604  1.4725
 8387TIP3   OH246575   0.913   0.010   0.431  0.0086 -0.3215 -0.1279
 8387TIP3    H146576   0.930  -0.083   0.419 -0.9259 -0.4539 -0.4394
 8387TIP3    H246577   0.932   0.027   0.523  1.2576 -0.5809 -0.3259
 8388TIP3   OH246578   0.979   1.598  14.398 -0.0425 -0.3054  0.4005
 8388TIP3    H146579   0.897   1.552  14.380 -0.5698  0.5921  0.4877
 8388TIP3    H246580   1.048   1.533  14.379 -0.7990 -1.4820  1.6004
 8389TIP3   OH246581   3.196   1.225  12.146  0.0247  0.1130 -0.2691
 8389TIP3    H146582   3.228   1.312  12.124 -1.3758  0.0661 -2.6513
 8389TIP3    H246583   3.253   1.166  12.097  1.3565 -0.3685  1.8122
 8390TIP3   OH246584   0.140   1.974  15.390 -0.0936 -0.3185 -0.5937
 8390TIP3    H146585   0.229   1.954  15.421  0.7161  1.8198 -1.3590
 8390TIP3    H246586   0.116   2.053  15.439 -0.4212  0.7468 -2.4371
 8391TIP3   OH246587   1.560   0.979   5.542 -0.0129 -0.3695  0.2881
 8391TIP3    H146588   1.599   1.061   5.510 -0.7066 -0.4321 -0.7643
 8391TIP3    H246589   1.467   0.988   5.522 -0.2660 -0.9460  1.2027
 8392TIP3   OH246590   3.302   0.865  12.934 -0.1298  0.3873  0.0887
 8392TIP3    H146591   3.328   0.916  12.857  0.5549  0.1373  0.1470
 8392TIP3    H246592   3.266   0.784  12.898 -0.0867  0.3983  0.0207
 8393TIP3   OH246593   2.906   0.227  11.350 -0.3199 -0.3152  0.2344
 8393TIP3    H146594   2.917   0.241  11.256 -1.5314 -2.1432 -0.2133
 8393TIP3    H246595   2.927   0.134  11.363  2.9305  0.6186  2.3040
 8394TIP3   OH246596   0.809   0.068  14.587  0.1445 -0.2062  0.1852
 8394TIP3    H146597   0.788   0.092  14.677 -1.8635  0.8146 -0.5345
 8394TIP3    H246598   0.858  -0.014  14.595 -1.2374 -0.8721  2.1267
 8395TIP3   OH246599   3.654   1.677   3.319 -0.8393 -0.4566  0.0469
 8395TIP3    H146600   3.749   1.669   3.322 -0.7842  0.1605 -0.0760
 8395TIP3    H246601   3.630   1.643   3.233 -0.3070  3.6166 -1.8033
 8396TIP3   OH246602   6.401   4.588  16.801 -0.8767  0.2240  0.4896
 8396TIP3    H146603   6.434   4.500  16.816 -1.1571  0.1736  0.8287
 8396TIP3    H246604   6.316   4.589  16.844 -1.2137  0.4215 -0.1629
 8397TIP3   OH246605   4.598   3.254  12.216 -0.1181 -0.7826  0.0161
 8397TIP3    H146606   4.671   3.235  12.156 -0.5281 -0.9749 -0.4238
 8397TIP3    H246607   4.571   3.168  12.248  0.1598 -0.6731  0.5513
 8398TIP3   OH246608   1.480   2.522  12.388  0.1912  0.1189 -0.1788
 8398TIP3    H146609   1.534   2.555  12.317  1.2405 -0.4291  0.3525
 8398TIP3    H246610   1.533   2.453  12.428 -0.4424  0.3292  1.0396
 8399TIP3   OH246611   2.096   1.919  12.050  0.4441 -0.0344 -0.3385
 8399TIP3    H146612   2.062   1.976  11.980  1.1105 -0.4113 -0.9721
 8399TIP3    H246613   2.020   1.868  12.078  0.1084  0.3166 -0.6002
 8400TIP3   OH246614   4.552   5.301  11.688 -0.2062 -0.2484 -0.3914
 8400TIP3    H146615   4.584   5.385  11.720 -0.7571 -0.1914  0.0267
 8400TIP3    H246616   4.593   5.235  11.744  1.6741 -0.3923 -1.8866
 8401TIP3   OH246617   2.469   0.054   0.572  0.0669  0.6948  0.6023
 8401TIP3    H146618   2.553   0.045   0.526  1.1089  0.6414  2.4756
 8401TIP3    H246619   2.452   0.148   0.573  0.8349  0.8299  1.4807
 8402TIP3   OH246620   4.433   0.103   4.224 -0.8833 -0.4119 -0.2947
 8402TIP3    H146621   4.453   0.083   4.315 -1.8338 -0.0537 -0.0060
 8402TIP3    H246622   4.519   0.101   4.180 -0.2431  0.7707  0.8597
 8403TIP3   OH246623   0.421   3.014   1.968 -0.3890 -0.0657 -0.2537
 8403TIP3    H146624   0.364   2.969   2.030 -0.1875 -2.9991 -2.0682
 8403TIP3    H246625   0.366   3.084   1.932 -1.6873 -0.6234  0.5775
 8404TIP3   OH246626   0.932   3.379   3.633 -0.2205 -0.2061 -0.1763
 8404TIP3    H146627   0.911   3.321   3.559  0.4744 -1.7572  0.8373
 8404TIP3    H246628   1.018   3.350   3.663  0.4709  1.8326 -0.1053
 8405TIP3   OH246629   1.051   3.541  16.742  0.4814 -0.1608  0.1520
 8405TIP3    H146630   1.108   3.611  16.710 -2.8490  2.8000  0.3291
 8405TIP3    H246631   1.033   3.487  16.666  0.6882  0.9911 -0.7342
 8406TIP3   OH246632   0.885   5.894   3.448 -0.0520  0.5847 -1.0459
 8406TIP3    H146633   0.838   5.813   3.470  0.8547 -0.8687 -4.0689
 8406TIP3    H246634   0.817   5.958   3.430 -0.7980  0.1526  0.1925
 8407TIP3   OH246635   5.004   0.090   4.528  0.2082 -0.0557  0.2871
 8407TIP3    H146636   5.097   0.088   4.507  0.3260  0.8970  0.6535
 8407TIP3    H246637   4.967   0.014   4.484  1.0239  0.0088 -0.5140
 8408TIP3   OH246638   2.401   1.380  15.521  0.0867 -0.2482 -0.4269
 8408TIP3    H146639   2.454   1.439  15.576 -1.3093 -0.9341  1.7143
 8408TIP3    H246640   2.351   1.439  15.465  1.0835  0.4894 -0.5600
 8409TIP3   OH246641   3.132   4.933   4.393 -0.0398  0.1672 -0.3474
 8409TIP3    H146642   3.083   5.002   4.348  1.2028 -0.0922 -2.1457
 8409TIP3    H246643   3.189   4.981   4.453 -0.5710  0.5943 -0.1716
 8410TIP3   OH246644   0.309   2.409   2.821 -0.2938 -0.0777  0.2471
 8410TIP3    H146645   0.223   2.398   2.860 -0.7191 -0.6030 -0.8176
 8410TIP3    H246646   0.325   2.328   2.773 -0.6792  1.3029 -2.3366
 8411TIP3   OH246647   2.319   4.485  14.876 -0.1627 -0.0970 -0.0340
 8411TIP3    H146648   2.304   4.532  14.794 -0.6858  0.8132  0.5727
 8411TIP3    H246649   2.237   4.438  14.892 -0.5775  0.8519  0.6857
 8412TIP3   OH246650   0.440   3.624   3.713 -0.1611  0.2971 -0.1074
 8412TIP3    H146651   0.360   3.633   3.661 -1.0448 -0.0824  1.1649
 8412TIP3    H246652   0.490   3.556   3.669 -2.1531 -2.0014  1.0445
 8413TIP3   OH246653   4.680   4.185   4.055 -0.0331  0.1013 -0.4720
 8413TIP3    H146654   4.746   4.244   4.017  0.8629 -0.2894  0.4817
 8413TIP3    H246655   4.686   4.200   4.149  0.4820 -1.8200 -0.1930
 8414TIP3   OH246656   6.327   2.979   0.996 -0.3183  0.4878 -0.1973
 8414TIP3    H146657   6.369   3.060   1.024  0.2492  0.6576 -1.4912
 8414TIP3    H246658   6.303   2.934   1.077  1.0738  1.0692  0.5484
 8415TIP3   OH246659   3.098   5.016   4.004  0.1489  0.0195 -0.5304
 8415TIP3    H146660   3.031   4.996   3.939  0.4447 -1.5941 -0.3575
 8415TIP3    H246661   3.163   4.947   3.994 -0.8975 -1.5983  2.9762
 8416TIP3   OH246662   5.129   4.689   0.353 -0.7439  0.0279  0.5567
 8416TIP3    H146663   5.122   4.658   0.443 -0.3924 -2.6265 -0.2835
 8416TIP3    H246664   5.223   4.685   0.333 -0.9720 -0.9740 -0.4193
 8417TIP3   OH246665   4.433   3.979  14.356  0.4686  0.4269  0.2296
 8417TIP3    H146666   4.499   4.047  14.369  0.4903  0.6584 -1.0961
 8417TIP3    H246667   4.482   3.897  14.354  0.4352  0.3425  1.9207
 8418TIP3   OH246668   5.433   4.600  11.426  0.1398 -0.1770  0.0905
 8418TIP3    H146669   5.512   4.551  11.404  0.1793  0.0864 -0.3608
 8418TIP3    H246670   5.363   4.556  11.378 -0.2034 -1.1931  1.4902
 8419TIP3   OH246671   2.718   4.259   3.586  0.4526 -0.0720  0.3099
 8419TIP3    H146672   2.732   4.333   3.646 -0.4867 -0.0852  0.5574
 8419TIP3    H246673   2.756   4.288   3.503  2.9341 -0.5592  1.2315
 8420TIP3   OH246674   5.426   5.185   5.552 -0.1767 -0.3273  0.1083
 8420TIP3    H146675   5.385   5.120   5.610 -0.7923 -0.3195 -0.3032
 8420TIP3    H246676   5.519   5.165   5.555 -0.5487 -2.5371 -1.5495
 8421TIP3   OH246677   0.175   4.582  12.192  0.5476  0.3420 -0.5811
 8421TIP3    H146678   0.237   4.526  12.146  0.8627  1.9537 -2.1346
 8421TIP3    H246679   0.225   4.620  12.264  1.1330  0.9413 -1.2995
 8422TIP3   OH246680   1.410   4.561   4.839 -0.5357  0.2519 -0.7430
 8422TIP3    H146681   1.429   4.643   4.884 -1.2516 -0.5136  0.9859
 8422TIP3    H246682   1.492   4.512   4.841 -0.7846 -0.1270  0.4834
 8423TIP3   OH246683   6.597   3.352  13.618  0.4358 -0.0501  0.2956
 8423TIP3    H146684   6.516   3.397  13.592  0.6698 -0.5214 -1.3267
 8423TIP3    H246685   6.620   3.389  13.703 -0.3310  1.6106 -0.2186
 8424TIP3   OH246686   0.921   5.230  15.338  0.1251 -0.0340 -0.7327
 8424TIP3    H146687   0.934   5.137  15.322  1.7969 -0.0103  0.3849
 8424TIP3    H246688   0.906   5.236  15.432 -1.7663  0.6540 -1.0550
 8425TIP3   OH246689   1.954   1.691   3.289  0.1474  0.2562  0.5268
 8425TIP3    H146690   1.883   1.692   3.353 -0.7992 -1.6548 -0.4591
 8425TIP3    H246691   2.033   1.684   3.342 -0.6272 -1.4190  1.5062
 8426TIP3   OH246692   5.910   1.048   1.757  0.7672 -0.4631 -0.0255
 8426TIP3    H146693   5.879   1.075   1.844 -0.5256 -1.6588 -0.0954
 8426TIP3    H246694   6.003   1.071   1.757 -0.1291  3.4459  0.0911
 8427TIP3   OH246695   3.593   6.186   0.585  0.0620  0.3600 -0.4071
 8427TIP3    H146696   3.603   6.107   0.638  0.9791  0.3282 -0.6163
 8427TIP3    H246697   3.635   6.255   0.636  1.3837  0.2318 -1.2915
 8428TIP3   OH246698   3.118   5.373  12.052 -0.6091  0.0761 -0.1724
 8428TIP3    H146699   3.126   5.295  12.107 -0.8946  1.3976  1.7942
 8428TIP3    H246700   3.031   5.366  12.014 -0.2073 -1.1209 -0.8804
 8429TIP3   OH246701   6.170   1.780  12.334  0.0471  0.0934 -1.1261
 8429TIP3    H146702   6.115   1.802  12.259 -1.7421  0.9587  0.4074
 8429TIP3    H246703   6.141   1.838  12.403  1.4957 -0.8790  0.3372
 8430TIP3   OH246704   2.319   4.933  16.875 -0.1971  0.0583  0.1695
 8430TIP3    H146705   2.289   4.861  16.819  1.6485  0.4271 -1.3401
 8430TIP3    H246706   2.273   5.010  16.842 -1.3740 -0.2314  1.1077
 8431TIP3   OH246707   0.371   1.450  12.349 -0.0327  0.8568 -0.2943
 8431TIP3    H146708   0.285   1.411  12.330 -0.8660  1.6013  1.7281
 8431TIP3    H246709   0.401   1.403  12.427  0.8222  1.4785 -0.2439
 8432TIP3   OH246710   3.502   4.691   3.381 -0.0895 -0.0290 -0.3189
 8432TIP3    H146711   3.480   4.661   3.293  1.1012 -0.3008 -0.5310
 8432TIP3    H246712   3.502   4.787   3.374 -0.6124 -0.0343 -0.4518
 8433TIP3   OH246713   2.959   0.065  14.319  0.5655  0.0393  0.3016
 8433TIP3    H146714   2.903   0.011  14.374  0.3515 -1.6545 -1.5340
 8433TIP3    H246715   3.048   0.046  14.348  0.2930  2.1676  2.7123
 8434TIP3   OH246716   3.594   0.222   3.862  0.0533 -0.5247 -0.0704
 8434TIP3    H146717   3.619   0.267   3.782  1.7630  0.2684  0.8975
 8434TIP3    H246718   3.498   0.230   3.865  0.2192  1.8021 -0.6315
 8435TIP3   OH246719   1.862   2.831   4.745 -0.0986 -0.2674  0.0855
 8435TIP3    H146720   1.814   2.908   4.774  0.3173 -0.5365  1.5127
 8435TIP3    H246721   1.951   2.863   4.726 -0.2910 -0.1476 -0.6397
 8436TIP3   OH246722   1.558   3.912   2.334  0.0906  0.1407 -0.2166
 8436TIP3    H146723   1.465   3.917   2.311  0.0638  0.0035 -0.1410
 8436TIP3    H246724   1.574   3.818   2.350  0.2639  0.1521 -0.3235
 8437TIP3   OH246725   5.301   5.591  12.550  0.0086 -0.0736  0.4980
 8437TIP3    H146726   5.354   5.663  12.582  3.1813 -2.0005 -0.1832
 8437TIP3    H246727   5.242   5.631  12.486  0.2074  2.2314  1.7079
 8438TIP3   OH246728   5.903   3.082  16.334  0.7488 -0.2817  0.8832
 8438TIP3    H146729   5.969   3.036  16.282  0.7934  1.0096 -0.2232
 8438TIP3    H246730   5.907   3.039  16.420  0.5208 -2.5712 -0.2123
 8439TIP3   OH246731   2.250   6.175  12.000  0.2698  0.0669  0.3108
 8439TIP3    H146732   2.334   6.157  12.042  0.0538  0.8661  1.0965
 8439TIP3    H246733   2.260   6.140  11.911  0.6931 -1.6957  1.0345
 8440TIP3   OH246734   3.735   5.602   3.330  0.0780 -0.2083  0.2221
 8440TIP3    H146735   3.669   5.536   3.349  1.1477 -1.6854 -1.0089
 8440TIP3    H246736   3.717   5.629   3.240 -0.8038  1.7424  0.9661
 8441TIP3   OH246737   3.842   4.273   0.945  0.3620 -0.3156 -0.3742
 8441TIP3    H146738   3.929   4.269   0.905  0.4685 -1.5912 -0.0468
 8441TIP3    H246739   3.791   4.331   0.888  1.9011  1.8368  0.3878
 8442TIP3   OH246740   4.199   5.643  15.948  0.2393 -0.7521 -0.0635
 8442TIP3    H146741   4.233   5.699  16.017 -0.2219  0.6097 -0.9071
 8442TIP3    H246742   4.114   5.614  15.980  0.4524 -0.9084  0.3571
 8443TIP3   OH246743   6.572   2.412   0.138  0.0118  0.6119 -0.5811
 8443TIP3    H146744   6.579   2.390   0.231 -0.2536  0.0089 -0.6988
 8443TIP3    H246745   6.655   2.453   0.117  0.7465 -0.8018 -0.4836
 8444TIP3   OH246746   4.194   1.139   5.398 -0.1201 -0.1435  0.0878
 8444TIP3    H146747   4.140   1.174   5.469 -1.5834 -0.9861 -0.6050
 8444TIP3    H246748   4.132   1.106   5.334  1.1886  1.2250 -1.9294
 8445TIP3   OH246749   5.672   5.586   2.890  0.1742  0.1263  0.0667
 8445TIP3    H146750   5.638   5.558   2.975 -0.1785  1.0281  0.2322
 8445TIP3    H246751   5.595   5.620   2.844  0.3014 -0.6941 -0.7487
 8446TIP3   OH246752   6.363   1.760   0.502 -0.3195 -0.0558 -0.5295
 8446TIP3    H146753   6.431   1.705   0.463 -0.0639 -0.5325  0.5476
 8446TIP3    H246754   6.312   1.700   0.556  0.1331  0.8048  0.8825
 8447TIP3   OH246755   4.180   5.491  11.416 -0.2210 -0.1368  0.4591
 8447TIP3    H146756   4.224   5.500  11.501  0.2755  1.0590  0.0793
 8447TIP3    H246757   4.134   5.573  11.404 -0.9263 -0.6113 -0.0802
 8448TIP3   OH246758   5.796   3.298  16.820 -0.2013 -0.2046 -0.2898
 8448TIP3    H146759   5.841   3.274  16.739 -0.4605  0.8663 -0.7584
 8448TIP3    H246760   5.866   3.305  16.885  0.6252  3.4817 -1.4834
 8449TIP3   OH246761   2.039   1.510   4.015 -0.1282 -0.0462  0.5483
 8449TIP3    H146762   2.001   1.426   4.042 -1.9920  0.0258 -1.6466
 8449TIP3    H246763   2.002   1.574   4.076 -2.6785 -0.1641 -0.7662
 8450TIP3   OH246764   1.116   2.108   6.315 -0.4207 -0.8699 -0.4389
 8450TIP3    H146765   1.119   2.048   6.240 -2.0979 -1.5904  0.0352
 8450TIP3    H246766   1.203   2.102   6.354  0.1321 -1.2978 -1.7105
 8451TIP3   OH246767   5.265   4.662   3.061  0.3037 -0.7411  0.2992
 8451TIP3    H146768   5.315   4.742   3.042  0.2604 -0.8871 -0.4559
 8451TIP3    H246769   5.332   4.595   3.076  0.3369 -0.7742  0.0005
 8452TIP3   OH246770   0.716   1.716   3.184  0.1045 -0.4799 -0.1802
 8452TIP3    H146771   0.628   1.701   3.149  0.9687  0.0180 -2.7393
 8452TIP3    H246772   0.771   1.651   3.138  1.3029  0.2339  0.2218
 8453TIP3   OH246773   6.738   6.058   2.973 -0.3973 -0.5481  0.6062
 8453TIP3    H146774   6.679   6.120   2.931  0.2274  0.3623  1.0671
 8453TIP3    H246775   6.683   5.981   2.990 -0.8075 -0.7173 -1.3103
 8454TIP3   OH246776   3.383   0.674   2.359 -0.8514  0.2600  0.6855
 8454TIP3    H146777   3.354   0.669   2.268  1.4492  3.0707 -0.2747
 8454TIP3    H246778   3.424   0.589   2.375  0.5098  0.4144 -1.6040
 8455TIP3   OH246779   3.528   6.722  17.008  0.1230 -0.6411 -0.0703
 8455TIP3    H146780   3.619   6.728  16.981  0.3692 -0.9209  0.6806
 8455TIP3    H246781   3.514   6.628  17.024 -0.1659 -0.5473  0.2409
 8456TIP3   OH246782   4.715   0.247  15.537  0.1806  0.5076  0.8074
 8456TIP3    H146783   4.737   0.164  15.496 -0.8331  0.7635 -0.2910
 8456TIP3    H246784   4.678   0.300  15.466  0.7689  1.8772  1.4953
 8457TIP3   OH246785   3.994   0.736   3.148 -0.2861 -0.6148  0.0001
 8457TIP3    H146786   4.033   0.808   3.196  1.1560 -0.7052 -0.9778
 8457TIP3    H246787   4.013   0.658   3.200  0.3057 -0.5800 -0.1634
 8458TIP3   OH246788   3.184   6.505  16.746  0.8376 -0.0467  0.2695
 8458TIP3    H146789   3.191   6.565  16.671 -2.1467 -1.0622 -0.8771
 8458TIP3    H246790   3.130   6.552  16.809  0.3191 -0.6421  0.2725
 8459TIP3   OH246791   5.779   2.070   4.408 -0.4704  0.2178 -0.6124
 8459TIP3    H146792   5.843   2.018   4.458  0.4207 -0.8666 -2.8052
 8459TIP3    H246793   5.734   2.006   4.354 -2.2686  1.2276 -0.3379
 8460TIP3   OH246794   0.662   3.924  11.829  0.0187 -0.2878 -0.3826
 8460TIP3    H146795   0.697   4.013  11.830  0.6916 -0.5576  0.7105
 8460TIP3    H246796   0.570   3.934  11.853  0.6386 -0.1054  2.0097
 8461TIP3   OH246797   6.324   5.604  13.246  0.2856 -0.7176 -0.3302
 8461TIP3    H146798   6.373   5.530  13.280  0.9751 -0.2751 -0.3609
 8461TIP3    H246799   6.336   5.673  13.311  0.6672 -0.2371 -0.9061
 8462TIP3   OH246800   0.040   6.073  12.487  0.5204  0.5442  0.0622
 8462TIP3    H146801   0.133   6.056  12.467  0.2319 -0.4843 -0.4449
 8462TIP3    H246802   0.034   6.064  12.582  0.5194 -1.6551 -0.1043
 8463TIP3   OH246803   2.864   1.868  11.586  0.3398 -0.0979 -0.2369
 8463TIP3    H146804   2.831   1.875  11.676  1.1714 -1.1788  0.1608
 8463TIP3    H246805   2.851   1.955  11.549  1.9953  0.9943  1.6437
 8464TIP3   OH246806   3.145   4.071  13.847 -0.1161  0.0630  0.0719
 8464TIP3    H146807   3.093   4.011  13.900 -0.1018 -0.7016 -0.7700
 8464TIP3    H246808   3.101   4.073  13.762 -0.7663  2.1166  0.4246
 8465TIP3   OH246809   2.116   4.751   3.720  0.5383 -0.3575  0.1625
 8465TIP3    H146810   2.114   4.718   3.630 -0.5459 -1.6290  0.6405
 8465TIP3    H246811   2.024   4.760   3.745  0.8287 -0.6591  1.3758
 8466TIP3   OH246812   6.660   3.938   2.473 -0.0330 -0.4746 -0.0656
 8466TIP3    H146813   6.734   3.882   2.450  1.3954  0.8583  1.1896
 8466TIP3    H246814   6.613   3.951   2.390 -0.0560 -3.0078 -0.4793
 8467TIP3   OH246815   3.182   5.990   0.496  0.1234  0.6481  0.0210
 8467TIP3    H146816   3.102   5.980   0.547 -0.0197  0.3510 -0.2596
 8467TIP3    H246817   3.241   6.038   0.554  0.3141 -0.5591  0.8613
 8468TIP3   OH246818   0.768   3.491  11.981  0.4947 -0.3093  0.3535
 8468TIP3    H146819   0.829   3.478  12.053  1.2252  0.7717 -0.0453
 8468TIP3    H246820   0.823   3.521  11.909 -0.3239 -0.7126 -0.4378
 8469TIP3   OH246821   3.285   4.156  12.236 -0.5796 -0.0486  0.5697
 8469TIP3    H146822   3.308   4.223  12.301 -1.2401  0.6950  0.0436
 8469TIP3    H246823   3.237   4.090  12.287  1.6311 -1.0311  1.4395
 8470TIP3   OH246824   4.921   2.418   5.238 -0.6591  0.2590  0.3745
 8470TIP3    H146825   5.005   2.375   5.251 -0.4853  0.2113 -0.8268
 8470TIP3    H246826   4.864   2.382   5.307  0.2543  0.1752  1.0834
 8471TIP3   OH246827   2.479   1.203  15.313  0.7716 -0.3627 -0.2848
 8471TIP3    H146828   2.442   1.271  15.370 -0.3684 -0.2102 -1.1794
 8471TIP3    H246829   2.417   1.131  15.320  0.6755 -0.3761 -1.2550
 8472TIP3   OH246830   2.035   2.492  17.068 -0.0917  0.3318 -0.6666
 8472TIP3    H146831   2.005   2.502  17.159  0.2563 -1.8078 -0.2987
 8472TIP3    H246832   2.066   2.402  17.063 -3.2736 -0.7017 -3.8535
 8473TIP3   OH246833   2.820   2.754  14.427  0.0792  0.9331  0.1434
 8473TIP3    H146834   2.894   2.757  14.488  2.4628  0.9405 -2.6601
 8473TIP3    H246835   2.775   2.672  14.448  0.8024  0.9671  1.9315
 8474TIP3   OH246836   2.406   3.112  11.259 -0.0268 -0.1034 -0.0581
 8474TIP3    H146837   2.328   3.060  11.278  0.1615 -0.4461 -0.2135
 8474TIP3    H246838   2.386   3.200  11.292 -0.5818 -0.1207 -0.3563
 8475TIP3   OH246839   2.777   5.544  11.742  0.4657 -0.0846  0.4481
 8475TIP3    H146840   2.842   5.477  11.763  0.4050 -0.4942 -0.6221
 8475TIP3    H246841   2.827   5.614  11.701  0.4854  0.4037  1.2935
 8476TIP3   OH246842   5.347   2.196   4.809  0.0107  0.1756 -0.3756
 8476TIP3    H146843   5.358   2.279   4.763  0.6743  1.1889  1.5277
 8476TIP3    H246844   5.426   2.146   4.788  0.4392  0.7427 -0.1244
 8477TIP3   OH246845   2.523   6.714   0.154 -0.2647 -0.3471  0.5578
 8477TIP3    H146846   2.515   6.717   0.249  1.9053 -0.8814  0.7945
 8477TIP3    H246847   2.504   6.623   0.130 -1.2341 -0.1128  0.4332
 8478TIP3   OH246848   6.632   1.839  16.029  0.2444  0.5292  0.0215
 8478TIP3    H146849   6.713   1.836  15.979 -0.1506 -1.9186 -0.5612
 8478TIP3    H246850   6.570   1.886  15.973  0.9434  1.4108 -0.0134
 8479TIP3   OH246851   5.876   5.786  15.187 -0.2394  0.0462 -0.4518
 8479TIP3    H146852   5.803   5.724  15.190 -1.7679  1.8472  0.6515
 8479TIP3    H246853   5.882   5.810  15.094 -1.7788  0.6953 -0.4040
 8480TIP3   OH246854   1.050   1.959   4.143 -0.5695 -0.0350 -0.0064
 8480TIP3    H146855   1.052   2.042   4.095 -1.3600 -0.0133 -0.0163
 8480TIP3    H246856   0.975   1.968   4.203 -0.1436 -0.4136  0.5829
 8481TIP3   OH246857   2.466   5.528  13.577 -0.2664 -0.0724 -0.2631
 8481TIP3    H146858   2.440   5.546  13.667 -0.3703  0.0275 -0.3122
 8481TIP3    H246859   2.414   5.451  13.552  0.1594 -0.4296 -0.0596
 8482TIP3   OH246860   4.128   5.883  15.645  0.9254  0.5420  0.6829
 8482TIP3    H146861   4.084   5.877  15.729 -0.0227 -2.2060  0.0717
 8482TIP3    H246862   4.205   5.827  15.654  1.3674  1.0374  0.0509
 8483TIP3   OH246863   4.567   1.935  12.872 -0.1056 -0.5494  0.1363
 8483TIP3    H146864   4.488   1.899  12.831 -0.0097 -0.9068  0.2619
 8483TIP3    H246865   4.620   1.858  12.892  0.6697 -0.2534 -0.7616
 8484TIP3   OH246866   6.588   3.777   5.527  0.3100 -0.2097  0.1078
 8484TIP3    H146867   6.493   3.774   5.521  0.2848  0.2326  0.2541
 8484TIP3    H246868   6.619   3.753   5.440  0.0500  0.4457 -0.1667
 8485TIP3   OH246869   2.476   6.687  16.145  0.2006 -0.1137 -0.4622
 8485TIP3    H146870   2.446   6.640  16.068 -2.0447  1.6167 -0.6809
 8485TIP3    H246871   2.406   6.674  16.210  1.5260 -0.5907  0.9166
 8486TIP3   OH246872   3.186   4.615   4.932 -0.2484  0.4842  0.4782
 8486TIP3    H146873   3.135   4.669   4.993 -2.1964  0.1811 -0.8217
 8486TIP3    H246874   3.164   4.650   4.846 -0.4138 -1.4394 -0.2839
 8487TIP3   OH246875   2.705   4.551  11.414  0.1396 -0.5202  0.0700
 8487TIP3    H146876   2.720   4.592  11.329  0.7073  0.7932  0.7888
 8487TIP3    H246877   2.752   4.468  11.411  2.5032  0.7951  0.1145
 8488TIP3   OH246878   2.394   0.285  12.804 -0.6508  0.5286 -0.5106
 8488TIP3    H146879   2.428   0.329  12.726 -0.1022  3.3741  1.2688
 8488TIP3    H246880   2.448   0.318  12.876 -1.8273 -1.2387  1.2283
 8489TIP3   OH246881   3.071   5.990   4.738  0.2242  0.5778  0.0823
 8489TIP3    H146882   3.156   5.963   4.773 -0.5522  0.6726  2.0893
 8489TIP3    H246883   3.017   5.911   4.741 -0.6052  1.1902  1.4637
 8490TIP3   OH246884   4.893   5.062  15.156  0.1051 -0.1688 -0.3273
 8490TIP3    H146885   4.814   5.092  15.112  0.0089 -0.6823 -0.5079
 8490TIP3    H246886   4.882   4.967  15.165  0.1705 -0.0812  0.7209
 8491TIP3   OH246887   3.283   3.590   2.653 -0.1592 -0.4091 -0.0113
 8491TIP3    H146888   3.336   3.560   2.579 -0.4893 -0.5106 -0.2066
 8491TIP3    H246889   3.336   3.570   2.730  0.2393 -0.1831 -0.2286
 8492TIP3   OH246890   2.285   2.627   0.976 -0.1876 -0.2199  0.1394
 8492TIP3    H146891   2.190   2.642   0.966 -0.0887 -0.0192 -0.5568
 8492TIP3    H246892   2.292   2.552   1.035 -0.7613  0.5194  1.1759
 8493TIP3   OH246893   1.132   5.415   3.291  0.7070  0.0684 -0.4157
 8493TIP3    H146894   1.111   5.504   3.262 -0.9609  0.0475  0.6683
 8493TIP3    H246895   1.095   5.358   3.224  0.5522  0.1367 -0.3862
 8494TIP3   OH246896   5.401   3.700   1.556  0.5675  0.4480  0.5637
 8494TIP3    H146897   5.377   3.792   1.568 -1.8776 -0.0004 -0.6409
 8494TIP3    H246898   5.392   3.685   1.462 -0.1024 -1.2879  0.8964
 8495TIP3   OH246899   4.977   2.289   4.404 -0.1919  0.3055  0.1133
 8495TIP3    H146900   4.911   2.295   4.335 -2.4333  0.8510  2.2828
 8495TIP3    H246901   4.960   2.205   4.446  0.8673  0.1957  0.3299
 8496TIP3   OH246902   5.252   5.668   4.469 -0.0712 -0.5692  0.0418
 8496TIP3    H146903   5.335   5.622   4.486 -0.3794 -0.8069  0.9105
 8496TIP3    H246904   5.277   5.740   4.411  0.8964 -0.0775  1.0621
 8497TIP3   OH246905   6.723   2.739  12.667  0.1271  0.3606  0.3077
 8497TIP3    H146906   6.797   2.746  12.607 -1.0068 -0.4810 -1.2134
 8497TIP3    H246907   6.684   2.826  12.667  0.0621  0.3332 -0.2764
 8498TIP3   OH246908   1.073   0.216   0.939  0.2231 -0.3530  0.0943
 8498TIP3    H146909   1.062   0.292   0.996  0.6092 -0.7881  0.7563
 8498TIP3    H246910   1.002   0.224   0.875 -0.8396 -0.3876  1.2440
 8499TIP3   OH246911   2.667   2.353  13.232  0.0914  0.9256 -0.5925
 8499TIP3    H146912   2.575   2.365  13.209 -0.0264  0.9869 -0.0819
 8499TIP3    H246913   2.677   2.395  13.317  0.3204 -0.1456 -0.0892
 8500TIP3   OH246914   6.688   3.659  10.839  0.0169  0.2705  0.1202
 8500TIP3    H146915   6.650   3.659  10.751  0.9833 -0.1187 -0.3011
 8500TIP3    H246916   6.782   3.666  10.824  0.1238  1.0894  1.1518
 8501TIP3   OH246917   6.786   3.320   0.525  0.2973  0.3257  0.3674
 8501TIP3    H146918   6.876   3.339   0.551  0.3851 -0.6566  0.8267
 8501TIP3    H246919   6.795   3.267   0.445  0.1065  0.8329  0.0089
 8502TIP3   OH246920   3.742   2.120  12.430 -0.5274 -0.1387 -0.3269
 8502TIP3    H146921   3.696   2.049  12.475  0.6583 -0.0336  1.0543
 8502TIP3    H246922   3.736   2.096  12.337 -2.2548 -0.7748 -0.0750
 8503TIP3   OH246923   2.402   4.292  15.345  0.4033 -0.6779 -0.5844
 8503TIP3    H146924   2.349   4.340  15.281  0.5536  0.8897  0.4509
 8503TIP3    H246925   2.492   4.311  15.319  0.4631 -0.8819 -0.5224
 8504TIP3   OH246926   5.096   6.271   2.602  0.4218 -0.0172  0.0372
 8504TIP3    H146927   5.094   6.201   2.667  1.4552 -1.5167 -1.4754
 8504TIP3    H246928   5.189   6.296   2.597  0.2874  0.3898 -0.5156
 8505TIP3   OH246929   5.828   3.550   3.674 -0.0147 -0.2610 -0.0563
 8505TIP3    H146930   5.762   3.557   3.744 -0.0611 -2.1765  0.1044
 8505TIP3    H246931   5.781   3.509   3.601  0.6424 -0.3672 -0.4190
 8506TIP3   OH246932   1.780   4.849   2.730  0.1573  0.0970 -0.8943
 8506TIP3    H146933   1.773   4.944   2.743 -0.2669 -0.0301 -0.1096
 8506TIP3    H246934   1.775   4.813   2.819  0.0659 -0.6743 -1.2085
 8507TIP3   OH246935   0.011   6.119  13.909  0.6593 -0.1825  0.0339
 8507TIP3    H146936  -0.049   6.193  13.910 -0.1415 -0.8216 -0.1446
 8507TIP3    H246937  -0.044   6.043  13.889  1.8439 -0.5101 -2.1053
 8508TIP3   OH246938   5.538   1.737  15.493  0.3246  0.0096 -0.2042
 8508TIP3    H146939   5.525   1.657  15.544 -0.4928 -0.9861 -1.9403
 8508TIP3    H246940   5.526   1.710  15.402 -1.0447  2.3370 -0.7513
 8509TIP3   OH246941   1.113   0.491  14.208 -0.2322  0.0818  0.0302
 8509TIP3    H146942   1.087   0.412  14.256  0.4590  0.0649  0.3896
 8509TIP3    H246943   1.208   0.491  14.212 -0.1973  0.4247 -0.8080
 8510TIP3   OH246944   1.672   1.951  16.124  0.1782 -0.0394 -0.0687
 8510TIP3    H146945   1.625   1.908  16.196  0.3900 -2.9672 -1.5781
 8510TIP3    H246946   1.610   2.015  16.090 -1.0934 -0.8112  0.7300
 8511TIP3   OH246947   2.838   0.426  13.758 -0.4436 -0.6064 -0.0370
 8511TIP3    H146948   2.907   0.487  13.733 -0.8844 -1.0731 -2.4338
 8511TIP3    H246949   2.875   0.339  13.743 -0.8746 -0.9000  0.5494
 8512TIP3   OH246950   5.035   6.554   1.296  0.4127 -0.5248  0.7479
 8512TIP3    H146951   4.996   6.547   1.208 -1.0590 -2.7989  1.5235
 8512TIP3    H246952   5.027   6.647   1.318  1.1772  0.1697 -1.6741
 8513TIP3   OH246953   1.836   6.068   0.279  0.8044 -0.5359  0.1236
 8513TIP3    H146954   1.930   6.050   0.270  0.3808 -2.1485 -1.4609
 8513TIP3    H246955   1.803   5.993   0.329  0.3550  0.0552  0.7219
 8514TIP3   OH246956   2.891   4.834  15.320  0.3738  0.2991 -0.2398
 8514TIP3    H146957   2.882   4.883  15.401  0.0931  0.4936 -0.3881
 8514TIP3    H246958   2.836   4.881  15.257 -0.6498 -0.7432 -0.1389
 8515TIP3   OH246959   2.142   4.566  15.448  0.1670 -0.2158  0.0747
 8515TIP3    H146960   2.148   4.505  15.375  0.7058 -1.6574  1.2938
 8515TIP3    H246961   2.048   4.581  15.458 -0.0593 -1.7950  0.5045
 8516TIP3   OH246962   6.096   0.341   5.126  0.4084  0.3361 -0.4705
 8516TIP3    H146963   6.011   0.385   5.128  0.6453  0.7754  1.7789
 8516TIP3    H246964   6.158   0.408   5.156  0.9936 -1.0158  1.4412
 8517TIP3   OH246965   1.408   1.358  17.027 -0.3478 -0.2947 -0.0275
 8517TIP3    H146966   1.404   1.291  16.959 -0.2117 -1.1501  0.7896
 8517TIP3    H246967   1.317   1.387  17.038 -0.7212 -1.7774  0.9901
 8518TIP3   OH246968   5.089   5.742   3.247 -0.2031  0.0510 -0.9575
 8518TIP3    H146969   5.013   5.686   3.232 -0.5996  0.4771 -0.5318
 8518TIP3    H246970   5.077   5.816   3.187 -0.0512  0.0534 -0.9876
 8519TIP3   OH246971   3.350   1.445  17.076 -0.2347  0.4463  0.4487
 8519TIP3    H146972   3.260   1.440  17.042 -0.3790 -1.6506  1.0263
 8519TIP3    H246973   3.394   1.368  17.038  1.1173  1.0700  0.7238
 8520TIP3   OH246974   0.445   2.400  12.692 -0.3389  0.0337 -0.3915
 8520TIP3    H146975   0.512   2.388  12.759 -0.1352  1.7277 -0.2741
 8520TIP3    H246976   0.383   2.461  12.731 -1.3332 -0.6155 -0.9545
 8521TIP3   OH246977   2.739   6.414  13.698 -0.1450 -0.5338 -0.1118
 8521TIP3    H146978   2.690   6.332  13.695  0.0519 -0.6248 -0.8829
 8521TIP3    H246979   2.776   6.424  13.610  0.0076  0.2730  0.0356
 8522TIP3   OH246980   2.841   6.194  13.999  0.2553 -0.0972 -0.1959
 8522TIP3    H146981   2.874   6.282  14.018  0.4647  0.0189 -1.0710
 8522TIP3    H246982   2.766   6.208  13.942  0.7193 -0.5069 -0.9215
 8523TIP3   OH246983   3.344   1.766   0.945  0.4989 -0.2764  0.6276
 8523TIP3    H146984   3.317   1.843   0.995 -0.4986 -0.1475 -0.0969
 8523TIP3    H246985   3.262   1.728   0.914  1.0466 -1.0233  0.0890
 8524TIP3   OH246986   5.418   3.357   5.463  0.1771 -0.3580 -0.4991
 8524TIP3    H146987   5.508   3.386   5.479 -0.1563  0.3852  0.0808
 8524TIP3    H246988   5.363   3.423   5.506 -0.6810 -0.0251 -2.0641
 8525TIP3   OH246989   2.905   0.127  17.016 -0.0011  0.3949  0.1056
 8525TIP3    H146990   2.896   0.206  17.068 -0.7976 -0.9441  2.0447
 8525TIP3    H246991   2.815   0.100  16.997  0.2637 -0.1204 -0.4635
 8526TIP3   OH246992   5.643   3.774   4.828 -0.1508  0.3370 -0.3079
 8526TIP3    H146993   5.615   3.684   4.839 -0.8283  0.4010 -1.5484
 8526TIP3    H246994   5.681   3.797   4.913 -0.5211 -0.9099  0.2039
 8527TIP3   OH246995   1.373   2.657  17.033 -0.3301 -0.4404 -0.0984
 8527TIP3    H146996   1.466   2.636  17.041 -0.3920 -0.2573  1.1509
 8527TIP3    H246997   1.353   2.708  17.111 -1.9603 -2.2178  0.6634
 8528TIP3   OH246998   3.378   5.660   1.139 -0.2804  0.2318 -0.1821
 8528TIP3    H146999   3.445   5.708   1.090  0.2493 -1.2897 -1.0145
 8528TIP3    H247000   3.419   5.575   1.157 -1.7586 -0.4883 -0.1497
 8529TIP3   OH247001   3.397   6.530  14.222  0.1231 -0.1859 -0.3739
 8529TIP3    H147002   3.426   6.493  14.306  1.0664 -1.9425 -1.4505
 8529TIP3    H247003   3.478   6.551  14.176 -0.3974  2.1641 -0.2852
 8530TIP3   OH247004   0.509   0.791   5.314  0.0742  0.3457  0.0565
 8530TIP3    H147005   0.416   0.787   5.337  0.1958  0.9178  0.6695
 8530TIP3    H247006   0.517   0.737   5.235 -0.8953  0.8590 -0.3954
 8531TIP3   OH247007   0.764   0.764   6.189 -0.2886  0.3634  0.1965
 8531TIP3    H147008   0.789   0.721   6.271 -0.4846 -0.0380  0.0509
 8531TIP3    H247009   0.832   0.739   6.128 -0.1769  0.6099  0.2221
 8532TIP3   OH247010   2.889   2.422  12.605 -0.2741  0.6202  0.2400
 8532TIP3    H147011   2.879   2.356  12.537  0.7789 -1.0569  1.6578
 8532TIP3    H247012   2.969   2.469  12.581 -2.0357  2.6767 -1.7913
 8533TIP3   OH247013   2.857   2.655   2.328 -0.0948  0.3053  0.1030
 8533TIP3    H147014   2.922   2.712   2.287  0.9896 -1.1149 -0.1810
 8533TIP3    H247015   2.874   2.569   2.291  0.2938 -0.8391  2.8350
 8534TIP3   OH247016   2.050   2.199   1.634 -0.1385  0.0314  0.1429
 8534TIP3    H147017   1.970   2.226   1.588 -0.0342 -0.3529 -0.2620
 8534TIP3    H247018   2.041   2.104   1.644 -0.1427  0.1083  0.8822
 8535TIP3   OH247019   3.829   0.422  14.014  0.4569 -0.2101  0.4402
 8535TIP3    H147020   3.767   0.376  14.069  1.8743  1.2575  3.3778
 8535TIP3    H247021   3.884   0.353  13.977 -1.1262 -1.2886  0.0346
 8536TIP3   OH247022   3.481   4.874  13.019  0.1426  0.1282  0.1902
 8536TIP3    H147023   3.392   4.839  13.029  0.7327 -0.8569  2.1512
 8536TIP3    H247024   3.516   4.827  12.943 -0.4188 -0.6983  0.4381
 8537TIP3   OH247025   4.250   6.681   2.008  0.1365 -0.0994 -0.5567
 8537TIP3    H147026   4.297   6.723   1.936  1.2909 -0.8194 -0.2402
 8537TIP3    H247027   4.164   6.659   1.972  0.1851  0.8599 -1.2662
 8538TIP3   OH247028   1.595   6.745  15.466  0.5718  0.3082  0.9280
 8538TIP3    H147029   1.526   6.696  15.511 -0.3924  1.0978  0.3330
 8538TIP3    H247030   1.657   6.678  15.437  0.3794 -0.3558  2.0121
 8539TIP3   OH247031   3.552   5.470   1.224 -0.1044 -0.4443 -0.1005
 8539TIP3    H147032   3.584   5.524   1.296 -2.5242 -0.8338  1.3272
 8539TIP3    H247033   3.604   5.497   1.149  2.5757 -0.1161  1.7930
 8540TIP3   OH247034   3.014   0.939  14.030 -0.5667 -0.0758  0.0661
 8540TIP3    H147035   2.938   0.972  14.079 -1.5328  0.0428 -1.4931
 8540TIP3    H247036   3.070   1.015  14.018 -0.9972  0.2019 -0.2205
 8541TIP3   OH247037   6.571   3.081   2.980  0.3369  0.8019  0.3039
 8541TIP3    H147038   6.488   3.032   2.976  0.9661 -0.2726 -0.0028
 8541TIP3    H247039   6.559   3.153   2.917  0.0312  0.0112 -0.5645
 8542TIP3   OH247040   5.273   4.028  16.380 -0.1385  0.5993 -0.2824
 8542TIP3    H147041   5.207   4.081  16.336 -1.5879 -0.7111  0.2463
 8542TIP3    H247042   5.315   4.088  16.442 -2.0340  1.0607  0.5973
 8543TIP3   OH247043   1.115   0.173  11.325  0.1792 -0.2401 -0.0162
 8543TIP3    H147044   1.196   0.137  11.362 -1.2120 -2.4604  0.9986
 8543TIP3    H247045   1.131   0.178  11.231  1.3168 -1.1849  0.1153
 8544TIP3   OH247046   1.911   0.359   4.175  0.3562  0.1318  0.3937
 8544TIP3    H147047   1.881   0.293   4.113  0.9412 -0.3125  0.5756
 8544TIP3    H247048   1.985   0.317   4.220  2.6475  1.9195 -1.5282
 8545TIP3   OH247049   2.516   5.852   6.640  0.3235  0.7401 -0.1689
 8545TIP3    H147050   2.513   5.800   6.560 -0.7814  0.7792 -0.1604
 8545TIP3    H247051   2.531   5.942   6.609 -2.0443  1.0528 -0.4799
 8546TIP3   OH247052   5.454   5.880  11.679 -0.1563 -0.5417  0.1844
 8546TIP3    H147053   5.431   5.908  11.768 -0.8895  0.0493 -0.1793
 8546TIP3    H247054   5.390   5.811  11.659 -0.9282  0.3277 -0.4135
 8547TIP3   OH247055   4.021   4.639  14.377 -0.1157 -0.1473 -0.4096
 8547TIP3    H147056   3.988   4.664  14.463  1.3284  1.1449 -0.2212
 8547TIP3    H247057   3.999   4.546  14.369  0.0379 -0.3649  1.4933
 8548TIP3   OH247058   5.304   6.401   5.178 -0.4630 -0.0635 -0.4248
 8548TIP3    H147059   5.241   6.389   5.250  1.3902  0.5564  1.3299
 8548TIP3    H247060   5.377   6.449   5.217  0.7690 -0.0793 -2.6308
 8549TIP3   OH247061   3.145   0.456   3.001  0.0744 -0.4440  0.1027
 8549TIP3    H147062   3.132   0.551   2.999 -2.7421 -0.8075  0.2979
 8549TIP3    H247063   3.161   0.432   2.910 -0.0708  0.0880 -0.0655
 8550TIP3   OH247064   2.189   0.676  10.635 -0.6937 -0.6614 -0.0498
 8550TIP3    H147065   2.094   0.672  10.634 -0.6762 -1.1697  0.2712
 8550TIP3    H247066   2.217   0.605  10.577 -0.5154 -0.2358 -0.4926
 8551TIP3   OH247067   6.013   4.041   4.483  0.0865  0.0101  0.1698
 8551TIP3    H147068   5.987   3.973   4.546 -1.0693  2.4082  2.3613
 8551TIP3    H247069   5.931   4.065   4.440  0.4270  0.3000 -0.3176
 8552TIP3   OH247070   0.199   2.344  11.759 -0.0350  0.2203  0.4627
 8552TIP3    H147071   0.131   2.279  11.742  0.1363  0.2991 -0.5517
 8552TIP3    H247072   0.156   2.412  11.809 -1.0418  0.9072 -1.2920
 8553TIP3   OH247073   2.237   0.709  16.789 -0.2993 -0.0846  0.5354
 8553TIP3    H147074   2.285   0.698  16.707 -2.6429  1.3283 -1.0875
 8553TIP3    H247075   2.188   0.790  16.777 -2.4836 -1.0845  2.4273
 8554TIP3   OH247076   0.472   0.624   4.782  0.3739  0.3339 -0.5876
 8554TIP3    H147077   0.525   0.676   4.842  0.3308  1.1340 -1.2342
 8554TIP3    H247078   0.527   0.611   4.705 -0.2334  0.8892 -1.1285
 8555TIP3   OH247079   4.487   5.652   0.787  0.3351  0.4509 -0.0284
 8555TIP3    H147080   4.492   5.712   0.714  0.9640 -1.0073 -1.2068
 8555TIP3    H247081   4.569   5.603   0.784  1.7491  2.4032  3.4694
 8556TIP3   OH247082   5.933   5.083  14.877  0.7453 -0.1396  0.6969
 8556TIP3    H147083   5.980   5.161  14.848  2.2562 -1.4485 -0.4439
 8556TIP3    H247084   6.001   5.017  14.889 -0.7998 -2.1536 -1.2489
 8557TIP3   OH247085   2.997   1.807  15.281 -0.3841  0.0796 -0.1810
 8557TIP3    H147086   2.923   1.840  15.230  0.4338  0.6248 -1.0104
 8557TIP3    H247087   3.060   1.778  15.216 -0.0954 -0.9030  0.5329
 8558TIP3   OH247088   2.985   3.932   5.451  0.3731 -1.0097  0.7747
 8558TIP3    H147089   3.076   3.964   5.443  0.5277 -1.2794  1.4512
 8558TIP3    H247090   2.941   4.000   5.501 -0.0023 -0.4945 -0.2297
 8559TIP3   OH247091   3.347   6.276  12.379 -0.1739  0.6550  0.0662
 8559TIP3    H147092   3.266   6.315  12.348 -1.2737 -0.9387  0.8367
 8559TIP3    H247093   3.336   6.182  12.362  1.2756  0.3567  0.7024
 8560TIP3   OH247094   5.363   6.110  16.439 -0.2212 -0.6989  0.2444
 8560TIP3    H147095   5.420   6.034  16.448 -0.8480 -0.9553  2.2798
 8560TIP3    H247096   5.275   6.075  16.452 -0.6462  0.1300 -0.3534
 8561TIP3   OH247097   0.082   6.617  14.082  0.8360  0.1124  0.8050
 8561TIP3    H147098   0.116   6.534  14.048  0.7250  0.2431  0.3763
 8561TIP3    H247099   0.139   6.637  14.156  1.3293  0.0319  0.4493
 8562TIP3   OH247100   5.348   5.926   4.739  0.0668 -0.2299  0.2064
 8562TIP3    H147101   5.266   5.887   4.710  0.6696 -1.3633 -0.0228
 8562TIP3    H247102   5.407   5.914   4.664 -0.0600  2.2139 -0.3429
 8563TIP3   OH247103   5.787   0.879   3.479  0.7429  0.1757 -0.0077
 8563TIP3    H147104   5.797   0.912   3.390 -0.0903  2.2262  0.6245
 8563TIP3    H247105   5.730   0.802   3.470 -1.5342  1.9068 -0.9805
 8564TIP3   OH247106   2.567   5.773  16.890 -0.1085  0.0083 -0.8461
 8564TIP3    H147107   2.653   5.754  16.926 -0.8490 -0.1645  0.8825
 8564TIP3    H247108   2.564   5.727  16.806  1.6242  0.3596 -1.1069
 8565TIP3   OH247109   0.098   0.475   1.999  0.3506 -0.2225  0.8159
 8565TIP3    H147110   0.177   0.422   1.988  1.8717  2.0399  0.6260
 8565TIP3    H247111   0.118   0.558   1.957 -2.9298 -0.3268 -1.1254
 8566TIP3   OH247112   0.923   6.620  12.152  0.8597 -0.0127  0.1173
 8566TIP3    H147113   0.849   6.654  12.202  0.8879 -0.3288  0.3754
 8566TIP3    H247114   0.966   6.698  12.117  0.0526  0.1423 -0.5449
 8567TIP3   OH247115   5.063   4.699   6.277  0.1890 -0.0283 -0.0726
 8567TIP3    H147116   5.013   4.780   6.273 -0.1493 -0.2365 -0.0900
 8567TIP3    H247117   4.996   4.630   6.283  0.4736 -0.3026 -0.0433
 8568TIP3   OH247118   1.381   5.846   5.302  0.3277 -0.3556 -0.5669
 8568TIP3    H147119   1.344   5.931   5.325 -0.1438 -0.9385  0.9174
 8568TIP3    H247120   1.452   5.866   5.241  0.1272  1.0859 -0.3414
 8569TIP3   OH247121   5.146   2.151   0.953 -0.2751 -0.0313  0.0897
 8569TIP3    H147122   5.102   2.175   1.035  1.6518 -0.4183  1.2678
 8569TIP3    H247123   5.237   2.178   0.966 -0.4035  1.9239 -2.8020
 8570TIP3   OH247124   3.262   2.156  13.276 -0.2566  0.3910  0.1934
 8570TIP3    H147125   3.205   2.110  13.214  2.0787 -0.8422 -1.1217
 8570TIP3    H247126   3.280   2.239  13.233 -1.6857  1.1352  0.9910
 8571TIP3   OH247127   2.875   0.656  11.434 -0.5020 -0.5303  0.2453
 8571TIP3    H147128   2.811   0.695  11.493 -0.3443 -1.8677  1.3217
 8571TIP3    H247129   2.926   0.730  11.401 -1.2851  0.3332  0.9589
 8572TIP3   OH247130   4.733   5.051   5.583  0.0663  0.3748  0.0638
 8572TIP3    H147131   4.811   5.084   5.537  1.3405 -0.9926  1.1668
 8572TIP3    H247132   4.768   5.011   5.663 -1.9541  1.2009  1.3811
 8573TIP3   OH247133   6.302   6.687   5.636  0.2636 -0.4113 -0.1985
 8573TIP3    H147134   6.378   6.726   5.679 -0.0746 -0.4914  0.4839
 8573TIP3    H247135   6.325   6.595   5.625  0.5779 -0.2717 -0.7030
 8574TIP3   OH247136   1.113   2.363  11.182 -0.0622  0.0274 -0.7288
 8574TIP3    H147137   1.179   2.294  11.186  0.7653  0.8063 -0.5412
 8574TIP3    H247138   1.106   2.384  11.089  0.3471  0.3017 -0.7016
 8575TIP3   OH247139   3.876   2.396   3.121 -0.7710  0.0194 -0.4353
 8575TIP3    H147140   3.801   2.338   3.110  0.0058 -0.8940 -0.9499
 8575TIP3    H247141   3.878   2.448   3.041 -0.9045  0.1041 -0.3843
 8576TIP3   OH247142   0.852   6.683  16.367  0.2085 -0.3660 -0.7845
 8576TIP3    H147143   0.760   6.706  16.357  0.5702  0.4930 -2.1720
 8576TIP3    H247144   0.883   6.736  16.440 -0.4511 -0.8289 -0.1662
 8577TIP3   OH247145   6.626   6.597  11.465  0.2092 -0.0046  0.1089
 8577TIP3    H147146   6.625   6.602  11.560  0.8575 -0.4884  0.1456
 8577TIP3    H247147   6.553   6.539  11.442 -0.0648  0.2651  0.2947
 8578TIP3   OH247148   6.714   4.605  10.818 -0.2495 -0.3647 -0.1294
 8578TIP3    H147149   6.767   4.661  10.876 -0.2965  0.0878 -0.5240
 8578TIP3    H247150   6.776   4.540  10.786 -0.1164 -0.3353  0.0619
 8579TIP3   OH247151   0.555   5.126  12.693  0.5640 -0.0791  0.1512
 8579TIP3    H147152   0.637   5.175  12.693  1.2899 -1.2614 -0.8556
 8579TIP3    H247153   0.527   5.126  12.602 -0.8446  0.7729  0.5724
 8580TIP3   OH247154   1.787   5.962   2.378 -0.0063 -0.0428  0.3334
 8580TIP3    H147155   1.794   5.871   2.352 -0.1719 -0.3527  1.3762
 8580TIP3    H247156   1.693   5.977   2.390 -0.0100  0.3577 -0.1542
 8581TIP3   OH247157   1.498   6.584  15.138  1.0829  0.2895  0.4396
 8581TIP3    H147158   1.525   6.568  15.047 -0.7001 -0.9062  0.0845
 8581TIP3    H247159   1.429   6.651  15.130  1.5802  0.8766  1.0109
 8582TIP3   OH247160   6.054   0.634  12.374 -0.5412 -0.1539  0.0269
 8582TIP3    H147161   5.975   0.615  12.426  0.5316  0.0785  1.7615
 8582TIP3    H247162   6.102   0.698  12.426  1.0876 -0.7463 -0.7321
 8583TIP3   OH247163   1.599   5.383   1.026  0.1451  0.3442  0.1318
 8583TIP3    H147164   1.555   5.298   1.025 -2.2914  1.5749 -0.2158
 8583TIP3    H247165   1.604   5.409   0.934 -0.8072  1.4063  0.3693
 8584TIP3   OH247166   0.182   0.613   5.791 -0.6729  1.4096 -0.3510
 8584TIP3    H147167   0.257   0.660   5.754 -0.8747  2.1203  0.1255
 8584TIP3    H247168   0.160   0.663   5.870 -0.2927 -0.0448  0.6893
 8585TIP3   OH247169   4.627   3.725   5.425 -0.1016  0.4928 -0.2252
 8585TIP3    H147170   4.638   3.690   5.337  1.8212 -0.1097  0.2225
 8585TIP3    H247171   4.697   3.790   5.434  1.1006 -0.9742  1.5842
 8586TIP3   OH247172   3.069   6.203  10.366 -0.2138 -0.5137 -0.4354
 8586TIP3    H147173   3.009   6.276  10.377  0.3097 -0.0152 -0.8375
 8586TIP3    H247174   3.065   6.156  10.449 -0.0546  0.3570  0.0716
 8587TIP3   OH247175   5.780   3.188   0.128  0.3654 -0.0812 -0.6072
 8587TIP3    H147176   5.834   3.218   0.201 -0.4861 -0.0886  0.0432
 8587TIP3    H247177   5.748   3.269   0.088  0.5085 -0.0792 -0.7147
 8588TIP3   OH247178   1.607   0.455  13.471  0.1177 -0.4875  0.0672
 8588TIP3    H147179   1.639   0.470  13.560  2.8242  0.6565 -1.0351
 8588TIP3    H247180   1.581   0.363  13.470 -0.7554 -0.2963  2.2657
 8589TIP3   OH247181   3.040   0.456   4.224 -0.0303 -0.3889  0.2460
 8589TIP3    H147182   3.091   0.420   4.296  1.8313  1.4209 -0.1327
 8589TIP3    H247183   3.055   0.397   4.151  0.3844 -0.6341  0.5315
 8590TIP3   OH247184   6.522   5.121   3.040  0.1317 -0.3106  0.0520
 8590TIP3    H147185   6.442   5.172   3.051 -0.6846 -1.2112 -1.6118
 8590TIP3    H247186   6.494   5.030   3.043  1.0619 -0.6337 -0.6668
 8591TIP3   OH247187   6.409   4.776   5.712 -0.4211 -0.1274  0.1534
 8591TIP3    H147188   6.427   4.756   5.804  0.4011  2.9326  0.7125
 8591TIP3    H247189   6.318   4.750   5.699 -0.8404  0.2848  2.1108
 8592TIP3   OH247190   6.179   2.730  16.367 -0.2460  0.4945 -0.4754
 8592TIP3    H147191   6.118   2.659  16.387 -0.3637  0.5839 -0.5173
 8592TIP3    H247192   6.204   2.764  16.453  0.8530 -0.4713 -0.4030
 8593TIP3   OH247193   6.020   4.357   3.945  0.2617 -0.3151 -0.1399
 8593TIP3    H147194   6.102   4.308   3.939  1.8651  2.2215  0.3755
 8593TIP3    H247195   6.046   4.449   3.951 -2.6867  0.7224 -1.7683
 8594TIP3   OH247196   2.257   6.089   1.756  0.4132  0.1329 -0.0609
 8594TIP3    H147197   2.277   6.142   1.679  0.3667 -0.1805 -0.2896
 8594TIP3    H247198   2.162   6.079   1.754  0.1971  1.7063  1.0772
 8595TIP3   OH247199   6.128   5.308  14.823  0.3639  0.2598  0.2236
 8595TIP3    H147200   6.172   5.393  14.827  1.6401 -0.3099 -1.0837
 8595TIP3    H247201   6.122   5.288  14.729 -0.0532 -1.0303  0.5017
 8596TIP3   OH247202   5.098   6.460  17.077 -0.2871 -0.4400  0.7534
 8596TIP3    H147203   5.149   6.391  17.120  0.3339 -0.4444  0.0114
 8596TIP3    H247204   5.011   6.421  17.065 -0.0477 -0.9544  0.6811
 8597TIP3   OH247205   5.408   0.403   2.186  0.2329 -0.1178  0.1613
 8597TIP3    H147206   5.355   0.472   2.224  0.6556  0.4052 -0.1988
 8597TIP3    H247207   5.463   0.447   2.121 -1.2897 -1.1507 -1.8947
 8598TIP3   OH247208   2.855   4.899  13.513  0.1480  0.7427  0.2339
 8598TIP3    H147209   2.773   4.931  13.477 -1.5854 -1.0061  2.4760
 8598TIP3    H247210   2.832   4.816  13.555  2.8745  0.6381  1.6615
 8599TIP3   OH247211   3.725   6.314  14.942 -0.2054 -0.2453 -0.2880
 8599TIP3    H147212   3.818   6.320  14.964 -0.2181  1.2904 -0.6490
 8599TIP3    H247213   3.702   6.223  14.961  0.9627 -0.1992  1.4344
 8600TIP3   OH247214   2.637   2.956  13.093  0.2381  0.1010 -0.6339
 8600TIP3    H147215   2.664   3.039  13.132 -0.7882  0.0866  0.1397
 8600TIP3    H247216   2.708   2.932  13.034  0.9969  1.0253 -0.0974
 8601TIP3   OH247217   5.202   1.555  15.498  0.2710  0.6687  0.1583
 8601TIP3    H147218   5.106   1.556  15.505  0.0911 -3.0358 -0.4456
 8601TIP3    H247219   5.232   1.551  15.589 -0.3500 -1.8065  0.3082
 8602TIP3   OH247220   1.242   4.164   0.288 -0.2231  0.1280 -0.1882
 8602TIP3    H147221   1.316   4.220   0.307 -1.2344  1.2006  0.6658
 8602TIP3    H247222   1.203   4.201   0.209 -0.7437  0.5058  0.2362
 8603TIP3   OH247223   5.508   4.822  14.296 -0.3657  0.0291  0.0216
 8603TIP3    H147224   5.598   4.851  14.314 -0.6902  0.8854  0.2827
 8603TIP3    H247225   5.518   4.759  14.225  0.2582  1.6121 -1.3436
 8604TIP3   OH247226   4.479   0.452  16.123 -0.2118  0.8432 -0.2957
 8604TIP3    H147227   4.549   0.415  16.176 -0.1590  1.9908  0.4453
 8604TIP3    H247228   4.432   0.375  16.088  0.1885  0.0826  0.8096
 8605TIP3   OH247229   2.640   2.694   5.716 -0.6551 -0.4488 -0.5803
 8605TIP3    H147230   2.677   2.626   5.660 -0.7976 -2.4323  1.6630
 8605TIP3    H247231   2.706   2.708   5.783 -1.2840  0.5662 -0.1670
 8606TIP3   OH247232   2.083   5.974   3.536 -0.0334 -0.1946  0.0337
 8606TIP3    H147233   2.154   6.020   3.580 -0.6471 -0.3339  1.1960
 8606TIP3    H247234   2.006   6.029   3.551 -0.7062 -1.4311  1.1497
 8607TIP3   OH247235   1.987   0.385  11.491 -0.3732  0.5435 -0.4211
 8607TIP3    H147236   1.953   0.412  11.405  0.1066  3.5630  0.2656
 8607TIP3    H247237   2.082   0.396  11.484 -0.0644 -1.8563 -0.3431
 8608TIP3   OH247238   2.312   4.650   3.895 -0.3887 -0.4786  0.5836
 8608TIP3    H147239   2.270   4.573   3.933 -0.5380 -0.5320  0.3143
 8608TIP3    H247240   2.250   4.682   3.829  1.7649 -3.0696 -2.9000
 8609TIP3   OH247241   2.087   5.001  16.549  0.2264  0.4326 -0.1061
 8609TIP3    H147242   2.115   5.039  16.632  2.4072  0.4130 -0.8146
 8609TIP3    H247243   2.072   4.908  16.569  1.0206  0.3706  0.1913
 8610TIP3   OH247244   1.081   3.662   0.692  0.0721 -0.0858 -0.3363
 8610TIP3    H147245   1.034   3.745   0.682 -1.2436 -0.7636  0.0805
 8610TIP3    H247246   1.024   3.609   0.748  1.5132 -0.8050  0.4589
 8611TIP3   OH247247   3.550   0.933   0.269  0.0095 -0.2497  0.0826
 8611TIP3    H147248   3.597   0.939   0.186  0.2906 -0.8442  0.2001
 8611TIP3    H247249   3.613   0.968   0.334 -1.1990  2.8652 -0.3177
 8612TIP3   OH247250   6.310   2.681  15.466 -0.0957  0.4158 -0.0404
 8612TIP3    H147251   6.293   2.775  15.452 -0.5849  0.6104  1.6860
 8612TIP3    H247252   6.243   2.654  15.528  1.6588 -0.4653  1.5130
 8613TIP3   OH247253   0.151   5.259  13.783  0.3707  0.0896 -0.4146
 8613TIP3    H147254   0.152   5.182  13.727  1.6689 -0.5322  0.4544
 8613TIP3    H247255   0.183   5.330  13.727  0.4668 -0.2711 -0.8166
 8614TIP3   OH247256   1.734   3.227  16.088 -0.1399  0.6288  0.1167
 8614TIP3    H147257   1.787   3.155  16.053  1.0615  0.6264  1.8590
 8614TIP3    H247258   1.777   3.306  16.056 -0.3208  0.6063 -0.1862
 8615TIP3   OH247259   5.916   3.426  14.204 -0.0860  0.8858  0.0623
 8615TIP3    H147260   5.941   3.360  14.268 -1.0482  1.1498  0.7259
 8615TIP3    H247261   5.964   3.403  14.125  0.3852  0.0086  0.6007
 8616TIP3   OH247262   4.864   1.366   2.051 -0.3492  0.1637 -0.1693
 8616TIP3    H147263   4.839   1.414   1.973  0.7708  1.6529  0.3638
 8616TIP3    H247264   4.855   1.429   2.122  0.4688 -0.6188  0.6486
 8617TIP3   OH247265   4.208   1.036  15.947  0.5661  0.1400 -0.3054
 8617TIP3    H147266   4.241   0.995  15.867  2.1994  0.2519  0.2899
 8617TIP3    H247267   4.260   0.997  16.017 -1.7030 -0.8833  0.8572
 8618TIP3   OH247268   5.749   0.359  11.953 -0.2845 -0.7610  0.6044
 8618TIP3    H147269   5.754   0.395  12.042 -0.2208 -0.3361  0.4333
 8618TIP3    H247270   5.727   0.267  11.966 -0.2318 -0.7143  1.0631
 8619TIP3   OH247271   3.547   3.247   5.765 -0.0830 -0.3939 -0.1399
 8619TIP3    H147272   3.548   3.317   5.829 -0.8541 -0.6726  0.1840
 8619TIP3    H247273   3.594   3.282   5.689 -0.5560  0.5035 -0.0184
 8620TIP3   OH247274   6.029   0.436   3.821  0.7596 -0.6416 -0.5275
 8620TIP3    H147275   5.985   0.471   3.898  2.4245  0.8493 -0.2023
 8620TIP3    H247276   6.013   0.342   3.824  0.6215 -0.5713  1.5247
 8621TIP3   OH247277   2.387   2.046  13.835  0.5274  0.7856  0.4415
 8621TIP3    H147278   2.467   2.062  13.785 -0.5624  1.4108 -1.1409
 8621TIP3    H247279   2.415   2.051  13.927  2.2775  1.0626 -0.0771
 8622TIP3   OH247280   4.123   5.441   2.623 -0.4849 -0.6471  0.1699
 8622TIP3    H147281   4.077   5.498   2.562  0.5701  1.1981  1.0612
 8622TIP3    H247282   4.152   5.367   2.569 -2.2203 -0.5717 -0.9058
 8623TIP3   OH247283   5.217   5.188  13.861  0.0152 -0.1480  0.3759
 8623TIP3    H147284   5.248   5.101  13.836  1.1003  0.6182 -1.0766
 8623TIP3    H247285   5.205   5.234  13.777 -1.3393  0.8277  1.0897
 8624TIP3   OH247286   5.003   0.858   4.452  0.2999 -0.0763 -0.4446
 8624TIP3    H147287   4.983   0.939   4.405 -0.6277 -1.0654 -1.7713
 8624TIP3    H247288   5.011   0.886   4.544 -1.2949  1.3167 -0.6965
 8625TIP3   OH247289   4.397   3.239   6.662  0.3317  0.0739 -0.6690
 8625TIP3    H147290   4.356   3.314   6.703  0.9256 -0.0715  0.2139
 8625TIP3    H247291   4.491   3.255   6.671  0.4879 -1.7242  1.3593
 8626TIP3   OH247292   3.953   5.554  16.425 -0.2252 -0.1929  0.2651
 8626TIP3    H147293   4.004   5.566  16.505  1.2221  1.9414 -0.9128
 8626TIP3    H247294   3.903   5.635  16.416 -1.4576 -0.9973 -0.2460
 8627TIP3   OH247295   2.251   4.120   0.849 -0.4485 -0.3310 -0.4310
 8627TIP3    H147296   2.227   4.113   0.757 -0.4352  1.4401 -0.5880
 8627TIP3    H247297   2.247   4.030   0.882 -3.5736 -0.5966 -1.3712
 8628TIP3   OH247298   5.814   6.256  12.163 -0.5347 -0.5456  0.3053
 8628TIP3    H147299   5.878   6.185  12.164 -1.3930 -1.3293  0.7752
 8628TIP3    H247300   5.842   6.314  12.234 -1.0444 -1.5344  1.3373
 8629TIP3   OH247301   2.452   2.635  11.167 -0.0393  0.6774  0.0215
 8629TIP3    H147302   2.440   2.583  11.088  0.5909 -0.9356  0.9526
 8629TIP3    H247303   2.367   2.635  11.210 -0.7770  2.8208 -1.3769
 8630TIP3   OH247304   6.208   2.903  11.082 -0.5381 -0.5203 -0.3243
 8630TIP3    H147305   6.228   2.848  11.157  1.4048 -1.5762 -1.5813
 8630TIP3    H247306   6.283   2.893  11.023 -1.2830  1.5294 -1.7013
 8631TIP3   OH247307   4.166   3.108  14.332 -0.1192  0.2894  0.0557
 8631TIP3    H147308   4.198   3.161  14.259  1.8105  0.3536  0.9111
 8631TIP3    H247309   4.112   3.168  14.384  0.6030  0.9559  0.0500
 8632TIP3   OH247310   4.155   5.418   1.375 -0.6589  0.2448  0.0451
 8632TIP3    H147311   4.103   5.432   1.296 -1.9993  2.1378  1.2127
 8632TIP3    H247312   4.186   5.505   1.399  1.0264 -0.5271  0.7657
 8633TIP3   OH247313   0.286   0.454   2.933  0.5029  0.3869 -0.1922
 8633TIP3    H147314   0.311   0.515   3.002  1.6741 -0.1671 -0.1066
 8633TIP3    H247315   0.234   0.506   2.873  2.6594  1.8517 -0.8647
 8634TIP3   OH247316   4.599   6.453   3.493  0.4419  0.3208 -0.5184
 8634TIP3    H147317   4.581   6.429   3.402 -1.3835 -0.7497  0.1130
 8634TIP3    H247318   4.535   6.521   3.513 -0.6015 -0.9924  0.6409
 8635TIP3   OH247319   2.017   3.582   6.231 -0.2511 -0.2341  0.1438
 8635TIP3    H147320   2.091   3.531   6.200 -1.8518 -2.3346 -0.4060
 8635TIP3    H247321   2.055   3.650   6.286  2.2041  0.0791 -1.8975
 8636TIP3   OH247322   4.216   6.735  11.719 -0.6550  0.0241 -0.4671
 8636TIP3    H147323   4.280   6.805  11.711 -0.3535 -0.2375 -0.3442
 8636TIP3    H247324   4.263   6.665  11.764 -0.8930 -0.3347 -0.7729
 8637TIP3   OH247325   3.714   2.979   0.832 -0.8984  0.1253 -0.0929
 8637TIP3    H147326   3.782   2.912   0.826 -1.9455 -0.9397 -0.0864
 8637TIP3    H247327   3.759   3.060   0.807 -0.0332 -0.8347 -1.7724
 8638TIP3   OH247328   0.050   4.510   0.038 -0.4273 -0.9777 -0.7530
 8638TIP3    H147329   0.075   4.424   0.072 -1.9753 -1.6439 -1.2379
 8638TIP3    H247330   0.132   4.548   0.006  0.6548 -1.3127  1.5021
 8639TIP3   OH247331   2.284   2.358  11.385  0.3107  0.3670 -0.0821
 8639TIP3    H147332   2.233   2.424  11.337 -0.1607 -1.0032 -1.5027
 8639TIP3    H247333   2.318   2.300  11.317  3.0363  0.7231  0.9316
 8640TIP3   OH247334   2.530   0.016  14.705  0.2692  0.3102 -0.0874
 8640TIP3    H147335   2.533  -0.080  14.710 -1.5531  0.2481  0.1259
 8640TIP3    H247336   2.585   0.045  14.779  1.0835 -0.5478 -0.3327
 8641TIP3   OH247337   6.307   3.491   2.704 -0.3651 -0.6643 -0.6697
 8641TIP3    H147338   6.303   3.419   2.767 -0.2646 -0.1937 -0.1185
 8641TIP3    H247339   6.220   3.529   2.705  0.2788  0.8317  0.9600
 8642TIP3   OH247340   0.330   0.141  13.960 -0.3392 -0.4684  1.0005
 8642TIP3    H147341   0.239   0.124  13.934 -0.3944 -0.5034  1.2113
 8642TIP3    H247342   0.328   0.230  13.995 -0.3887 -0.6456  1.4473
 8643TIP3   OH247343   6.645   1.812  12.540 -0.1844 -0.3373  0.3367
 8643TIP3    H147344   6.669   1.903  12.526 -1.2674 -0.1844 -0.6195
 8643TIP3    H247345   6.720   1.774  12.586 -0.2607  1.3572  1.9419
 8644TIP3   OH247346   6.206   0.230  11.267 -0.0025 -0.1775  0.1720
 8644TIP3    H147347   6.277   0.171  11.293  0.4169 -0.0463 -0.6577
 8644TIP3    H247348   6.251   0.306  11.229 -0.6037 -0.5530 -1.3334
 8645TIP3   OH247349   4.511   5.738  14.081 -0.1701 -0.2470  0.5950
 8645TIP3    H147350   4.447   5.788  14.032 -0.2143  1.5146  2.3819
 8645TIP3    H247351   4.507   5.650  14.044 -2.7020  0.1690 -0.1787
 8646TIP3   OH247352   6.683   4.223   1.014 -0.2937  0.3834  0.1630
 8646TIP3    H147353   6.592   4.236   0.988 -0.7562  0.3892  1.7312
 8646TIP3    H247354   6.688   4.256   1.104  0.8790 -1.0715  0.6588
 8647TIP3   OH247355   1.866   0.686   4.559  0.2241 -0.5684 -0.1579
 8647TIP3    H147356   1.940   0.746   4.553  1.0088 -1.5537 -0.5087
 8647TIP3    H247357   1.881   0.637   4.639 -0.0954 -0.7299 -0.1939
 8648TIP3   OH247358   1.382   0.650   1.698 -0.4712  0.2076  0.4148
 8648TIP3    H147359   1.468   0.683   1.724 -0.0805 -1.1924  0.9671
 8648TIP3    H247360   1.320   0.698   1.752  0.0137  0.7760  0.4707
 8649TIP3   OH247361   4.102   4.592  12.487  0.1962 -0.6100  0.2331
 8649TIP3    H147362   4.146   4.511  12.462  0.7811  0.0507 -0.9194
 8649TIP3    H247363   4.032   4.602  12.423  1.0193  0.5229 -0.5222
 8650TIP3   OH247364   0.476   3.182   2.519 -0.1363 -0.1515 -0.6793
 8650TIP3    H147365   0.564   3.220   2.525 -0.3790  0.5504 -1.4925
 8650TIP3    H247366   0.487   3.105   2.465 -0.2145  0.5755 -1.7501
 8651TIP3   OH247367   3.533   1.040  14.046 -0.2203  0.2244  0.5161
 8651TIP3    H147368   3.586   1.067  14.122 -0.5916 -0.4624  1.0178
 8651TIP3    H247369   3.488   1.121  14.019  2.1747  1.1641 -0.8167
 8652TIP3   OH247370   5.219   3.100   0.140  0.1471 -0.2531  0.0769
 8652TIP3    H147371   5.283   3.163   0.173 -0.2001  0.0050  0.2587
 8652TIP3    H247372   5.135   3.134   0.168 -0.1445 -0.0893 -0.9659
 8653TIP3   OH247373   6.210   0.645  16.878  0.1770 -0.0051 -0.1498
 8653TIP3    H147374   6.280   0.635  16.942  0.8143  2.3133 -0.4355
 8653TIP3    H247375   6.156   0.567  16.888  0.9698 -0.2493  2.3505
 8654TIP3   OH247376   3.432   3.119  16.571 -0.2143 -0.6257  0.2422
 8654TIP3    H147377   3.474   3.105  16.656  0.5654  2.2310  0.3686
 8654TIP3    H247378   3.385   3.202  16.581 -0.4888 -0.4949 -1.9804
 8655TIP3   OH247379   0.294   1.533  13.132 -0.3081  0.3534 -0.5279
 8655TIP3    H147380   0.318   1.460  13.190  0.0314  2.0159  1.5113
 8655TIP3    H247381   0.214   1.505  13.089 -0.0749 -1.2967  0.0889
 8656TIP3   OH247382   5.129   0.772  15.175  0.3623  0.1280  0.2927
 8656TIP3    H147383   5.067   0.801  15.242  0.3985  0.0196  0.3734
 8656TIP3    H247384   5.136   0.846  15.115  1.5494  0.8458  1.2860
 8657TIP3   OH247385   6.386   2.165  15.644 -0.1017  0.4631 -0.6192
 8657TIP3    H147386   6.392   2.254  15.610 -0.0546 -0.2456 -2.5413
 8657TIP3    H247387   6.462   2.119  15.607 -0.1679 -0.3918  0.2782
 8658TIP3   OH247388   2.815   1.269  12.114  0.1019 -0.0651 -0.3337
 8658TIP3    H147389   2.734   1.249  12.160 -0.2021 -0.4699 -1.0324
 8658TIP3    H247390   2.880   1.211  12.154 -0.5929 -1.8617 -1.7690
 8659TIP3   OH247391   3.685   1.401   4.585  0.1728  0.2358  0.5985
 8659TIP3    H147392   3.591   1.409   4.568 -0.0391  1.9095  2.4152
 8659TIP3    H247393   3.698   1.308   4.602 -1.1865  0.0134  0.4696
 8660TIP3   OH247394   4.938   6.327  12.047  0.4991  0.0266 -0.1143
 8660TIP3    H147395   4.896   6.279  11.976  1.1231  0.2326 -0.6221
 8660TIP3    H247396   4.940   6.418  12.016  0.2327  0.2154  0.4177
 8661TIP3   OH247397   6.763   1.129  15.477  0.3875  0.5343 -0.2423
 8661TIP3    H147398   6.840   1.114  15.532  0.7242 -1.2186 -1.1797
 8661TIP3    H247399   6.694   1.078  15.518  0.1759  0.6827 -0.4139
 8662TIP3   OH247400   4.027   3.908  16.128 -0.3134 -0.1751  0.3558
 8662TIP3    H147401   4.100   3.864  16.171 -0.7749  0.1763  1.5062
 8662TIP3    H247402   3.961   3.918  16.196  0.0532  2.9472  0.3562
 8663TIP3   OH247403   5.099   0.652  15.824 -0.3825  0.3134 -0.1234
 8663TIP3    H147404   5.189   0.631  15.798 -0.0364  0.8000  0.6597
 8663TIP3    H247405   5.080   0.734  15.778 -0.5973 -0.0328 -0.6595
 8664TIP3   OH247406   0.009   4.912  13.352  0.5737 -0.2511  0.1209
 8664TIP3    H147407   0.052   4.872  13.427  0.2316 -0.5848  0.1438
 8664TIP3    H247408   0.071   4.977  13.320 -0.2555  1.5911  2.1446
 8665TIP3   OH247409   5.070   2.454   2.468  0.7375 -0.2316  1.3190
 8665TIP3    H147410   5.009   2.487   2.534 -1.4920 -1.1278 -0.2302
 8665TIP3    H247411   5.048   2.504   2.389  0.0998 -2.5024  0.0250
 8666TIP3   OH247412   4.506   1.098   2.247 -0.0587  0.8033  0.4454
 8666TIP3    H147413   4.442   1.032   2.222  0.3663  0.2071  0.9061
 8666TIP3    H247414   4.454   1.170   2.283 -0.5101  0.6366  0.1255
 8667TIP3   OH247415   4.553   2.255   0.788  0.9478 -0.0961  0.2981
 8667TIP3    H147416   4.468   2.217   0.809  1.1762 -1.0092 -0.3715
 8667TIP3    H247417   4.547   2.346   0.817 -0.1317 -0.2509  0.5721
 8668TIP3   OH247418   0.289   5.197  11.808  0.3759  0.0646  0.1582
 8668TIP3    H147419   0.229   5.168  11.876 -0.4319  0.0528 -0.5565
 8668TIP3    H247420   0.300   5.291  11.824 -0.5071  0.2368 -0.2218
 8669TIP3   OH247421   4.961   5.714   2.170  0.2627 -0.3088 -0.0022
 8669TIP3    H147422   5.045   5.717   2.215  0.0883  1.9899  0.1878
 8669TIP3    H247423   4.961   5.789   2.111 -1.4756 -0.5296 -0.3295
 8670TIP3   OH247424   0.462   2.657  13.670 -0.7207  0.9997  0.3879
 8670TIP3    H147425   0.432   2.680  13.582 -1.0307  1.1279  0.5266
 8670TIP3    H247426   0.519   2.730  13.695  0.6380  0.2151 -0.3298
 8671TIP3   OH247427   3.336   4.901   1.945 -0.3457 -0.2870  0.5581
 8671TIP3    H147428   3.405   4.906   2.011  0.4025  1.4599 -0.3239
 8671TIP3    H247429   3.288   4.983   1.954 -0.3436 -0.1069 -0.9585
 8672TIP3   OH247430   6.386   4.308  12.886  0.2075  0.0085  0.4458
 8672TIP3    H147431   6.353   4.390  12.921  0.5170 -0.9633  3.1033
 8672TIP3    H247432   6.324   4.242  12.918  0.3738 -0.9014 -1.0365
 8673TIP3   OH247433   4.148   3.112   5.216 -0.6195 -0.1447  0.1669
 8673TIP3    H147434   4.207   3.040   5.192  0.2740  0.0473  1.6893
 8673TIP3    H247435   4.119   3.089   5.305 -0.4041  1.3179  0.6248
 8674TIP3   OH247436   0.895   2.907   5.396  0.2004 -0.2768 -0.1613
 8674TIP3    H147437   0.890   2.959   5.475  0.4956  0.1680 -0.4323
 8674TIP3    H247438   0.844   2.828   5.415 -0.1797  0.0767  0.2718
 8675TIP3   OH247439   2.784   3.415  12.757 -0.0266  0.7940  0.3049
 8675TIP3    H147440   2.875   3.412  12.731  0.4466 -2.3605  2.0515
 8675TIP3    H247441   2.743   3.341  12.712 -1.2844  1.0500  0.9892
 8676TIP3   OH247442   3.662   1.295  16.576  0.4582 -0.2361 -0.5032
 8676TIP3    H147443   3.718   1.219  16.589 -0.2855 -0.4547  1.5407
 8676TIP3    H247444   3.709   1.368  16.615  1.3375  0.4715 -2.7819
 8677TIP3   OH247445   4.196   0.179  16.222  0.0015  0.0790  0.1136
 8677TIP3    H147446   4.156   0.257  16.261  0.0072  0.4902 -0.6832
 8677TIP3    H247447   4.204   0.117  16.294  2.0074  1.6036  1.2431
 8678TIP3   OH247448   3.905   0.447  12.109 -0.2538 -0.2077  0.1948
 8678TIP3    H147449   3.873   0.530  12.143  1.7742 -0.3023  2.4126
 8678TIP3    H247450   3.997   0.443  12.135 -0.1841 -2.9121 -0.2834
 8679TIP3   OH247451   4.900   0.754   5.798 -0.3333 -0.0400  1.1504
 8679TIP3    H147452   4.875   0.846   5.803 -0.6236 -0.0859  0.5492
 8679TIP3    H247453   4.899   0.724   5.889 -0.2549  0.5440  1.3424
 8680TIP3   OH247454   4.360   0.499   3.981 -0.6782  0.1238 -0.1083
 8680TIP3    H147455   4.395   0.413   3.960 -1.2131 -0.8781  2.9338
 8680TIP3    H247456   4.334   0.493   4.073 -0.3661  3.6463  0.2762
 8681TIP3   OH247457   0.805   4.247  12.306  0.0492  0.2289 -0.0960
 8681TIP3    H147458   0.865   4.233  12.379 -0.7056  0.1855  0.5214
 8681TIP3    H247459   0.719   4.257  12.347 -0.6164 -1.3261 -1.0738
 8682TIP3   OH247460   5.416   4.027   0.112  0.1133 -0.0104  0.2875
 8682TIP3    H147461   5.412   4.034   0.207  0.1354  1.6322  0.1920
 8682TIP3    H247462   5.445   3.938   0.095  1.4608  0.1040  1.8593
 8683TIP3   OH247463   1.479   0.116  13.050 -0.4359 -0.1208 -0.5980
 8683TIP3    H147464   1.542   0.186  13.067 -0.8445  0.3438 -0.9694
 8683TIP3    H247465   1.522   0.036  13.081  0.6426  0.0825 -1.5146
 8684TIP3   OH247466   0.492   6.127  14.319  0.5578  0.0411  0.0272
 8684TIP3    H147467   0.412   6.098  14.364  0.6626 -0.9571 -0.3975
 8684TIP3    H247468   0.507   6.216  14.350  0.2891 -0.4088  1.5091
 8685TIP3   OH247469   4.385   3.424  16.990  0.2739  0.2837  0.3932
 8685TIP3    H147470   4.453   3.472  16.943 -1.4600  0.7971 -1.6741
 8685TIP3    H247471   4.396   3.333  16.963  0.1416  0.3577  0.0975
 8686TIP3   OH247472   0.242   3.302   2.365 -0.5615  0.2709 -0.2631
 8686TIP3    H147473   0.299   3.236   2.404 -0.0176  1.2405  0.6145
 8686TIP3    H247474   0.203   3.258   2.289 -0.8940 -1.3348  0.8071
 8687TIP3   OH247475   1.251   2.541  11.344 -0.0485  0.5331  0.3422
 8687TIP3    H147476   1.280   2.475  11.406  0.6728  1.9955  1.5982
 8687TIP3    H247477   1.194   2.493  11.283 -0.6484 -0.9711  2.0161
 8688TIP3   OH247478   3.390   4.497   4.573 -0.2202  0.1674 -0.4802
 8688TIP3    H147479   3.313   4.461   4.531  0.8921 -0.7551 -1.7612
 8688TIP3    H247480   3.439   4.540   4.503  1.0424 -0.3147  0.0828
 8689TIP3   OH247481   1.572   6.463  13.211  0.2285 -0.0695 -0.1607
 8689TIP3    H147482   1.538   6.389  13.262  1.1262  0.2262  0.8943
 8689TIP3    H247483   1.668   6.453  13.217  0.3544  1.2072  0.0347
 8690TIP3   OH247484   2.260   2.848   6.617  0.3290  0.0247  0.3470
 8690TIP3    H147485   2.333   2.844   6.678 -0.3019  0.8822  1.1603
 8690TIP3    H247486   2.271   2.770   6.562  0.4143 -1.2222  2.0985
 8691TIP3   OH247487   4.426   3.341  14.444 -0.2582 -0.7486  0.7366
 8691TIP3    H147488   4.492   3.367  14.509 -1.7148 -0.9393  2.3297
 8691TIP3    H247489   4.408   3.249  14.463  0.6895 -1.3713 -1.2050
 8692TIP3   OH247490   2.969   1.886  14.859 -0.2552 -0.6535  0.1288
 8692TIP3    H147491   2.968   1.935  14.777 -0.7220  0.0103  0.5314
 8692TIP3    H247492   3.022   1.940  14.918 -0.4952 -0.7973  0.4719
 8693TIP3   OH247493   4.106   1.690  16.288  0.7350  0.3052 -0.1310
 8693TIP3    H147494   4.124   1.724  16.200  0.2585 -1.1084 -0.7848
 8693TIP3    H247495   4.157   1.747  16.346  0.7233  1.5157 -1.2794
 8694TIP3   OH247496   3.510   5.240  11.462  0.0250 -0.2585 -0.0374
 8694TIP3    H147497   3.597   5.272  11.437 -0.5008  1.1359 -0.1328
 8694TIP3    H247498   3.504   5.259  11.555  0.3427 -1.6110  0.2738
 8695TIP3   OH247499   6.569   5.936  13.023  0.0783  0.3142 -0.1058
 8695TIP3    H147500   6.550   5.929  13.117  0.1667 -3.3508 -0.2740
 8695TIP3    H247501   6.485   5.960  12.983 -0.6260 -0.8472  0.6526
 8696TIP3   OH247502   1.069   0.649   3.749 -0.2750 -0.7497 -0.2315
 8696TIP3    H147503   1.070   0.558   3.720 -0.2872  0.0058 -2.6816
 8696TIP3    H247504   1.137   0.692   3.697  1.1325  0.2355  2.3460
 8697TIP3   OH247505   5.256   4.579  14.761  0.2520 -0.1973 -0.1100
 8697TIP3    H147506   5.325   4.555  14.698 -0.6360 -0.8430 -0.8505
 8697TIP3    H247507   5.175   4.565  14.713 -0.4039  0.3042  0.8540
 8698TIP3   OH247508   6.703   4.772   0.560 -0.0008  0.6180  0.3212
 8698TIP3    H147509   6.616   4.808   0.549 -0.5242 -0.6366  0.2903
 8698TIP3    H247510   6.760   4.849   0.571 -0.5552  1.5879 -3.2254
 8699TIP3   OH247511   1.069   0.955  11.191  0.1195 -0.0261  0.2692
 8699TIP3    H147512   1.064   1.018  11.264  2.4409  1.7834 -1.0610
 8699TIP3    H247513   0.993   0.976  11.137 -1.1230 -0.7812  1.6849
 8700TIP3   OH247514   1.392   0.473  13.174  0.3688 -0.4290  0.1203
 8700TIP3    H147515   1.347   0.389  13.177  0.2679 -0.4255 -1.0504
 8700TIP3    H247516   1.471   0.456  13.124 -0.5124  0.5622 -1.6575
 8701TIP3   OH247517   4.199   3.351   4.917 -0.1967 -0.5429  0.3625
 8701TIP3    H147518   4.174   3.425   4.861  1.9732 -0.9829 -1.2473
 8701TIP3    H247519   4.165   3.274   4.871  0.6860 -0.8222  0.1727
 8702TIP3   OH247520   6.378   6.278   3.877 -0.6958  0.4213 -0.4635
 8702TIP3    H147521   6.378   6.336   3.953  1.6863  0.2100 -0.2500
 8702TIP3    H247522   6.445   6.316   3.819 -0.1862 -1.2506 -0.9921
 8703TIP3   OH247523   2.870   4.783  15.965 -0.2596  0.3135 -0.8782
 8703TIP3    H147524   2.840   4.874  15.962  0.5359  0.6390  0.7510
 8703TIP3    H247525   2.848   4.753  16.053 -0.1422 -0.9464 -1.2732
 8704TIP3   OH247526   4.638   5.501   3.126 -0.5787  0.2171  0.1679
 8704TIP3    H147527   4.679   5.451   3.196 -0.4266 -0.5811 -0.4922
 8704TIP3    H247528   4.556   5.455   3.108 -1.1436  1.0390  0.5548
 8705TIP3   OH247529   3.980   5.818  14.421  0.1300 -0.0454 -0.8695
 8705TIP3    H147530   3.931   5.747  14.462 -0.7438  0.4001 -1.1293
 8705TIP3    H247531   3.998   5.787  14.332  1.3864 -0.7065 -0.4002
 8706TIP3   OH247532   2.653   0.294  12.147 -0.0121 -0.3383  0.0330
 8706TIP3    H147533   2.644   0.378  12.103  0.8881 -0.5277 -0.5328
 8706TIP3    H247534   2.596   0.300  12.223 -0.8549  0.3504 -0.6445
 8707TIP3   OH247535   0.403   5.675  16.863  0.3925 -0.6214 -0.1582
 8707TIP3    H147536   0.397   5.704  16.772  1.3823  1.8969  0.5356
 8707TIP3    H247537   0.313   5.681  16.896  0.5401  1.7469 -0.0566
 8708TIP3   OH247538   4.864   4.178   1.672 -0.1269  0.5500  0.0153
 8708TIP3    H147539   4.878   4.085   1.692 -0.3242  0.3964 -0.5501
 8708TIP3    H247540   4.870   4.222   1.757  2.4378  0.3487 -0.0160
 8709TIP3   OH247541   4.366   3.195   5.353 -0.7005 -0.9231 -0.2423
 8709TIP3    H147542   4.272   3.182   5.341 -0.6091 -2.8927  0.8543
 8709TIP3    H247543   4.394   3.117   5.401  1.4571 -0.2555 -0.3850
 8710TIP3   OH247544   1.276   3.020   3.918  0.2347  0.4643  0.2241
 8710TIP3    H147545   1.368   3.030   3.896  0.5447  0.1472  1.3521
 8710TIP3    H247546   1.252   3.105   3.957  0.0727  0.5079  0.0330
 8711TIP3   OH247547   3.271   6.293   2.309  0.1286  0.0644 -0.1438
 8711TIP3    H147548   3.247   6.373   2.262  0.3396  1.7512  2.5264
 8711TIP3    H247549   3.195   6.235   2.298 -0.4129  0.9787 -1.3452
 8712TIP3   OH247550   3.338   5.343   0.089  0.3835  0.3254 -0.4314
 8712TIP3    H147551   3.320   5.363  -0.003  1.0123  0.4944 -0.5184
 8712TIP3    H247552   3.374   5.424   0.124  0.3404  0.1948 -0.0831
 8713TIP3   OH247553   0.398   5.573  12.314 -0.2723 -0.2637 -0.8451
 8713TIP3    H147554   0.458   5.570  12.239 -0.6263  2.6988 -1.2909
 8713TIP3    H247555   0.359   5.485  12.316  1.2985 -1.0615 -2.8348
 8714TIP3   OH247556   4.465   0.778   4.346 -0.3638  0.1180 -0.1896
 8714TIP3    H147557   4.446   0.844   4.279  0.5720  0.4886 -0.0860
 8714TIP3    H247558   4.543   0.733   4.315 -0.4333 -0.2888  0.2222
 8715TIP3   OH247559   1.299   1.578   1.250 -0.1662 -0.3411  0.4576
 8715TIP3    H147560   1.330   1.505   1.197 -2.3358 -0.3680 -0.8199
 8715TIP3    H247561   1.237   1.538   1.312 -2.0523  0.5108 -0.8392
 8716TIP3   OH247562   3.607   4.249  15.842 -0.5310 -0.3113  0.0673
 8716TIP3    H147563   3.618   4.341  15.816 -1.7310  0.2187  1.3814
 8716TIP3    H247564   3.640   4.245  15.932  0.3870 -1.3808 -0.3043
 8717TIP3   OH247565   1.989   3.121   0.156 -0.1593  0.2532  0.3910
 8717TIP3    H147566   1.900   3.103   0.126 -0.6900  2.1895  0.7249
 8717TIP3    H247567   1.982   3.206   0.199  1.9619  0.6332 -0.0059
 8718TIP3   OH247568   6.446   4.797  14.654 -0.6550 -0.0856 -0.0152
 8718TIP3    H147569   6.463   4.710  14.617 -1.0702 -0.0912 -0.2041
 8718TIP3    H247570   6.446   4.855  14.578  0.6231  0.2395  0.2217
 8719TIP3   OH247571   0.121   4.524   1.786  0.9145  0.1510 -0.6003
 8719TIP3    H147572   0.164   4.463   1.727  0.0310 -0.4122 -0.6752
 8719TIP3    H247573   0.190   4.586   1.812  2.5097 -2.4494  1.5973
 8720TIP3   OH247574   6.558   5.402  10.468  0.1927 -0.5678 -0.1313
 8720TIP3    H147575   6.508   5.483  10.455  1.8003  0.6498  1.2059
 8720TIP3    H247576   6.496   5.343  10.512 -0.7821  0.1318 -0.5357
 8721TIP3   OH247577   1.486   4.853  14.950 -0.5884 -0.6493  0.1406
 8721TIP3    H147578   1.493   4.899  15.034 -1.4258 -0.2865  0.0205
 8721TIP3    H247579   1.525   4.767  14.967  0.3877 -0.1304  0.5471
 8722TIP3   OH247580   4.923   0.630   1.721  0.6194 -0.1309 -0.2222
 8722TIP3    H147581   4.945   0.606   1.631  1.9307  1.9247 -0.4977
 8722TIP3    H247582   4.832   0.605   1.732  0.4594 -0.4159 -2.1206
 8723TIP3   OH247583   1.379   5.664  16.333  0.0148  0.5507 -0.0319
 8723TIP3    H147584   1.471   5.691  16.323 -0.0023  1.1901  1.4208
 8723TIP3    H247585   1.345   5.721  16.401 -2.1923  2.0091 -2.3132
 8724TIP3   OH247586   3.371   4.412   1.889 -0.1851 -0.1896  0.5360
 8724TIP3    H147587   3.316   4.338   1.915  2.1969 -2.0483  0.4106
 8724TIP3    H247588   3.389   4.397   1.796  2.9728 -1.2724  1.2716
 8725TIP3   OH247589   6.010   3.100   6.283  0.1415 -0.5043  0.1891
 8725TIP3    H147590   5.924   3.059   6.272  0.3433 -1.1492  0.9983
 8725TIP3    H247591   6.016   3.161   6.209  0.7045 -3.3754 -2.2657
 8726TIP3   OH247592   0.542   4.033   3.236 -0.6588  0.2970 -0.0276
 8726TIP3    H147593   0.568   3.989   3.317  1.5586  0.3570 -0.6666
 8726TIP3    H247594   0.495   4.111   3.265 -0.2121  0.1261  1.1892
 8727TIP3   OH247595   1.293   2.700   1.588  0.6612 -0.0298 -0.0660
 8727TIP3    H147596   1.259   2.625   1.538 -0.8641  0.7941 -0.2875
 8727TIP3    H247597   1.344   2.660   1.659 -2.2342 -1.3796  1.3346
 8728TIP3   OH247598   6.462   5.700  13.462  0.3737  0.6489 -0.8408
 8728TIP3    H147599   6.422   5.727  13.545 -0.3866 -0.6979 -0.7387
 8728TIP3    H247600   6.455   5.776  13.405 -0.9082  0.9573 -0.2942
 8729TIP3   OH247601   5.118   1.416   2.658 -0.2754 -0.0918  0.6539
 8729TIP3    H147602   5.200   1.428   2.610 -0.6927 -1.7867 -0.5482
 8729TIP3    H247603   5.050   1.426   2.592 -0.9594 -0.4305  1.2943
 8730TIP3   OH247604   4.392   3.151  15.576  0.2368  0.4572  0.7086
 8730TIP3    H147605   4.434   3.180  15.495 -1.1031 -1.4050 -0.6762
 8730TIP3    H247606   4.313   3.205  15.583  0.1810  0.3887  0.6021
 8731TIP3   OH247607   0.618   0.245  16.804  0.1848 -0.3480  0.6131
 8731TIP3    H147608   0.673   0.168  16.814  0.3413 -0.1792  1.0793
 8731TIP3    H247609   0.670   0.305  16.749 -0.0789 -0.7069 -0.0287
 8732TIP3   OH247610   5.409   5.752  11.179  0.4332  0.5751 -0.0149
 8732TIP3    H147611   5.389   5.690  11.248  1.0421 -1.8966 -1.9708
 8732TIP3    H247612   5.501   5.777  11.194  1.1709 -1.4277 -0.9625
 8733TIP3   OH247613   3.826   6.161  11.134  0.1253  0.2955 -0.7117
 8733TIP3    H147614   3.823   6.091  11.199  0.7092 -0.0868 -1.0966
 8733TIP3    H247615   3.846   6.117  11.052  0.5941  0.9265 -0.9397
 8734TIP3   OH247616   1.388   3.022  12.378 -0.4302  0.6057 -0.7580
 8734TIP3    H147617   1.418   3.082  12.310 -0.0251  2.4475  1.0106
 8734TIP3    H247618   1.462   2.964  12.394  0.3222  1.7213 -0.1838
 8735TIP3   OH247619   6.231   0.017  15.710 -0.2283  0.0434 -0.1015
 8735TIP3    H147620   6.266  -0.071  15.728 -0.1003  0.4565  1.8361
 8735TIP3    H247621   6.298   0.059  15.656  0.5275 -0.4582  0.4237
 8736TIP3   OH247622   2.875   3.797   1.444 -0.0498 -0.5489 -0.1186
 8736TIP3    H147623   2.898   3.842   1.362 -0.7757  0.0754  0.0144
 8736TIP3    H247624   2.845   3.867   1.502 -2.0980 -1.3121 -0.2285
 8737TIP3   OH247625   0.143   2.312  13.853 -0.5743  0.0320  0.3910
 8737TIP3    H147626   0.229   2.337  13.819 -0.5229  0.5223  0.8671
 8737TIP3    H247627   0.083   2.328  13.781 -0.2600 -0.3347  0.0483
 8738TIP3   OH247628   5.747   5.791  12.771  0.3682 -0.5748 -0.1502
 8738TIP3    H147629   5.833   5.788  12.729  0.9742 -0.8507  1.0906
 8738TIP3    H247630   5.765   5.809  12.863 -1.0101  1.4638 -0.2239
 8739TIP3   OH247631   3.106   5.600   5.737  0.3120  0.5874  0.4523
 8739TIP3    H147632   3.140   5.556   5.659  1.1911  0.8593  0.6735
 8739TIP3    H247633   3.167   5.672   5.753  1.1947 -0.5221  2.4083
 8740TIP3   OH247634   5.383   2.288  11.414 -0.0152  0.1881 -0.3482
 8740TIP3    H147635   5.342   2.229  11.350  1.3660 -3.0221  1.6361
 8740TIP3    H247636   5.326   2.285  11.490  0.8849  0.2196  0.3313
 8741TIP3   OH247637   2.952   5.021  13.750 -0.0488  0.0481 -0.1221
 8741TIP3    H147638   3.045   4.999  13.755  0.3625  1.6880 -0.3028
 8741TIP3    H247639   2.915   4.956  13.689  1.0487 -0.3599 -0.3636
 8742TIP3   OH247640   3.286   1.813  16.554 -0.4021  0.0214 -0.3233
 8742TIP3    H147641   3.358   1.755  16.579 -1.2923 -0.8197  0.2899
 8742TIP3    H247642   3.329   1.884  16.505  0.8205 -0.5556 -0.1056
 8743TIP3   OH247643   2.851   5.666  13.395  0.0782 -0.3110 -0.6052
 8743TIP3    H147644   2.841   5.757  13.368  1.0533  0.1659  0.5400
 8743TIP3    H247645   2.883   5.672  13.486 -0.4824 -1.7957 -0.2916
 8744TIP3   OH247646   5.545   6.480  16.956 -0.1375 -0.3506 -0.2085
 8744TIP3    H147647   5.487   6.542  16.999  0.2292 -0.4595  0.4479
 8744TIP3    H247648   5.561   6.517  16.869 -0.5217  0.0948 -0.0897
 8745TIP3   OH247649   1.122   6.711  16.371 -0.1451  0.2342  0.2761
 8745TIP3    H147650   1.161   6.639  16.420 -0.0374  1.1323  1.5456
 8745TIP3    H247651   1.031   6.685  16.357  0.0884 -0.4684  0.0911
 8746TIP3   OH247652   6.575   5.504  16.190  0.0446 -0.0767 -0.0873
 8746TIP3    H147653   6.594   5.500  16.096  0.4944 -1.5400  0.0547
 8746TIP3    H247654   6.488   5.545  16.195  1.4556  3.2100 -0.9210
 8747TIP3   OH247655   4.987   6.517   5.066 -0.6587 -0.3444 -0.4750
 8747TIP3    H147656   4.898   6.484   5.071 -1.2438  1.2919  0.4069
 8747TIP3    H247657   5.039   6.454   5.116 -1.4720 -0.7955 -0.1934
 8748TIP3   OH247658   1.295   2.632  15.771 -0.2453  0.3038  0.2503
 8748TIP3    H147659   1.227   2.623  15.838  1.8590  0.2018  2.4286
 8748TIP3    H247660   1.258   2.588  15.694 -3.2150  1.5002  0.9000
 8749TIP3   OH247661   6.742   3.611  12.180  0.3536 -0.0753 -0.5936
 8749TIP3    H147662   6.678   3.672  12.217 -1.8787 -0.0072 -4.4154
 8749TIP3    H247663   6.709   3.524  12.203 -0.9902 -0.0327 -2.3171
 8750TIP3   OH247664   2.683   0.607  14.287  0.4684  0.5621 -0.0907
 8750TIP3    H147665   2.628   0.632  14.362 -0.3924 -0.0846 -0.4877
 8750TIP3    H247666   2.732   0.531  14.319 -0.2761 -0.0342 -0.3261
 8751TIP3   OH247667   0.674   0.110   3.661  0.2118 -0.4461 -0.4207
 8751TIP3    H147668   0.727   0.053   3.717  0.1233 -0.5990 -0.4921
 8751TIP3    H247669   0.657   0.058   3.582 -1.2107 -0.9070  0.1787
 8752TIP3   OH247670   0.865   0.880  13.736  0.3236 -0.2325  0.6062
 8752TIP3    H147671   0.921   0.838  13.671 -0.7213 -0.5798 -0.0753
 8752TIP3    H247672   0.923   0.896  13.811  1.6134  0.4757 -0.5188
 8753TIP3   OH247673   0.205   0.939  13.462  0.0283  0.2374  0.5978
 8753TIP3    H147674   0.177   0.866  13.517  0.5052 -0.7163 -0.3962
 8753TIP3    H247675   0.291   0.913  13.429 -0.0277  1.0106 -0.1885
 8754TIP3   OH247676   1.463   5.345  14.595  0.7163  0.7065 -0.1007
 8754TIP3    H147677   1.408   5.413  14.558  2.5048  1.8742 -0.6586
 8754TIP3    H247678   1.439   5.266  14.546 -0.9623  1.0382  0.1695
 8755TIP3   OH247679   2.715   4.130  13.380  0.2908  0.0690  0.0290
 8755TIP3    H147680   2.668   4.114  13.297  1.4200  0.6744 -0.7283
 8755TIP3    H247681   2.686   4.058  13.437 -2.1296  0.8260 -0.1666
 8756TIP3   OH247682   0.816   1.372  13.851  0.4824 -0.8036  0.3107
 8756TIP3    H147683   0.762   1.413  13.784  2.5298 -2.2419 -2.3418
 8756TIP3    H247684   0.798   1.278  13.843  2.1262 -1.1566  0.4503
 8757TIP3   OH247685   3.403   4.667   0.137 -0.0422  0.4910 -0.1882
 8757TIP3    H147686   3.308   4.657   0.134 -0.3606  3.2814 -0.8403
 8757TIP3    H247687   3.436   4.577   0.144 -2.7062 -0.5201  0.1810
 8758TIP3   OH247688   4.440   5.601   5.501  0.0549  0.1356  0.0915
 8758TIP3    H147689   4.509   5.550   5.544 -0.3540  0.1572  0.7742
 8758TIP3    H247690   4.448   5.578   5.409  1.2523  0.4455  0.1001
 8759TIP3   OH247691   5.831   1.391   2.701 -0.1825 -0.5057  0.1306
 8759TIP3    H147692   5.879   1.456   2.752  0.4596 -0.7910 -0.1030
 8759TIP3    H247693   5.879   1.384   2.619 -1.3839  0.1770 -0.6499
 8760TIP3   OH247694   1.106   2.887   3.027  0.4216 -0.3352  0.1434
 8760TIP3    H147695   1.027   2.840   3.055  0.5808 -0.9510 -0.4191
 8760TIP3    H247696   1.143   2.832   2.958  0.5602  0.6788 -0.6050
 8761TIP3   OH247697   6.284   1.700  14.979 -0.4752 -0.2420 -0.3725
 8761TIP3    H147698   6.372   1.679  15.012 -0.6271 -1.1005 -0.5006
 8761TIP3    H247699   6.246   1.756  15.046 -0.4011 -1.1418  0.4305
 8762TIP3   OH247700   3.885   4.966  12.183 -0.2221  0.0725 -0.6661
 8762TIP3    H147701   3.940   4.986  12.107 -1.3987 -0.2694 -1.6190
 8762TIP3    H247702   3.948   4.949  12.254  0.8833  0.4970 -1.5238
 8763TIP3   OH247703   5.235   1.551  14.412  0.0335 -0.2928 -0.2856
 8763TIP3    H147704   5.216   1.643  14.390  0.2511 -0.4316 -1.0932
 8763TIP3    H247705   5.152   1.506  14.397  0.5336 -0.6175 -2.1868
 8764TIP3   OH247706   6.437   3.626   2.359  0.6383  0.5912 -0.5126
 8764TIP3    H147707   6.352   3.659   2.387  0.0666 -0.2716 -1.2179
 8764TIP3    H247708   6.442   3.648   2.265  0.1755 -1.4735 -1.0356
 8765TIP3   OH247709   5.285   3.984  14.719 -0.6895 -0.0617  0.0264
 8765TIP3    H147710   5.363   4.041  14.713 -1.7597  1.4950  0.6022
 8765TIP3    H247711   5.252   3.982  14.629 -0.2180 -0.3902 -0.1431
 8766TIP3   OH247712   5.649   6.083  13.161  0.1880  1.0120 -0.1892
 8766TIP3    H147713   5.564   6.092  13.203  0.7468  2.8945  0.5860
 8766TIP3    H247714   5.694   6.014  13.210 -0.6729  0.4207 -0.2370
 8767TIP3   OH247715   0.318   3.118   4.749 -0.1009 -0.0855  0.0677
 8767TIP3    H147716   0.231   3.117   4.790  0.2293 -1.5911  0.7703
 8767TIP3    H247717   0.303   3.157   4.663 -1.6177 -0.9795 -0.0999
 8768TIP3   OH247718   5.939   4.930   2.020  0.1959  0.3059 -0.5310
 8768TIP3    H147719   5.947   4.991   1.947  1.6918  0.1497 -0.5212
 8768TIP3    H247720   5.845   4.914   2.028  0.0195 -0.0123 -2.7182
 8769TIP3   OH247721   6.365   6.187   1.094 -0.3897  0.2779 -0.3645
 8769TIP3    H147722   6.382   6.124   1.024 -1.3380  0.0501 -0.3895
 8769TIP3    H247723   6.348   6.133   1.171  1.9055  0.5234  0.3695
 8770TIP3   OH247724   5.982   5.753   4.443 -0.1699  0.1102 -0.1712
 8770TIP3    H147725   5.959   5.678   4.498  1.8944 -0.3319  0.1381
 8770TIP3    H247726   5.963   5.724   4.354  1.5192 -1.1890 -0.1458
 8771TIP3   OH247727   0.765   0.854  16.528 -0.8046 -0.3503  0.4080
 8771TIP3    H147728   0.701   0.828  16.594 -0.8856  0.7010  0.7545
 8771TIP3    H247729   0.739   0.805  16.450 -2.9505  1.1239  0.1323
 8772TIP3   OH247730   6.778   5.704  11.688 -0.0691 -0.5411 -0.4051
 8772TIP3    H147731   6.865   5.736  11.666 -0.1789  0.1031  0.0864
 8772TIP3    H247732   6.742   5.674  11.604  0.7364 -1.0968 -0.5575
 8773TIP3   OH247733   4.262   5.068   5.486 -0.0398 -0.7245  0.1392
 8773TIP3    H147734   4.198   5.043   5.420 -0.1930 -0.0131  0.0145
 8773TIP3    H247735   4.222   5.043   5.570 -0.3140 -0.6242  0.0364
 8774TIP3   OH247736   4.719   6.575  11.556  0.0339  0.1300 -0.6561
 8774TIP3    H147737   4.801   6.608  11.519  1.4399 -1.0337  1.3234
 8774TIP3    H247738   4.662   6.652  11.562  0.9128  0.9108 -2.1927
 8775TIP3   OH247739   1.850   2.148   0.974 -0.5439  0.6986  0.3896
 8775TIP3    H147740   1.827   2.092   0.900  1.7118 -2.7553  2.1534
 8775TIP3    H247741   1.929   2.194   0.945 -0.2982  0.1963  0.2634
 8776TIP3   OH247742   1.632   6.645  12.524 -0.3623  0.2470  0.1348
 8776TIP3    H147743   1.717   6.685  12.506  1.0722 -1.4526  2.8566
 8776TIP3    H247744   1.581   6.716  12.563  0.1662  0.9967 -0.5236
 8777TIP3   OH247745   2.815   3.421  11.973 -0.4146 -0.4625 -0.1381
 8777TIP3    H147746   2.815   3.484  12.045  1.4472 -0.3719 -0.2121
 8777TIP3    H247747   2.745   3.452  11.915 -0.2061  0.9515  0.3368
 8778TIP3   OH247748   3.391   1.186   1.321  0.2576 -0.7511  0.3767
 8778TIP3    H147749   3.320   1.208   1.381 -0.6600  1.9001 -1.5548
 8778TIP3    H247750   3.463   1.244   1.345  0.9328 -1.7368  0.7724
 8779TIP3   OH247751   2.674   5.680  15.792 -0.8845 -0.0034  0.1283
 8779TIP3    H147752   2.697   5.712  15.879 -2.5705  2.0607 -0.1497
 8779TIP3    H247753   2.605   5.615  15.807 -0.3925 -0.4610  0.4060
 8780TIP3   OH247754   6.187   1.179  14.363 -0.2203  0.8329  0.0395
 8780TIP3    H147755   6.148   1.152  14.280  2.1793  2.7419 -1.7809
 8780TIP3    H247756   6.193   1.275  14.357  2.5645  0.7852  1.2132
 8781TIP3   OH247757   3.228   0.670   1.649 -0.1793 -0.2186  0.3273
 8781TIP3    H147758   3.181   0.639   1.727 -0.9791  0.0415 -0.0378
 8781TIP3    H247759   3.214   0.602   1.584 -0.0633 -0.1292  0.2084
 8782TIP3   OH247760   5.976   3.458   5.688 -0.2179 -0.2714 -0.3014
 8782TIP3    H147761   5.927   3.516   5.747  1.4648 -0.0874  0.9655
 8782TIP3    H247762   5.918   3.383   5.675 -1.4192  0.5778  0.0123
 8783TIP3   OH247763   3.877   2.187   2.409 -0.7006 -0.5068  0.3513
 8783TIP3    H147764   3.800   2.242   2.395 -0.1812  0.8932  2.7960
 8783TIP3    H247765   3.867   2.155   2.498  3.2228  2.5039  2.0140
 8784TIP3   OH247766   5.345   6.220  11.852 -0.6137 -0.0619 -0.1733
 8784TIP3    H147767   5.293   6.253  11.780 -1.8106 -0.4147  0.5162
 8784TIP3    H247768   5.315   6.270  11.928  0.2513 -0.0703  0.1806
 8785TIP3   OH247769   2.351   3.979   5.930 -0.0010  0.3919 -0.3813
 8785TIP3    H147770   2.324   4.047   5.868  0.2479  0.5444 -0.3232
 8785TIP3    H247771   2.334   3.897   5.883 -1.1866  0.4655 -0.0863
 8786TIP3   OH247772   0.364   3.489  11.615  0.0566  0.4046 -0.1722
 8786TIP3    H147773   0.325   3.572  11.587  0.4125  1.5582  2.5942
 8786TIP3    H247774   0.452   3.513  11.645  0.2339 -1.0183  0.4692
 8787TIP3   OH247775   4.455   3.020   4.239 -0.0260 -0.4464  0.4381
 8787TIP3    H147776   4.491   3.008   4.327  1.5427  2.1108  0.1876
 8787TIP3    H247777   4.522   2.982   4.181  0.8992  1.5530  0.1493
 8788TIP3   OH247778   1.742   3.608  12.995 -0.1201  0.3220 -0.1412
 8788TIP3    H147779   1.696   3.632  13.076 -0.3055 -0.6857  0.0547
 8788TIP3    H247780   1.675   3.616  12.926 -0.0996  0.6685 -0.1212
 8789TIP3   OH247781   3.139   6.747  15.606  0.0960 -0.1931  0.3595
 8789TIP3    H147782   3.112   6.839  15.610 -0.5282 -0.2870 -1.1895
 8789TIP3    H247783   3.064   6.702  15.567 -0.0074 -1.5360  2.0800
 8790TIP3   OH247784   2.566   3.078  15.310 -0.1829  0.5903  0.1873
 8790TIP3    H147785   2.491   3.127  15.278 -0.5877  0.1073  0.3964
 8790TIP3    H247786   2.590   3.121  15.392  1.1830  2.1616 -0.9972
 8791TIP3   OH247787   1.273   6.506  13.286  0.6450 -0.3894 -0.2161
 8791TIP3    H147788   1.194   6.508  13.340 -0.3792 -2.3839 -1.5900
 8791TIP3    H247789   1.250   6.556  13.208  1.6050  1.1505  0.4583
 8792TIP3   OH247790   4.153   3.014  15.816  0.0964  0.3618  0.5442
 8792TIP3    H147791   4.134   2.921  15.826  0.2797  0.3651  0.9117
 8792TIP3    H247792   4.130   3.053  15.900  1.0031  0.4878  0.7357
 8793TIP3   OH247793   0.004   1.042  11.110  0.2698 -0.5297  0.9950
 8793TIP3    H147794  -0.081   1.067  11.073  0.3359  0.7473  1.6535
 8793TIP3    H247795   0.027   1.115  11.169  1.6579 -1.0148  1.0831
 8794TIP3   OH247796   1.122   4.769   2.910 -0.0065 -0.0934  0.3766
 8794TIP3    H147797   1.087   4.707   2.974 -0.1585  0.1450  0.5204
 8794TIP3    H247798   1.095   4.734   2.825 -0.1809 -0.1656  0.4633
 8795TIP3   OH247799   4.015   1.919   6.547 -0.5569  0.0142 -0.0112
 8795TIP3    H147800   4.108   1.930   6.569  0.1718  0.0873 -2.8583
 8795TIP3    H247801   3.989   1.839   6.592  1.2220 -0.6551 -0.1286
 8796TIP3   OH247802   4.591   1.718  12.154  0.1119  0.3314 -0.6800
 8796TIP3    H147803   4.674   1.671  12.141 -1.0692 -2.1304  0.4555
 8796TIP3    H247804   4.555   1.683  12.235 -1.2269  2.6597 -0.2098
 8797TIP3   OH247805   3.033   2.236  13.673 -0.0288  0.3682  0.4024
 8797TIP3    H147806   3.127   2.251  13.670 -0.2503  1.5739 -1.1386
 8797TIP3    H247807   3.007   2.266  13.761  0.9249  0.6018  0.6055
 8798TIP3   OH247808   0.469   5.144   2.548 -0.3202  0.3178  0.5805
 8798TIP3    H147809   0.490   5.055   2.577  1.4650  0.7353  0.6627
 8798TIP3    H247810   0.454   5.192   2.630  0.7760  0.5596  0.6544
 8799TIP3   OH247811   0.727   0.799  14.312  0.1936  0.1827  0.1089
 8799TIP3    H147812   0.720   0.859  14.386 -2.3923  0.6096 -0.4116
 8799TIP3    H247813   0.818   0.771  14.312  1.2734  3.4301  0.8909
 8800TIP3   OH247814   0.209   6.621  14.339 -0.0953  0.0138  0.3881
 8800TIP3    H147815   0.196   6.677  14.416 -1.2676  0.6068 -0.2240
 8800TIP3    H247816   0.286   6.657  14.296  0.6213 -0.3734  1.3293
 8801TIP3   OH247817   0.933   4.988  14.955  0.4707 -0.3087  0.1608
 8801TIP3    H147818   0.979   5.071  14.960  2.6085 -1.5369  2.2057
 8801TIP3    H247819   0.858   5.004  14.897  1.1617  2.8407  0.0916
 8802TIP3   OH247820   4.375   1.248  15.214 -0.3085  0.0205  0.6949
 8802TIP3    H147821   4.309   1.307  15.249 -0.9390 -1.4562  2.0433
 8802TIP3    H247822   4.337   1.215  15.132 -0.2912  0.8530  0.3502
 8803TIP3   OH247823   4.164   3.310  15.554  0.5139 -0.4940 -0.1624
 8803TIP3    H147824   4.102   3.379  15.577  1.5360 -0.1084  1.5001
 8803TIP3    H247825   4.204   3.340  15.473 -1.5643 -0.8236 -1.3617
 8804TIP3   OH247826   2.912   4.223   2.365 -0.0875 -0.4452 -0.2820
 8804TIP3    H147827   2.966   4.302   2.368 -1.4178  0.4723  0.0013
 8804TIP3    H247828   2.843   4.238   2.429 -1.6259 -0.8820 -1.7916
 8805TIP3   OH247829   5.549   6.780  15.674  0.0829 -0.4655  0.3737
 8805TIP3    H147830   5.625   6.768  15.730 -0.8602  0.1901  1.8232
 8805TIP3    H247831   5.550   6.704  15.615  3.3651  0.9186 -1.4618
 8806TIP3   OH247832   3.812   4.775  16.598  0.4673  0.4617 -0.2672
 8806TIP3    H147833   3.900   4.792  16.565  1.1239 -1.3644  0.5090
 8806TIP3    H247834   3.822   4.767  16.692 -0.7732  1.6078 -0.0180
 8807TIP3   OH247835   0.522   5.831  13.307  0.1016 -0.0954 -0.2986
 8807TIP3    H147836   0.607   5.816  13.266  0.5619 -1.2824  1.0378
 8807TIP3    H247837   0.543   5.872  13.391 -0.6452 -0.2416 -0.0411
 8808TIP3   OH247838   5.961   1.378  13.072 -0.5803 -0.4836  0.0471
 8808TIP3    H147839   5.974   1.388  12.978 -0.2820  0.0559  0.1422
 8808TIP3    H247840   5.887   1.318  13.080 -0.8350 -0.2514 -0.5350
 8809TIP3   OH247841   3.003   4.098  12.466  0.0677 -0.2513  0.3973
 8809TIP3    H147842   3.053   4.032  12.419  0.5201  0.6289 -0.3500
 8809TIP3    H247843   3.040   4.098  12.554 -1.5718 -2.7538  1.1542
 8810TIP3   OH247844   3.878   6.067   5.627  0.3577  0.5148 -0.1293
 8810TIP3    H147845   3.961   6.048   5.671 -0.2085 -1.1562  0.2494
 8810TIP3    H247846   3.813   6.069   5.697 -0.0551  1.0426 -0.5204
 8811TIP3   OH247847   1.988   3.105   4.947  0.8739 -0.0279 -0.3040
 8811TIP3    H147848   2.015   3.140   5.032  0.0065  1.7757 -0.7259
 8811TIP3    H247849   2.044   3.029   4.933  0.1764 -1.0827  2.4301
 8812TIP3   OH247850   5.209   2.400   5.938 -0.2324 -0.2853 -0.1087
 8812TIP3    H147851   5.171   2.486   5.916  1.1581  0.5238  0.5860
 8812TIP3    H247852   5.181   2.343   5.866 -1.2206  0.7280 -0.5590
 8813TIP3   OH247853   2.107   6.276  10.701  0.5414  0.8986  0.0967
 8813TIP3    H147854   2.049   6.278  10.777  1.0236  1.8395  0.4461
 8813TIP3    H247855   2.124   6.183  10.686 -0.2015  0.6746  0.6430
 8814TIP3   OH247856   5.111   1.157  16.193 -0.3024  0.2303 -0.5147
 8814TIP3    H147857   5.078   1.074  16.228 -0.7213 -0.2056 -1.9184
 8814TIP3    H247858   5.140   1.206  16.271 -0.3403 -1.0939  0.3494
 8815TIP3   OH247859   0.383   3.602   4.004 -0.5168 -0.5471  0.0522
 8815TIP3    H147860   0.430   3.651   3.936 -0.3194  0.0605  0.6222
 8815TIP3    H247861   0.341   3.530   3.957  2.0287 -1.8548 -0.3095
 8816TIP3   OH247862   4.119   1.009  12.027  0.3002 -0.3480  0.0360
 8816TIP3    H147863   4.187   1.063  11.988  1.0032 -0.0344  1.6618
 8816TIP3    H247864   4.164   0.957  12.094 -0.7189 -1.5010 -0.1545
 8817TIP3   OH247865   0.129   4.601  11.732 -0.4602 -0.1512 -0.3280
 8817TIP3    H147866   0.133   4.601  11.637 -0.4687  0.5941 -0.3345
 8817TIP3    H247867   0.056   4.544  11.754 -0.8872  0.2197 -0.7871
 8818TIP3   OH247868   3.200   0.226   4.700  0.0413  0.6478 -0.8354
 8818TIP3    H147869   3.235   0.314   4.687 -0.2736  0.7992 -0.6587
 8818TIP3    H247870   3.177   0.197   4.611  1.9186  0.0011 -1.1167
 8819TIP3   OH247871   3.535   4.910   0.104  0.2669  0.2963  0.5078
 8819TIP3    H147872   3.593   4.881   0.034 -0.6823  1.1051 -0.6366
 8819TIP3    H247873   3.471   4.839   0.112  0.1102  0.4080  0.2480
 8820TIP3   OH247874   2.680   5.392  16.056  0.5243 -0.0687  0.3846
 8820TIP3    H147875   2.614   5.400  16.125 -1.1954 -1.0982 -1.1085
 8820TIP3    H247876   2.761   5.373  16.103 -0.8436 -1.9798  2.0836
 8821TIP3   OH247877   3.165   5.289   4.791  0.1955  0.0590 -0.0781
 8821TIP3    H147878   3.255   5.261   4.807  0.0851 -0.6914 -0.7085
 8821TIP3    H247879   3.114   5.246   4.860  0.0894 -0.9415 -0.7680
 8822TIP3   OH247880   5.419   6.114  14.776 -0.8019 -0.2793 -0.5007
 8822TIP3    H147881   5.465   6.197  14.763 -1.5704 -0.1064 -2.3174
 8822TIP3    H247882   5.414   6.103  14.871 -0.6583  1.7344 -0.2448
 8823TIP3   OH247883   1.300   4.439  13.748  0.4903  0.1973  0.3138
 8823TIP3    H147884   1.245   4.401  13.817 -0.2676 -0.5325 -0.6758
 8823TIP3    H247885   1.293   4.533  13.760  1.1604  0.0645  1.8464
 8824TIP3   OH247886   5.878   5.533   5.126 -0.2904  0.4757  0.0819
 8824TIP3    H147887   5.895   5.446   5.163  0.9868  1.0517  0.8701
 8824TIP3    H247888   5.849   5.586   5.201  1.6286  1.4644  0.1527
 8825TIP3   OH247889   5.244   3.940   4.875 -0.0714 -0.3437 -0.0346
 8825TIP3    H147890   5.336   3.966   4.882  0.6265 -2.4187 -1.1110
 8825TIP3    H247891   5.247   3.844   4.879 -2.2409 -0.4017  0.3737
 8826TIP3   OH247892   6.231   5.618   2.199  0.3136 -0.0867 -0.1554
 8826TIP3    H147893   6.249   5.709   2.174  0.7766 -0.3687 -0.8740
 8826TIP3    H247894   6.149   5.622   2.248  0.6117  0.7935  0.2876
 8827TIP3   OH247895   0.124   6.503   1.664 -0.2207 -0.1224  0.0531
 8827TIP3    H147896   0.213   6.469   1.674 -0.5503 -0.8938  0.3784
 8827TIP3    H247897   0.073   6.457   1.731 -1.3307 -1.3656 -1.5963
 8828TIP3   OH247898   6.288   6.542   0.638  0.0363 -0.4476 -0.2391
 8828TIP3    H147899   6.243   6.584   0.564 -0.5954 -1.5197 -0.4724
 8828TIP3    H247900   6.324   6.615   0.688 -1.6743  0.4315 -0.2276
 8829TIP3   OH247901   0.176   6.220   4.381  0.0911  0.1962 -0.4717
 8829TIP3    H147902   0.155   6.213   4.474 -1.7346  1.1100 -0.7895
 8829TIP3    H247903   0.095   6.195   4.336  1.2804 -1.2938 -1.8447
 8830TIP3   OH247904   1.212   1.371   2.753  0.9461 -0.0118  0.1821
 8830TIP3    H147905   1.216   1.466   2.764 -0.4683  0.0538  0.2074
 8830TIP3    H247906   1.269   1.336   2.821  1.3863  0.8100  0.2385
 8831TIP3   OH247907   6.480   3.409   3.753  0.5222 -0.2107 -0.9168
 8831TIP3    H147908   6.457   3.404   3.845 -0.2697 -0.7796 -1.1406
 8831TIP3    H247909   6.452   3.496   3.725 -0.7713 -0.6597 -1.0270
 8832TIP3   OH247910   2.705   1.233  15.583  0.6617 -0.8707  0.5898
 8832TIP3    H147911   2.724   1.157  15.638  0.4220 -0.6819  0.9432
 8832TIP3    H247912   2.689   1.197  15.496 -0.0112 -1.2845  0.8822
 8833TIP3   OH247913   3.005   4.767  15.718 -0.0291 -0.1833  0.4402
 8833TIP3    H147914   2.985   4.771  15.812 -1.4501 -0.8960  0.1788
 8833TIP3    H247915   2.921   4.781  15.675  0.9104  1.9728 -0.7710
 8834TIP3   OH247916   2.764   6.492   4.439 -0.2808 -0.0085 -0.0168
 8834TIP3    H147917   2.762   6.402   4.406 -0.9383 -0.3458  0.9220
 8834TIP3    H247918   2.828   6.537   4.383  1.0410 -1.3972  0.3561
 8835TIP3   OH247919   4.014   3.935  12.907  0.5080 -0.2388  0.0974
 8835TIP3    H147920   4.019   4.029  12.886  0.2704 -0.4356 -0.8849
 8835TIP3    H247921   3.928   3.908  12.875  0.5733 -0.7834  0.3927
 8836TIP3   OH247922   5.510   0.145   1.852 -0.3049  0.4601 -0.2566
 8836TIP3    H147923   5.560   0.065   1.866 -1.2015 -0.3113 -1.4118
 8836TIP3    H247924   5.560   0.213   1.898  0.4583 -0.7502  0.7260
 8837TIP3   OH247925   3.326   6.582   0.962 -0.1381 -0.3504 -0.0485
 8837TIP3    H147926   3.367   6.668   0.949  1.1807 -1.1448 -1.3606
 8837TIP3    H247927   3.353   6.555   1.050 -0.3894  0.4827  0.2870
 8838TIP3   OH247928   1.291   3.213  16.357 -0.7871 -0.2163 -0.4381
 8838TIP3    H147929   1.227   3.241  16.423  1.0094 -0.1825  1.3665
 8838TIP3    H247930   1.330   3.133  16.395  2.6428  1.6545  0.1905
 8839TIP3   OH247931   0.176   5.630  13.388 -0.5729 -0.0054 -0.5418
 8839TIP3    H147932   0.211   5.588  13.466  1.0171  1.2772 -0.5333
 8839TIP3    H247933   0.081   5.621  13.396 -0.3210 -2.2140  0.1927
 8840TIP3   OH247934   3.667   3.262   4.663  0.3111  0.2930  0.3157
 8840TIP3    H147935   3.673   3.344   4.613  2.3601 -0.1571 -0.2194
 8840TIP3    H247936   3.701   3.285   4.749  1.9233 -0.2567 -0.1692
 8841TIP3   OH247937   5.419   1.294   0.010 -0.0482 -0.1817 -0.5507
 8841TIP3    H147938   5.505   1.296  -0.030 -0.2671  0.1998 -1.0153
 8841TIP3    H247939   5.382   1.209  -0.015  1.0768 -1.3461  1.5657
 8842TIP3   OH247940   3.373   6.324  16.708 -0.2597  0.4444  0.1804
 8842TIP3    H147941   3.371   6.306  16.614  1.3076  1.4378 -0.0675
 8842TIP3    H247942   3.297   6.380  16.723 -0.5201  0.2870 -0.4917
 8843TIP3   OH247943   4.265   2.001   1.594  0.4471 -0.2814 -0.4387
 8843TIP3    H147944   4.218   2.057   1.655  1.2709 -0.7747  0.6485
 8843TIP3    H247945   4.291   1.924   1.645  1.3966 -0.5656 -1.3179
 8844TIP3   OH247946   4.579   4.162  12.796 -0.4107 -0.3071 -0.1386
 8844TIP3    H147947   4.489   4.138  12.778 -0.3552 -0.7278  0.1424
 8844TIP3    H247948   4.589   4.151  12.891 -0.1426 -0.0031 -0.1297
 8845TIP3   OH247949   4.276   6.365   0.104  0.6052  0.0204 -0.2177
 8845TIP3    H147950   4.202   6.329   0.154 -0.1436  0.9213 -0.6623
 8845TIP3    H247951   4.274   6.318   0.021  0.3642  0.2335 -0.3332
 8846TIP3   OH247952   1.438   6.191  15.855 -0.3005 -0.0135  0.4311
 8846TIP3    H147953   1.420   6.218  15.765 -0.9503  0.6459  0.7522
 8846TIP3    H247954   1.532   6.201  15.865 -0.4386  1.4644  0.3255
 8847TIP3   OH247955   3.317   0.801   0.178  0.5460 -0.1910 -0.2060
 8847TIP3    H147956   3.343   0.738   0.111  2.8688 -0.0580  0.5162
 8847TIP3    H247957   3.398   0.846   0.201 -0.4405  0.6200  1.7977
 8848TIP3   OH247958   1.941   4.124  14.186  0.1287  0.3285  0.1624
 8848TIP3    H147959   2.004   4.070  14.234  0.3176  0.0073 -0.4401
 8848TIP3    H247960   1.995   4.178  14.129 -0.1846 -0.5859 -1.0147
 8849TIP3   OH247961   2.336   6.305   5.006 -0.1075  0.3046 -0.5157
 8849TIP3    H147962   2.277   6.234   4.981  0.0083  0.2305 -0.5796
 8849TIP3    H247963   2.308   6.379   4.952  0.8131 -0.1474 -1.6245
 8850TIP3   OH247964   1.021   0.594  16.522 -0.5929 -0.0186 -0.1246
 8850TIP3    H147965   1.000   0.623  16.433  1.2315 -0.4335 -0.7146
 8850TIP3    H247966   0.996   0.667  16.578 -0.4914  0.7960 -1.1299
 8851TIP3   OH247967   4.008   6.163   0.878  0.1903 -0.0188  0.3005
 8851TIP3    H147968   4.091   6.149   0.924 -0.6506 -1.8921  1.2815
 8851TIP3    H247969   3.950   6.198   0.945 -0.2473 -0.1399 -0.0159
 8852TIP3   OH247970   6.772   4.228  15.614 -0.2159  0.3459 -0.7373
 8852TIP3    H147971   6.809   4.285  15.681 -2.4481  0.0651  0.8118
 8852TIP3    H247972   6.702   4.280  15.574 -0.9423 -0.5712 -0.6933
 8853TIP3   OH247973   4.699   2.746   1.804  0.4482 -0.0562 -0.4337
 8853TIP3    H147974   4.725   2.704   1.722  0.8872 -0.7013  0.0301
 8853TIP3    H247975   4.782   2.771   1.845  0.4478 -3.0485  1.5465
 8854TIP3   OH247976   5.923   3.307   3.967  0.1468 -0.5422 -0.1173
 8854TIP3    H147977   5.868   3.321   4.044 -0.4510 -0.1941 -0.6119
 8854TIP3    H247978   5.863   3.305   3.893  0.8113  0.0779 -0.6890
 8855TIP3   OH247979   1.695   2.878  12.976 -0.3728 -0.0718  0.1249
 8855TIP3    H147980   1.730   2.967  12.977  0.5246 -0.4203  1.6907
 8855TIP3    H247981   1.708   2.846  13.066  0.5389 -2.2531 -0.7356
 8856TIP3   OH247982   0.486   3.217  15.013  0.6634 -0.4687  0.2333
 8856TIP3    H147983   0.468   3.149  14.948 -0.0923  0.6917 -0.7805
 8856TIP3    H247984   0.404   3.264  15.022  0.7449 -0.6416  2.0793
 8857TIP3   OH247985   5.236   4.258   1.165  0.6511 -0.0007  0.3855
 8857TIP3    H147986   5.309   4.301   1.120  0.7442  0.4206  0.9379
 8857TIP3    H247987   5.276   4.217   1.242  0.1868  0.8162  1.0572
 8858TIP3   OH247988   5.498   4.396  14.675 -0.5510 -0.6848 -0.8144
 8858TIP3    H147989   5.579   4.446  14.681 -1.0225 -0.1541  1.4621
 8858TIP3    H247990   5.459   4.422  14.591  1.3281 -0.5080 -1.6366
 8859TIP3   OH247991   3.603   1.626  15.242 -0.0183 -0.4756  0.1012
 8859TIP3    H147992   3.544   1.577  15.186 -1.7059  0.6328  0.8780
 8859TIP3    H247993   3.619   1.708  15.195  0.7348 -0.6785 -0.0048
 8860TIP3   OH247994   0.134   4.587   4.049  0.0807 -0.2362 -0.6229
 8860TIP3    H147995   0.091   4.529   4.111  0.3312 -0.7610 -0.9405
 8860TIP3    H247996   0.088   4.572   3.966  1.5696 -1.5754 -1.2126
 8861TIP3   OH247997   4.685   2.749   5.977 -0.0831 -0.2663  0.5129
 8861TIP3    H147998   4.708   2.842   5.978  1.0927 -0.5533  0.1465
 8861TIP3    H247999   4.757   2.706   5.931 -1.2000 -1.2096 -0.4007
 8862TIP3   OH248000   1.011   6.535  10.832 -0.2329  0.2324  0.3185
 8862TIP3    H148001   1.038   6.449  10.864  0.3947  0.0937 -0.5518
 8862TIP3    H248002   0.917   6.526  10.815 -0.0388 -0.5044 -0.4269
 8863TIP3   OH248003   3.561   5.122  16.565  0.4354 -0.5680  0.0552
 8863TIP3    H148004   3.552   5.027  16.577  1.6729 -0.6574  0.3601
 8863TIP3    H248005   3.487   5.159  16.613  2.0394 -1.2116  3.1989
 8864TIP3   OH248006   4.301   3.383   6.125  0.3220  0.5811  0.4104
 8864TIP3    H148007   4.310   3.356   6.216 -1.7755 -1.2778  0.0911
 8864TIP3    H248008   4.309   3.302   6.075  0.0136  1.3925 -0.9792
 8865TIP3   OH248009   1.284   3.808  12.965 -0.4634 -0.3963  0.8409
 8865TIP3    H148010   1.199   3.770  12.942  0.8825 -2.0335 -1.5557
 8865TIP3    H248011   1.290   3.887  12.912 -0.1242 -0.7633  0.3229
 8866TIP3   OH248012   5.065   3.509  14.456 -0.0927 -0.0659  0.0020
 8866TIP3    H148013   5.079   3.585  14.400  0.7859 -0.7619 -0.7236
 8866TIP3    H248014   5.098   3.435  14.406 -1.6844 -1.0500  0.3564
 8867TIP3   OH248015   2.508   3.948  14.470 -0.2656  0.2771  0.2403
 8867TIP3    H148016   2.526   3.863  14.511  1.5487 -0.4190 -1.9005
 8867TIP3    H248017   2.594   3.982  14.446 -0.8448  3.4040  2.2600
 8868TIP3   OH248018   3.635   3.598   5.345  0.1639 -0.1872  1.1445
 8868TIP3    H148019   3.581   3.677   5.353  1.9704  0.9341  2.8899
 8868TIP3    H248020   3.584   3.530   5.389 -1.1886  0.1118  0.0646
 8869TIP3   OH248021   6.019   4.833   0.085 -0.0952  0.0404 -0.1075
 8869TIP3    H148022   5.938   4.882   0.096  0.9385  1.9128 -0.6760
 8869TIP3    H248023   5.993   4.753   0.041 -1.4951  1.0472 -1.1335
 8870TIP3   OH248024   0.515   4.931   4.661 -0.1091  0.1341  0.0416
 8870TIP3    H148025   0.553   4.999   4.718 -1.4234 -0.1563  1.2891
 8870TIP3    H248026   0.502   4.856   4.719 -2.0556  0.0430 -0.4972
 8871TIP3   OH248027   4.921   4.429   5.712 -0.4515 -0.0735 -0.4881
 8871TIP3    H148028   4.933   4.450   5.805  0.0506 -2.4469  0.0377
 8871TIP3    H248029   4.827   4.414   5.703 -0.3148 -1.3137  0.0040
 8872TIP3   OH248030   3.100   0.582   0.707 -0.0475  0.3649 -0.2163
 8872TIP3    H148031   3.040   0.515   0.739  1.0794 -0.7324 -0.3468
 8872TIP3    H248032   3.044   0.648   0.665 -1.0359 -1.3648 -1.6617
 8873TIP3   OH248033   3.520   6.415   5.512 -0.0865  0.2532 -0.5467
 8873TIP3    H148034   3.452   6.446   5.452 -0.2683  0.3527 -0.2880
 8873TIP3    H248035   3.579   6.365   5.456  0.3310  1.2518 -1.0077
 8874TIP3   OH248036   2.383   5.708  14.588  0.3122 -0.0242  1.0941
 8874TIP3    H148037   2.347   5.623  14.614  0.5297 -0.5974 -0.4545
 8874TIP3    H248038   2.314   5.747  14.534  1.8404 -0.9810 -1.6091
 8875TIP3   OH248039   6.222   1.565   0.617 -0.4758  0.6165  0.3235
 8875TIP3    H148040   6.275   1.510   0.559  0.1373  1.5103  0.0117
 8875TIP3    H248041   6.217   1.516   0.699 -2.9304 -1.5275 -1.0604
 8876TIP3   OH248042   0.282   6.109   0.713 -0.5002 -0.0298 -0.0776
 8876TIP3    H148043   0.232   6.171   0.765  0.6137  0.8386 -0.0427
 8876TIP3    H248044   0.215   6.050   0.677 -1.8114  2.4130 -1.8197
 8877TIP3   OH248045   5.053   4.069  14.831  0.8062  0.0804 -0.1541
 8877TIP3    H148046   5.095   4.150  14.862  0.5794  0.7807 -1.6264
 8877TIP3    H248047   5.123   4.020  14.790  0.8292 -0.2147  0.2396
 8878TIP3   OH248048   6.764   0.344  12.560 -0.0019 -0.1820  0.0497
 8878TIP3    H148049   6.859   0.348  12.552  0.0475 -0.6904  0.4446
 8878TIP3    H248050   6.744   0.399  12.636 -0.1765  1.4506 -1.1394
 8879TIP3   OH248051   1.910   5.987  14.780  0.1552  0.0482 -0.0915
 8879TIP3    H148052   1.982   5.966  14.720 -0.4349  0.5554 -0.9928
 8879TIP3    H248053   1.952   6.034  14.851  0.9641 -1.1163  0.2258
 8880TIP3   OH248054   4.551   3.579   0.292  0.0786  0.2995  0.2081
 8880TIP3    H148055   4.579   3.661   0.250  1.0488 -0.1864 -0.1016
 8880TIP3    H248056   4.608   3.572   0.369  0.0718 -0.1466  0.1705
 8881TIP3   OH248057   0.173   2.247   3.308  0.0364 -0.3992  0.5217
 8881TIP3    H148058   0.203   2.320   3.254  0.6490 -1.0533 -0.0534
 8881TIP3    H248059   0.163   2.283   3.396 -0.6721  0.6097  0.0335
 8882TIP3   OH248060   2.387   5.145   2.224 -0.2515  0.3196 -0.0714
 8882TIP3    H148061   2.420   5.154   2.313 -0.0400 -0.6996 -0.0399
 8882TIP3    H248062   2.307   5.094   2.233  0.4433 -0.8865 -0.5835
 8883TIP3   OH248063   4.452   4.091  12.501  0.1745 -0.0610 -0.3732
 8883TIP3    H148064   4.388   4.161  12.512 -1.0356 -1.0744 -0.7641
 8883TIP3    H248065   4.399   4.011  12.495  1.5205 -1.0081  0.0744
 8884TIP3   OH248066   6.180   5.831  15.517  0.6191  0.0165 -0.5041
 8884TIP3    H148067   6.177   5.850  15.611 -0.7590 -1.2970 -0.2618
 8884TIP3    H248068   6.145   5.909  15.475  1.4487  0.6987  0.0534
 8885TIP3   OH248069   4.715   1.538   5.024  0.1125 -0.5435  0.7993
 8885TIP3    H148070   4.701   1.630   5.047  1.6668  0.1244 -0.8061
 8885TIP3    H248071   4.661   1.525   4.946  0.7230 -0.7012  0.4046
 8886TIP3   OH248072   1.551   2.758   2.936  0.0276  0.7977 -0.5888
 8886TIP3    H148073   1.487   2.691   2.959  0.3973  0.5071 -0.3924
 8886TIP3    H248074   1.591   2.726   2.855 -0.1339  1.0231 -0.7598
 8887TIP3   OH248075   6.033   4.218  13.724 -0.4532  0.5215 -0.3372
 8887TIP3    H148076   6.124   4.188  13.715 -0.3129 -0.1954  2.8739
 8887TIP3    H248077   5.982   4.138  13.736 -1.2783  1.0432 -0.3504
 8888TIP3   OH248078   3.536   0.932   0.833  0.5922 -0.4228  0.1691
 8888TIP3    H148079   3.600   0.903   0.768  0.1122 -1.9606  0.3774
 8888TIP3    H248080   3.475   0.987   0.782  2.4959  1.7414  0.1317
 8889TIP3   OH248081   4.076   3.496  12.166 -0.0693 -0.0525  0.0608
 8889TIP3    H148082   4.097   3.589  12.155  0.5794  0.0785  2.2960
 8889TIP3    H248083   4.161   3.452  12.166 -0.3795 -0.6892 -1.0932
 8890TIP3   OH248084   3.939   1.603   2.646 -0.3506  0.4423 -0.1142
 8890TIP3    H148085   3.908   1.516   2.621 -0.9636  0.8302 -0.7156
 8890TIP3    H248086   4.018   1.586   2.697 -0.5802 -0.4775 -0.0486
 8891TIP3   OH248087   4.760   1.453  14.130 -0.4298  0.1389 -0.3212
 8891TIP3    H148088   4.749   1.547  14.144 -2.4197 -0.1073 -0.0231
 8891TIP3    H248089   4.806   1.446  14.047 -0.2805  1.3763 -0.3526
 8892TIP3   OH248090   1.089   4.905  16.439 -0.2637  0.2669  0.3547
 8892TIP3    H148091   0.997   4.878  16.449  0.6851 -2.2526  3.4161
 8892TIP3    H248092   1.103   4.967  16.510  0.5273  0.2630  0.2019
 8893TIP3   OH248093   5.568   1.185   6.088 -0.1258 -0.4447  0.2148
 8893TIP3    H148094   5.657   1.151   6.095 -0.1887 -0.6097  0.2292
 8893TIP3    H248095   5.568   1.265   6.142 -0.0171 -0.5061  0.3060
 8894TIP3   OH248096   0.819   5.465  11.545  0.3048 -0.2908  0.0633
 8894TIP3    H148097   0.885   5.451  11.477 -0.7783 -1.1369 -0.8371
 8894TIP3    H248098   0.736   5.442  11.502 -0.6801  1.7023  0.8817
 8895TIP3   OH248099   3.518   1.301  13.051  0.4200  0.3134 -0.4028
 8895TIP3    H148100   3.519   1.291  12.956 -0.7433  0.2422 -0.4161
 8895TIP3    H248101   3.425   1.301  13.074  0.7033 -0.0314  0.7703
 8896TIP3   OH248102   4.172   3.409   1.512 -0.5517 -0.3771 -0.0015
 8896TIP3    H148103   4.133   3.325   1.534 -1.6714  0.3915  1.0986
 8896TIP3    H248104   4.099   3.460   1.476 -0.4906  0.9434  1.6843
 8897TIP3   OH248105   2.518   0.230  10.215 -0.1362  0.3769 -0.2402
 8897TIP3    H148106   2.501   0.221  10.309  1.8902 -1.5785 -0.0073
 8897TIP3    H248107   2.442   0.188  10.173 -0.4809  0.1889  0.5638
 8898TIP3   OH248108   5.523   6.139  12.802 -0.2103 -0.0182 -0.1401
 8898TIP3    H148109   5.526   6.164  12.709  0.7254  0.3755 -0.0139
 8898TIP3    H248110   5.454   6.194  12.839  0.5691  1.0562 -0.2537
 8899TIP3   OH248111   4.997   6.185   5.053  0.2707  0.3005 -0.2840
 8899TIP3    H148112   5.031   6.109   5.101 -0.1553 -0.5471 -1.3171
 8899TIP3    H248113   4.947   6.234   5.118 -1.6860 -1.7041 -0.2292
 8900TIP3   OH248114   6.380   5.110  12.048 -0.4754 -0.5071 -0.2156
 8900TIP3    H148115   6.436   5.107  11.971 -0.7636 -1.0575 -0.3988
 8900TIP3    H248116   6.431   5.160  12.112  0.1280 -0.8066 -0.4606
 8901TIP3   OH248117   0.109   5.404   3.871 -0.1312  0.2045 -0.2085
 8901TIP3    H148118   0.203   5.386   3.865 -0.2567 -0.1417 -1.1447
 8901TIP3    H248119   0.100   5.495   3.843  0.0951  0.7175  1.3175
 8902TIP3   OH248120   4.901   4.256  11.325 -0.9843 -0.1611  0.4316
 8902TIP3    H148121   4.910   4.334  11.381  1.0753 -0.0629 -0.0093
 8902TIP3    H248122   4.960   4.192  11.364 -1.4163 -0.9422 -0.1897
 8903TIP3   OH248123   0.701   3.118   0.200 -0.2580 -0.1326 -0.1328
 8903TIP3    H148124   0.634   3.186   0.207  1.0659  1.1338  0.6104
 8903TIP3    H248125   0.685   3.061   0.275 -1.1286 -0.4488 -0.5419
 8904TIP3   OH248126   0.763   1.793  16.771 -0.4452 -0.2108  0.1132
 8904TIP3    H148127   0.742   1.846  16.848  0.7949  0.5932 -0.0859
 8904TIP3    H248128   0.702   1.824  16.704  0.4726  1.2066 -0.0922
 8905TIP3   OH248129   3.367   0.040  11.215 -0.7427 -0.2450 -0.3704
 8905TIP3    H148130   3.449   0.014  11.173  0.6380 -0.3256  2.2725
 8905TIP3    H248131   3.345   0.125  11.176  2.0378  1.0603  0.7709
 8906TIP3   OH248132   1.807   2.889  15.736  0.0603 -0.3673  0.0188
 8906TIP3    H148133   1.729   2.843  15.767 -0.7843  0.3505 -1.0076
 8906TIP3    H248134   1.834   2.841  15.658 -0.3478  0.3736 -0.5890
 8907TIP3   OH248135   5.943   2.961   0.860 -0.2301  0.2015 -0.0088
 8907TIP3    H148136   5.954   3.046   0.816 -0.2641 -0.2930 -0.9885
 8907TIP3    H248137   5.848   2.951   0.869 -0.3018 -0.5141 -1.4611
 8908TIP3   OH248138   1.623   3.564  16.083  0.0548 -0.5110  0.3700
 8908TIP3    H148139   1.612   3.625  16.011  0.3829  0.1594  0.8808
 8908TIP3    H248140   1.563   3.492  16.063  0.4031 -0.4985 -0.7352
 8909TIP3   OH248141   0.796   5.058  13.285  0.2964  0.2739  0.2459
 8909TIP3    H148142   0.716   5.051  13.338  0.1992 -1.5365 -0.1232
 8909TIP3    H248143   0.841   5.134  13.321 -0.1404 -0.4578  2.4406
 8910TIP3   OH248144   4.513   3.871   2.977  0.0387  0.0707  0.7708
 8910TIP3    H148145   4.469   3.932   3.036 -1.1297 -0.1226  0.1213
 8910TIP3    H248146   4.441   3.825   2.933  0.9006 -0.9092  0.3687
 8911TIP3   OH248147   4.861   4.449  12.834  0.2471  0.3223  0.2473
 8911TIP3    H148148   4.884   4.356  12.831 -0.0997  0.2486 -0.1690
 8911TIP3    H248149   4.914   4.484  12.905 -0.0704 -0.3234  0.8164
 8912TIP3   OH248150   3.804   6.273   1.042 -0.3197  0.4072 -0.0128
 8912TIP3    H148151   3.878   6.334   1.049  0.5453 -0.6968  0.8201
 8912TIP3    H248152   3.760   6.280   1.126  1.3422 -2.0079  1.1357
 8913TIP3   OH248153   2.003   5.744  16.573 -0.1738 -0.6224 -0.2324
 8913TIP3    H148154   2.000   5.651  16.596  1.9567 -0.1592  2.2879
 8913TIP3    H248155   2.057   5.783  16.642 -1.1775  2.5201 -1.1511
 8914TIP3   OH248156   6.518   4.885   3.982  0.0774  0.4914  0.3700
 8914TIP3    H148157   6.540   4.806   4.031 -0.6059  0.1448  0.1307
 8914TIP3    H248158   6.592   4.899   3.923  0.4835  0.3871  0.8588
 8915TIP3   OH248159   5.508   3.681   2.970 -0.3960 -0.0694  0.1782
 8915TIP3    H148160   5.485   3.628   2.894  0.5223 -1.8970  1.1298
 8915TIP3    H248161   5.434   3.670   3.030  0.0695 -0.8016  0.6297
 8916TIP3   OH248162   4.451   2.908   5.426  0.0366 -0.1567 -0.0018
 8916TIP3    H148163   4.540   2.901   5.393 -1.2193 -0.5263 -3.5427
 8916TIP3    H248164   4.445   2.842   5.495  2.1100 -1.0257 -0.6302
 8917TIP3   OH248165   5.297   3.144  16.134 -0.1648 -0.2836  0.2348
 8917TIP3    H148166   5.214   3.175  16.169 -0.5401 -0.2948 -0.6305
 8917TIP3    H248167   5.275   3.105  16.049  0.3015 -2.9262  1.2959
 8918TIP3   OH248168   2.917   5.755   4.755 -0.2935 -0.0360  0.3403
 8918TIP3    H148169   2.993   5.702   4.778  0.2847  1.5083  2.1278
 8918TIP3    H248170   2.861   5.753   4.832 -0.5091  1.5068  0.2494
 8919TIP3   OH248171   1.344   2.102   3.424  0.2916 -0.1328 -0.0253
 8919TIP3    H148172   1.310   2.182   3.464 -1.1068 -1.4773  1.5080
 8919TIP3    H248173   1.439   2.118   3.419  0.0221  1.6988  0.0684
 8920TIP3   OH248174   1.026   1.496   6.388  0.2814 -0.1181 -0.4391
 8920TIP3    H148175   0.962   1.555   6.428 -0.1643 -0.4358 -0.6845
 8920TIP3    H248176   1.098   1.554   6.363  0.0396  0.2592 -0.2746
 8921TIP3   OH248177   1.056   5.176  15.595 -0.2789 -0.3447 -0.2324
 8921TIP3    H148178   1.128   5.124  15.560 -0.0756 -0.1717 -0.0765
 8921TIP3    H248179   1.075   5.266  15.567  0.3668 -0.0612  1.0714
 8922TIP3   OH248180   3.501   2.726  16.860  0.4789 -1.0020  0.3526
 8922TIP3    H148181   3.585   2.709  16.817  1.4834 -1.6184  2.4741
 8922TIP3    H248182   3.446   2.651  16.836  1.3197 -1.7867  0.8189
 8923TIP3   OH248183   6.512   1.269  16.758  0.4991  0.4391 -0.2593
 8923TIP3    H148184   6.452   1.199  16.732  0.6125  0.4609 -0.5905
 8923TIP3    H248185   6.504   1.334  16.687  2.3330 -0.4316 -1.2842
 8924TIP3   OH248186   5.592   4.486  13.549 -0.3650 -0.0367  0.1283
 8924TIP3    H148187   5.571   4.431  13.624 -0.6378  1.1819  0.9516
 8924TIP3    H248188   5.686   4.502  13.556 -0.8323  2.2576  1.7238
 8925TIP3   OH248189   3.730   2.493  17.058  0.2801  0.0673 -0.2788
 8925TIP3    H148190   3.761   2.465  16.972  0.8738  1.0000 -0.3814
 8925TIP3    H248191   3.642   2.456  17.066  0.1457  0.1550 -1.3669
 8926TIP3   OH248192   4.151   4.243  15.762 -0.4599 -0.0974  0.2928
 8926TIP3    H148193   4.095   4.165  15.757 -1.3379  0.5342  0.1393
 8926TIP3    H248194   4.137   4.277  15.850 -1.6733  1.0442 -0.3201
 8927TIP3   OH248195   1.433   6.445   5.026 -0.1841  0.7175  0.6957
 8927TIP3    H148196   1.450   6.374   5.088  2.7781 -0.7304 -1.6780
 8927TIP3    H248197   1.510   6.501   5.032 -0.2727  1.0339 -1.0412
 8928TIP3   OH248198   4.598   4.376  12.453  0.3578 -0.2766 -0.2551
 8928TIP3    H148199   4.582   4.295  12.501  1.1354  0.2521  0.9244
 8928TIP3    H248200   4.582   4.445  12.517  0.7010  0.4574 -0.9589
 8929TIP3   OH248201   1.946   5.085   1.133 -0.4324 -0.5466  0.1438
 8929TIP3    H148202   1.977   5.009   1.182  1.9615  0.9136  0.9540
 8929TIP3    H248203   1.889   5.131   1.195 -0.2411 -0.5723  0.3370
 8930TIP3   OH248204   3.030   4.864  11.516 -0.3070  0.1911  0.0054
 8930TIP3    H148205   3.041   4.827  11.428 -2.5719  1.7268 -0.9744
 8930TIP3    H248206   3.009   4.789  11.571  1.9453 -0.9072 -0.5687
 8931TIP3   OH248207   2.235   2.013  13.618 -0.0537  0.1602  0.1472
 8931TIP3    H148208   2.299   2.002  13.548 -0.9886 -3.5848 -0.2102
 8931TIP3    H248209   2.288   2.026  13.697  1.0506  0.3995 -0.6201
 8932TIP3   OH248210   1.710   5.605  17.042  0.4001 -0.5492  0.5992
 8932TIP3    H148211   1.764   5.590  17.120  1.9834  0.5186 -0.2604
 8932TIP3    H248212   1.717   5.699  17.027  1.3149 -0.9568 -1.6887
 8933TIP3   OH248213   4.310   4.529   3.820  0.1419  0.1310  0.3541
 8933TIP3    H148214   4.314   4.481   3.903 -0.5741  0.2511  0.4591
 8933TIP3    H248215   4.272   4.614   3.843  2.1786  1.0904  0.3141
 8934TIP3   OH248216   4.034   1.509   4.136 -0.4159 -0.1628  0.0076
 8934TIP3    H148217   3.967   1.507   4.204 -1.9550  1.8883 -1.4098
 8934TIP3    H248218   3.985   1.519   4.054  1.5064 -0.9071 -1.2690
 8935TIP3   OH248219   3.891   0.594   1.257  0.2348  0.3345 -0.6549
 8935TIP3    H148220   3.841   0.619   1.335  2.0087 -0.9490  0.9473
 8935TIP3    H248221   3.826   0.590   1.187 -1.2349  2.4207  0.5419
 8936TIP3   OH248222   5.082   1.225   1.895 -0.1249  0.8244  0.5617
 8936TIP3    H148223   4.995   1.186   1.902  0.3564 -0.2316  0.7529
 8936TIP3    H248224   5.078   1.280   1.817 -0.0794 -1.5752 -1.1807
 8937TIP3   OH248225   2.016   3.552  12.957  0.2640  0.3289  0.9585
 8937TIP3    H148226   1.935   3.595  12.985  0.5515  1.1375  0.5495
 8937TIP3    H248227   1.989   3.493  12.887 -0.3655 -1.2649  2.4898
 8938TIP3   OH248228   4.377   4.824   5.576 -0.5446  0.2389  0.2189
 8938TIP3    H148229   4.336   4.743   5.606 -1.0373  0.4824  0.2058
 8938TIP3    H248230   4.316   4.859   5.511 -0.0613  0.3314 -0.1936
 8939TIP3   OH248231   6.451   2.651  15.092  0.0411  0.1320  0.3554
 8939TIP3    H148232   6.401   2.582  15.135 -0.4082  1.3856  1.9026
 8939TIP3    H248233   6.392   2.686  15.026 -0.6533  0.7010  1.2630
 8940TIP3   OH248234   3.352   1.549   5.805 -0.1623 -0.2677  0.2790
 8940TIP3    H148235   3.349   1.556   5.710  1.0511 -0.6679  0.1983
 8940TIP3    H248236   3.329   1.636   5.837  0.9086  0.2841 -0.4164
 8941TIP3   OH248237   0.646   6.059  11.347 -0.3748 -0.0407 -0.2887
 8941TIP3    H148238   0.669   6.146  11.380  1.7238 -0.7844  0.2975
 8941TIP3    H248239   0.722   6.032  11.296  0.0792 -2.5874  1.6512
 8942TIP3   OH248240   2.909   4.003   4.164 -0.2237  0.4310  0.4116
 8942TIP3    H148241   2.870   3.979   4.080 -0.1809  0.3590  0.4122
 8942TIP3    H248242   2.911   4.099   4.163  1.0165  0.4143 -0.2518
 8943TIP3   OH248243   0.977   6.610   2.322  0.2521  0.1543  0.2490
 8943TIP3    H148244   1.054   6.553   2.321 -1.1247 -1.8050  1.4007
 8943TIP3    H248245   0.994   6.672   2.393  0.4042 -0.8289  1.0845
 8944TIP3   OH248246   2.480   0.853  12.477 -0.1157  0.1861 -0.2317
 8944TIP3    H148247   2.466   0.762  12.504  2.5738 -0.2025  0.0262
 8944TIP3    H248248   2.498   0.899  12.558  0.7235  0.4901 -0.5836
 8945TIP3   OH248249   0.895   6.281   3.616  0.7256 -0.7959  0.1383
 8945TIP3    H148250   0.991   6.279   3.611  0.6558 -1.4799 -0.8555
 8945TIP3    H248251   0.866   6.271   3.526 -0.2665  0.9007  0.2499
 8946TIP3   OH248252   3.721   3.516   0.512  0.4648  0.6329 -0.0502
 8946TIP3    H148253   3.790   3.582   0.519  1.1287  0.1286 -1.5136
 8946TIP3    H248254   3.740   3.471   0.429 -1.5470  0.4084 -0.4085
 8947TIP3   OH248255   6.324   1.525   4.863 -0.0639  0.3157 -0.4282
 8947TIP3    H148256   6.315   1.493   4.773  0.8049 -2.0451  0.3034
 8947TIP3    H248257   6.417   1.544   4.873 -0.1106  0.2791  0.0815
 8948TIP3   OH248258   4.109   2.991   4.314  0.4514  0.4299 -0.5081
 8948TIP3    H148259   4.189   3.041   4.297  0.3467 -0.4744 -4.0680
 8948TIP3    H248260   4.039   3.043   4.274 -0.4930  0.3056  0.9482
 8949TIP3   OH248261   0.901   3.513   0.832 -0.1719  0.1026  0.6641
 8949TIP3    H148262   0.812   3.513   0.798 -0.2418 -0.9648  0.8163
 8949TIP3    H248263   0.891   3.532   0.925 -0.2076  0.3269  0.6152
 8950TIP3   OH248264   6.486   0.343  13.247 -0.1138 -0.1003 -0.2137
 8950TIP3    H148265   6.550   0.340  13.175  0.6379  0.3707  0.4238
 8950TIP3    H248266   6.479   0.437  13.267  1.2307 -0.3768  1.6905
 8951TIP3   OH248267   4.832   3.240   5.481  0.3205 -0.4452 -0.1022
 8951TIP3    H148268   4.772   3.230   5.407  1.2590 -0.6515 -0.8497
 8951TIP3    H248269   4.819   3.162   5.534  1.3048 -1.4154 -1.2717
 8952TIP3   OH248270   6.456   4.464   4.840  0.6098 -0.4949 -0.7575
 8952TIP3    H148271   6.460   4.376   4.879  0.9552 -0.2572 -0.2576
 8952TIP3    H248272   6.411   4.517   4.904 -0.0698 -0.4209 -1.2909
 8953TIP3   OH248273   5.651   1.395   5.267 -0.4152  0.0543 -0.4933
 8953TIP3    H148274   5.745   1.402   5.255 -0.7990  0.4390 -3.6461
 8953TIP3    H248275   5.641   1.347   5.349  2.4852  1.2996  0.6548
 8954TIP3   OH248276   3.892   4.755   1.345  0.4314 -0.5313 -0.5644
 8954TIP3    H148277   3.972   4.766   1.294 -0.8550  0.9771 -2.2967
 8954TIP3    H248278   3.894   4.663   1.373  2.5819 -0.6005 -0.8813
 8955TIP3   OH248279   4.873   2.445   6.708  0.0106 -0.6139 -0.0100
 8955TIP3    H148280   4.956   2.397   6.715  0.1716 -0.7000 -2.1878
 8955TIP3    H248281   4.815   2.400   6.770  1.0324 -1.7262  0.1705
 8956TIP3   OH248282   0.572   4.427  15.180 -0.0544  0.2265  0.1226
 8956TIP3    H148283   0.587   4.452  15.271 -2.2357  1.1237  0.2631
 8956TIP3    H248284   0.592   4.507  15.130  0.2797  0.0028 -0.1008
 8957TIP3   OH248285   5.143   1.779  11.675  0.1483  0.1814  0.1472
 8957TIP3    H148286   5.201   1.725  11.621 -0.4451  0.3021 -0.6174
 8957TIP3    H248287   5.067   1.795  11.619 -1.2356 -1.1115  1.6223
 8958TIP3   OH248288   1.971   0.227   0.455  0.0410 -0.2244  0.0671
 8958TIP3    H148289   1.935   0.141   0.433 -0.0696  0.2813 -1.7911
 8958TIP3    H248290   1.897   0.276   0.491  0.2113 -1.0366  1.5914
 8959TIP3   OH248291   4.098   6.449  14.214 -0.3722 -0.0074  0.1596
 8959TIP3    H148292   4.124   6.357  14.205  3.1412  1.1054 -2.2165
 8959TIP3    H248293   4.149   6.482  14.288 -2.3207 -0.1557  1.5990
 8960TIP3   OH248294   1.447   6.287  14.638 -0.4647 -0.1283  0.1080
 8960TIP3    H148295   1.412   6.213  14.688  0.9063 -0.7056  0.2416
 8960TIP3    H248296   1.536   6.298  14.671 -1.3064  2.9006  1.5335
 8961TIP3   OH248297   6.577   2.089  15.473  0.2587  0.0528  0.1529
 8961TIP3    H148298   6.666   2.109  15.502  0.8519 -0.9771 -0.8853
 8961TIP3    H248299   6.559   2.155  15.405  0.6425 -0.3810 -0.3781
 8962TIP3   OH248300   1.168   1.573  12.148 -0.3240 -0.1747  0.4543
 8962TIP3    H148301   1.238   1.530  12.197  1.0491 -0.4694 -1.6884
 8962TIP3    H248302   1.185   1.667  12.161 -0.5324 -0.2426  1.2831
 8963TIP3   OH248303   1.284   2.937   4.982  0.1486  0.1147 -0.4336
 8963TIP3    H148304   1.366   2.937   5.030  0.5103 -0.0607 -1.0469
 8963TIP3    H248305   1.284   3.019   4.933  1.2668 -1.1562 -2.6293
 8964TIP3   OH248306   1.773   0.984   1.987  0.2080 -0.0127 -0.5133
 8964TIP3    H148307   1.831   0.955   1.917 -0.2932  0.3002 -1.0646
 8964TIP3    H248308   1.825   1.047   2.037  1.0147 -1.2216  0.1837
 8965TIP3   OH248309   2.129   3.477  13.722 -0.2689 -0.0049 -0.5597
 8965TIP3    H148310   2.146   3.549  13.662  1.2297  1.5200  1.5938
 8965TIP3    H248311   2.186   3.494  13.797 -0.9322 -2.6702  0.6367
 8966TIP3   OH248312   5.192   1.946  13.864 -0.6578 -0.4943 -0.3894
 8966TIP3    H148313   5.178   2.021  13.806  3.4671  0.8122  0.1286
 8966TIP3    H248314   5.142   1.966  13.942 -1.7632  0.4120 -1.3157
 8967TIP3   OH248315   2.654   0.887  13.401  0.3255 -0.3588  0.4507
 8967TIP3    H148316   2.729   0.840  13.364  0.4983 -0.1686  0.5557
 8967TIP3    H248317   2.616   0.825  13.464  0.4424 -0.4244  0.4569
 8968TIP3   OH248318   1.551   4.932   3.325  0.3102  0.1790  0.3582
 8968TIP3    H148319   1.526   4.968   3.240 -1.1075 -0.6694  0.4005
 8968TIP3    H248320   1.472   4.941   3.379  0.6053 -1.0252  1.0133
 8969TIP3   OH248321   1.219   5.211   4.298 -0.0850 -0.1223 -0.1037
 8969TIP3    H148322   1.207   5.132   4.246  0.9112  0.6940 -1.5952
 8969TIP3    H248323   1.143   5.265   4.278 -1.1845 -0.9899  1.5281
 8970TIP3   OH248324   4.020   2.125   3.160 -0.3186  0.4077 -0.1326
 8970TIP3    H148325   4.025   2.035   3.193  0.7400  0.6279  0.3271
 8970TIP3    H248326   3.994   2.115   3.068 -0.3475 -0.3651 -0.0463
 8971TIP3   OH248327   3.822   2.641   5.606  0.2754 -0.1866  0.7873
 8971TIP3    H148328   3.745   2.698   5.601  0.3904 -0.0108  1.0176
 8971TIP3    H248329   3.823   2.611   5.697 -0.3724 -1.3694  0.4276
 8972TIP3   OH248330   6.555   4.472  11.354 -0.6038  0.2898 -0.6256
 8972TIP3    H148331   6.611   4.529  11.301  0.1807 -0.6485 -0.8338
 8972TIP3    H248332   6.538   4.522  11.433 -0.3424  1.0179 -1.0225
 8973TIP3   OH248333   4.135   6.776  13.019  0.4512 -0.5140  0.1282
 8973TIP3    H148334   4.054   6.755  12.972 -1.4591 -0.0659  3.0562
 8973TIP3    H248335   4.140   6.872  13.016  0.6347 -0.5166  0.2958
 8974TIP3   OH248336   4.042   4.992  11.966 -0.6046 -0.2678  0.1426
 8974TIP3    H148337   4.069   4.900  11.972  0.3187 -0.0020  0.1874
 8974TIP3    H248338   4.122   5.041  11.987 -0.7529  0.5551 -1.1721
 8975TIP3   OH248339   2.184   2.294  12.606 -0.9130  0.5106 -0.4391
 8975TIP3    H148340   2.127   2.281  12.530 -1.5970  0.2590  0.1076
 8975TIP3    H248341   2.157   2.378  12.642  0.0663  1.0781 -1.0287
 8976TIP3   OH248342   6.533   1.905   3.721  0.3510  0.6039  0.0358
 8976TIP3    H148343   6.528   1.844   3.647  0.1276 -0.8086  1.1959
 8976TIP3    H248344   6.617   1.884   3.763  1.0035  2.1624 -0.4406
 8977TIP3   OH248345   4.649   4.272   4.602  0.1045 -0.3463  0.5219
 8977TIP3    H148346   4.605   4.299   4.521  0.2894  0.1792  0.5982
 8977TIP3    H248347   4.625   4.180   4.612 -1.9901  0.2401  1.2233
 8978TIP3   OH248348   0.755   6.416  12.748 -0.9701  0.9795 -0.2518
 8978TIP3    H148349   0.839   6.444  12.712 -0.5476 -0.6517 -0.5937
 8978TIP3    H248350   0.691   6.440  12.681 -0.5041  0.3240 -0.9420
 8979TIP3   OH248351   5.058   5.266  13.154 -0.3727 -0.2773 -0.1358
 8979TIP3    H148352   5.006   5.206  13.101 -1.2084 -0.5606  0.9804
 8979TIP3    H248353   5.119   5.306  13.093 -2.3636  0.5736 -1.6262
 8980TIP3   OH248354   0.025   0.976   5.071 -0.2008  0.9300  0.1010
 8980TIP3    H148355   0.082   1.046   5.102 -1.5382  1.6664  0.9435
 8980TIP3    H248356   0.036   0.976   4.976  2.0271  0.3104  0.3355
 8981TIP3   OH248357   4.586   3.755   6.350  0.1742 -0.0103 -0.4035
 8981TIP3    H148358   4.622   3.830   6.301  0.1399  0.1451 -0.1935
 8981TIP3    H248359   4.658   3.727   6.407 -0.1457  0.5319  0.2831
 8982TIP3   OH248360   4.336   2.700   3.450 -0.1835 -0.2038 -0.2740
 8982TIP3    H148361   4.419   2.687   3.497  0.0142  0.0321 -0.5557
 8982TIP3    H248362   4.362   2.737   3.366 -0.5956  0.1168 -0.2606
 8983TIP3   OH248363   0.828   2.742  12.093 -0.1232 -0.6262  0.2083
 8983TIP3    H148364   0.917   2.731  12.128  1.0423  1.8805 -1.8596
 8983TIP3    H248365   0.790   2.813  12.144  0.2664  0.5421 -1.0995
 8984TIP3   OH248366   0.287   0.960  12.991 -0.3651 -0.1644 -0.2223
 8984TIP3    H148367   0.345   0.901  13.039 -1.4556  0.9077  2.5285
 8984TIP3    H248368   0.254   0.908  12.918  2.8712 -1.2352 -1.0060
 8985TIP3   OH248369   4.588   4.392  10.610  0.5889  0.2072  0.2374
 8985TIP3    H148370   4.493   4.381  10.604  0.1518  3.1877  1.2648
 8985TIP3    H248371   4.606   4.474  10.563  2.3312  1.0043  2.2395
 8986TIP3   OH248372   6.250   1.534  13.519 -0.6700  0.2115  0.2064
 8986TIP3    H148373   6.209   1.456  13.555  0.4896  0.3895  1.9633
 8986TIP3    H248374   6.220   1.537  13.428 -0.1186 -2.6839 -0.1228
 8987TIP3   OH248375   3.042   3.245   5.503  0.0027  0.3766 -0.1621
 8987TIP3    H148376   3.080   3.309   5.443  0.6146 -1.7742 -2.1135
 8987TIP3    H248377   2.963   3.214   5.458  1.3439 -2.4620 -0.7013
 8988TIP3   OH248378   3.887   3.053   3.038  0.3338  0.2202 -0.6310
 8988TIP3    H148379   3.862   3.139   3.003  2.3417  0.4941 -1.4709
 8988TIP3    H248380   3.914   3.003   2.960  2.0792 -0.1475  0.1939
 8989TIP3   OH248381   1.311   2.400  14.692  0.2299 -0.4720  0.0856
 8989TIP3    H148382   1.233   2.370  14.644  0.6709  0.1063 -0.9905
 8989TIP3    H248383   1.381   2.401  14.627 -0.0917  4.4699 -0.3771
 8990TIP3   OH248384   0.663   1.012   6.254  0.4345  0.2687  0.4010
 8990TIP3    H148385   0.732   0.949   6.235  0.1394  0.1241 -0.1989
 8990TIP3    H248386   0.604   0.966   6.314 -0.9539 -0.8239 -1.7375
 8991TIP3   OH248387   0.755   0.340   4.881 -0.7495  0.3379  0.3173
 8991TIP3    H148388   0.806   0.336   4.800  0.6016  1.0328  1.1039
 8991TIP3    H248389   0.749   0.434   4.900  0.5019  0.1043  1.9611
 8992TIP3   OH248390   3.531   1.007  15.755  0.0589  0.1612 -0.4103
 8992TIP3    H148391   3.524   1.101  15.769 -2.0413 -0.1327  0.7822
 8992TIP3    H248392   3.596   0.998  15.685 -0.0296  2.5054 -0.8448
 8993TIP3   OH248393   2.489   3.005  16.075 -0.0845 -0.2691  0.2203
 8993TIP3    H148394   2.543   3.008  16.154 -0.2010 -1.6988  0.3721
 8993TIP3    H248395   2.550   3.024  16.003  0.4117 -0.7718  0.4962
 8994TIP3   OH248396   2.678   3.131   2.910  0.3029 -0.2298 -0.5632
 8994TIP3    H148397   2.616   3.157   2.979  1.9752 -1.2365  1.3825
 8994TIP3    H248398   2.689   3.037   2.922  2.3666 -0.0314 -0.7362
 8995TIP3   OH248399   4.314   3.099   2.816  0.5712 -0.1106  0.1838
 8995TIP3    H148400   4.340   3.165   2.880  4.0081 -1.0427 -0.1282
 8995TIP3    H248401   4.321   3.016   2.863  0.8755 -0.6185 -0.7584
 8996TIP3   OH248402   6.175   0.310   1.087  0.0608  0.1672  0.6337
 8996TIP3    H148403   6.184   0.395   1.129 -0.7549  0.3816  0.4050
 8996TIP3    H248404   6.093   0.317   1.038 -1.0200 -1.3933  2.1394
 8997TIP3   OH248405   5.208   5.712  11.014  0.8553 -0.6087  0.1359
 8997TIP3    H148406   5.138   5.716  11.079  1.1446  3.3190  0.3153
 8997TIP3    H248407   5.289   5.712  11.066  1.0312 -1.4411 -0.1388
 8998TIP3   OH248408   1.938   3.093  13.349 -0.4660  0.5908 -0.5647
 8998TIP3    H148409   1.891   3.095  13.432  1.3710  1.4713  0.4933
 8998TIP3    H248410   1.875   3.127  13.285 -0.7954  3.1584  1.0605
 8999TIP3   OH248411   5.325   4.368  15.636  0.0258 -0.1532  0.0965
 8999TIP3    H148412   5.244   4.419  15.625  0.2598  0.5262  1.4684
 8999TIP3    H248413   5.304   4.282  15.599 -0.2906  1.0029 -2.4995
 9000TIP3   OH248414   6.087   4.979  16.903  0.8446 -0.4473  0.6311
 9000TIP3    H148415   6.016   4.961  16.842  1.4054  2.8510 -1.0779
 9000TIP3    H248416   6.167   4.956  16.855  1.1206 -1.1669  1.4136
 9001TIP3   OH248417   6.515   3.816   0.015 -0.3539  0.5364  0.1694
 9001TIP3    H148418   6.514   3.872  -0.063 -0.7991  0.1379 -0.1132
 9001TIP3    H248419   6.527   3.727  -0.019 -0.2541  0.3950  0.5745
 9002TIP3   OH248420   1.246   1.303  13.577  0.3116  0.2399 -0.3493
 9002TIP3    H148421   1.340   1.301  13.555  0.4672  1.8785  0.0621
 9002TIP3    H248422   1.240   1.260  13.662  0.9111  1.4347  0.3089
 9003TIP3   OH248423   3.737   5.756  13.125  0.4922 -0.6629 -0.4271
 9003TIP3    H148424   3.724   5.701  13.048 -1.7098 -0.1892 -0.4326
 9003TIP3    H248425   3.709   5.701  13.199  1.0208 -0.5469 -0.1382
 9004TIP3   OH248426   6.387   3.942  14.632 -0.2787  0.1102  0.3892
 9004TIP3    H148427   6.336   4.020  14.610 -1.2635 -0.4323  0.7373
 9004TIP3    H248428   6.435   3.922  14.551 -0.7695  0.5091 -0.0059
 9005TIP3   OH248429   5.957   1.361  15.468 -0.2959  0.1236  0.6935
 9005TIP3    H148430   5.915   1.321  15.391  0.4818  0.7108 -0.0405
 9005TIP3    H248431   5.967   1.453  15.445  0.8096  0.1136  1.1243
 9006TIP3   OH248432   1.111   2.006  15.559 -0.2928 -0.2117 -0.1871
 9006TIP3    H148433   1.163   1.928  15.580  1.4633  1.1381  0.5620
 9006TIP3    H248434   1.128   2.022  15.467  1.3819  0.7788  0.2878
 9007TIP3   OH248435   5.749   5.293  13.052 -0.3531 -0.1031  0.0440
 9007TIP3    H148436   5.672   5.344  13.026 -0.2520 -0.0540 -0.1595
 9007TIP3    H248437   5.823   5.352  13.038  0.0244 -1.1122 -2.5365
 9008TIP3   OH248438   3.797   3.429  11.447  0.3439  0.2436 -0.2286
 9008TIP3    H148439   3.808   3.467  11.534 -0.0479 -1.5870  0.6463
 9008TIP3    H248440   3.703   3.428  11.431  0.3863  0.1887 -0.4941
 9009TIP3   OH248441   5.454   1.994  14.617 -0.1667  0.1175 -0.6245
 9009TIP3    H148442   5.525   1.931  14.607 -1.7490 -1.7713 -0.0488
 9009TIP3    H248443   5.492   2.077  14.586  1.2540 -1.5042 -3.3587
 9010TIP3   OH248444   5.699   1.539  11.813  0.1263  0.5823 -0.2392
 9010TIP3    H148445   5.666   1.450  11.820  0.8440  0.1807 -1.9364
 9010TIP3    H248446   5.676   1.579  11.898 -0.4533 -1.0987  0.4210
 9011TIP3   OH248447   1.822   3.021  17.050  0.0010  0.1263 -0.1801
 9011TIP3    H148448   1.746   3.042  17.104  0.4724  1.7988 -0.1374
 9011TIP3    H248449   1.802   3.060  16.965  0.7357  0.4615 -0.2052
 9012TIP3   OH248450   6.507   0.059   6.083 -0.2106  0.3901  0.2782
 9012TIP3    H148451   6.485   0.137   6.031  0.2197  1.0243  1.0364
 9012TIP3    H248452   6.457   0.070   6.164  0.5747  0.3525  0.7709
 9013TIP3   OH248453   1.950   3.102   1.334 -0.4251 -0.0298 -0.1683
 9013TIP3    H148454   1.936   3.040   1.262  0.5860  0.7536 -1.0696
 9013TIP3    H248455   2.035   3.077   1.371 -0.5123  0.1407  0.1488
 9014TIP3   OH248456   1.121   5.927   0.124 -0.1659  0.1133  0.6567
 9014TIP3    H148457   1.121   6.013   0.167  0.3434  0.0127  0.8638
 9014TIP3    H248458   1.053   5.934   0.057 -0.6285  0.4375  1.1560
 9015TIP3   OH248459   4.776   1.742   2.745  0.0624 -0.0490 -0.3884
 9015TIP3    H148460   4.822   1.824   2.728  0.5252  0.0608  1.3445
 9015TIP3    H248461   4.840   1.687   2.790 -0.4294 -1.1526 -1.0238
 9016TIP3   OH248462   3.634   1.073   0.545  0.1569  0.4056  0.2013
 9016TIP3    H148463   3.550   1.088   0.502  0.1465  1.0524  0.4345
 9016TIP3    H248464   3.661   1.160   0.575  1.1233  0.2767 -0.2635
 9017TIP3   OH248465   4.613   1.847  13.285 -0.2215  0.1279 -0.6118
 9017TIP3    H148466   4.571   1.851  13.371  1.1379  1.4935  0.0098
 9017TIP3    H248467   4.607   1.755  13.260 -0.3690 -0.3477  1.0924
 9018TIP3   OH248468   0.996   1.554  15.736 -0.4173 -0.0474 -0.4306
 9018TIP3    H148469   0.975   1.507  15.656 -0.9876 -0.9262  0.2320
 9018TIP3    H248470   0.989   1.646  15.712  0.3166 -0.2915 -1.6289
 9019TIP3   OH248471   1.794   5.733  12.593 -0.3165  0.2634 -0.1704
 9019TIP3    H148472   1.814   5.695  12.508 -0.2782 -1.3686  0.5558
 9019TIP3    H248473   1.709   5.695  12.617 -1.4699  2.5145 -0.5153
 9020TIP3   OH248474   2.965   3.232  11.112 -0.0621  0.3415 -0.9838
 9020TIP3    H148475   2.966   3.137  11.113  0.8523  0.3560  0.7757
 9020TIP3    H248476   3.057   3.258  11.115 -0.3441  1.2853 -0.1425
 9021TIP3   OH248477   0.308   0.978  14.846 -0.2748  0.3430 -0.1999
 9021TIP3    H148478   0.236   0.915  14.854 -0.1019  0.0961 -0.5764
 9021TIP3    H248479   0.341   0.988  14.936 -0.8943  0.5970  0.0025
 9022TIP3   OH248480   5.730   4.049   5.031  0.1561 -0.5339 -0.7361
 9022TIP3    H148481   5.701   4.086   5.115 -0.3666  4.5868 -3.0137
 9022TIP3    H248482   5.822   4.028   5.045 -0.2311 -0.9484  1.4508
 9023TIP3   OH248483   5.572   4.162   4.574  0.2816  0.4284 -0.1785
 9023TIP3    H148484   5.599   4.244   4.532 -0.5296  0.0918 -1.4147
 9023TIP3    H248485   5.548   4.105   4.500  1.3457 -1.1020  0.6402
 9024TIP3   OH248486   5.001   5.848   2.457  0.0878  0.1433 -0.3921
 9024TIP3    H148487   4.986   5.900   2.536  0.5662  0.0509 -0.2387
 9024TIP3    H248488   5.037   5.766   2.490 -1.0762 -0.4655 -0.5988
 9025TIP3   OH248489   0.162   3.279  12.610 -0.0176 -0.0129 -0.2504
 9025TIP3    H148490   0.147   3.314  12.698 -2.0751 -0.7127 -0.2947
 9025TIP3    H248491   0.257   3.275  12.601  0.2135  1.5390  1.3471
 9026TIP3   OH248492   0.802   0.826   4.704  0.2447 -0.3605  0.2291
 9026TIP3    H148493   0.831   0.836   4.795  0.0305  1.3490  0.1221
 9026TIP3    H248494   0.853   0.891   4.655 -0.8122 -0.1608 -0.6199
 9027TIP3   OH248495   1.713   6.195  15.216 -0.0672 -0.0035 -0.0258
 9027TIP3    H148496   1.674   6.205  15.303  0.1396  1.8738 -0.1273
 9027TIP3    H248497   1.676   6.113  15.182 -1.3637  0.0592  1.1894
 9028TIP3   OH248498   2.287   3.398   0.231  0.0593  0.3158  0.8045
 9028TIP3    H148499   2.201   3.435   0.249  0.2656  1.4526 -0.5496
 9028TIP3    H248500   2.339   3.471   0.198  0.7210 -0.9717 -1.0737
 9029TIP3   OH248501   0.460   1.107  15.879  0.7632 -0.0263 -0.2860
 9029TIP3    H148502   0.367   1.110  15.898  0.8558  0.6568  0.0640
 9029TIP3    H248503   0.473   1.023  15.834 -0.0807  0.0669 -0.7011
 9030TIP3   OH248504   6.762   6.753   4.687 -0.0050 -0.6250 -0.2796
 9030TIP3    H148505   6.832   6.752   4.622  1.4446 -0.6996  1.2340
 9030TIP3    H248506   6.752   6.661   4.712  1.2320 -0.3192  1.4304
 9031TIP3   OH248507   1.733   6.084   4.319  0.0267 -0.2707 -0.0092
 9031TIP3    H148508   1.711   6.108   4.229  0.8974 -0.4612 -0.2842
 9031TIP3    H248509   1.792   6.153   4.348  1.7052 -1.4820 -0.4376
 9032TIP3   OH248510   6.767   1.435   3.507 -0.1760  0.3159 -1.4270
 9032TIP3    H148511   6.798   1.507   3.562 -1.5927 -0.4120  0.3823
 9032TIP3    H248512   6.842   1.375   3.502  1.2013  2.1351 -3.4120
 9033TIP3   OH248513   3.816   1.333   2.597 -0.4821  0.5908 -0.3492
 9033TIP3    H148514   3.752   1.341   2.667 -2.8682  2.2175 -2.5832
 9033TIP3    H248515   3.844   1.242   2.599 -1.7561  0.2220  1.6390
 9034TIP3   OH248516   5.054   3.910   1.012  0.4301 -0.1480  0.4420
 9034TIP3    H148517   5.031   3.866   1.093  0.4431  2.7695  2.1086
 9034TIP3    H248518   4.971   3.942   0.977  0.5790 -0.2054  0.0273
 9035TIP3   OH248519   6.668   0.569  12.723 -0.9204  0.3658 -0.4396
 9035TIP3    H148520   6.635   0.643  12.774  1.4458  1.9670 -1.1452
 9035TIP3    H248521   6.636   0.585  12.634 -1.9691 -0.4671 -0.2167
 9036TIP3   OH248522   5.629   6.756  13.774 -0.1144  0.3049 -0.0676
 9036TIP3    H148523   5.696   6.692  13.750  0.4585  0.0151  2.1579
 9036TIP3    H248524   5.620   6.812  13.697  1.0989 -0.9975 -1.1851
 9037TIP3   OH248525   6.415   5.754  15.967  0.1372  0.1556  0.1430
 9037TIP3    H148526   6.389   5.785  16.054 -2.8142  3.7157 -1.8684
 9037TIP3    H248527   6.490   5.809  15.943  0.1406  0.0523 -0.0868
 9038TIP3   OH248528   4.278   1.754   4.538 -0.0425 -0.4656  0.0251
 9038TIP3    H148529   4.307   1.667   4.566  1.4302 -0.3392 -1.0599
 9038TIP3    H248530   4.348   1.813   4.566  0.0698  0.0469 -1.3235
 9039TIP3   OH248531   2.094   0.434   0.126 -0.4764  0.2732 -0.2905
 9039TIP3    H148532   2.020   0.482   0.164  0.0204  0.8498 -0.0491
 9039TIP3    H248533   2.127   0.491   0.057 -0.4880 -0.1529 -0.6562
 9040TIP3   OH248534   5.991   0.768   1.186 -0.1439  0.2071  0.2957
 9040TIP3    H148535   5.925   0.825   1.225 -0.3556  0.5200 -0.5165
 9040TIP3    H248536   5.989   0.689   1.240 -0.0524  0.8417  1.2568
 9041TIP3   OH248537   1.337   4.819   3.862  0.4453 -0.0091 -0.6663
 9041TIP3    H148538   1.421   4.775   3.851  0.7752  0.3485  0.3509
 9041TIP3    H248539   1.278   4.750   3.893  0.2864 -0.3306 -1.6883
 9042TIP3   OH248540   5.915   2.897   2.385 -0.5324 -0.1344  0.5215
 9042TIP3    H148541   5.950   2.900   2.474 -1.4139  0.0990  0.8649
 9042TIP3    H248542   5.840   2.837   2.390 -0.6661 -0.0227 -0.0347
 9043TIP3   OH248543   0.768   3.772  16.829 -0.1781 -0.0116  0.0040
 9043TIP3    H148544   0.809   3.695  16.867  2.1046  0.8480 -0.6599
 9043TIP3    H248545   0.705   3.738  16.766  0.0120 -1.3330  0.5189
 9044TIP3   OH248546   0.605   1.637  10.857 -0.2075  0.0655  0.1920
 9044TIP3    H148547   0.638   1.725  10.839 -1.5999  0.7537  0.9891
 9044TIP3    H248548   0.510   1.645  10.854 -0.3625 -1.2433  1.0532
 9045TIP3   OH248549   6.288   5.682   1.675 -0.3620  0.2999 -0.3915
 9045TIP3    H148550   6.315   5.623   1.606  0.7491 -0.3481  0.5790
 9045TIP3    H248551   6.320   5.641   1.756 -0.4968  1.6849  0.3819
 9046TIP3   OH248552   2.640   1.829  16.756  0.0502 -0.0369  0.1303
 9046TIP3    H148553   2.623   1.746  16.799  0.6585 -0.0702  0.3090
 9046TIP3    H248554   2.577   1.890  16.796  0.6215 -0.0632  1.0754
 9047TIP3   OH248555   4.349   0.652  10.513  0.3357 -0.4203  0.3544
 9047TIP3    H148556   4.434   0.618  10.487  0.4323  0.0879 -0.0055
 9047TIP3    H248557   4.287   0.584  10.487  0.7113 -1.1751  1.4196
 9048TIP3   OH248558   2.031   3.273  14.862 -0.1054  0.9222 -0.3082
 9048TIP3    H148559   2.070   3.247  14.946  2.2175  1.9899 -1.0127
 9048TIP3    H248560   1.974   3.347  14.883  0.8534  1.5009  0.2573
 9049TIP3   OH248561   4.698   2.979   0.732 -0.5960 -0.1719 -0.0940
 9049TIP3    H148562   4.703   3.051   0.795  1.2628 -1.2907  1.1130
 9049TIP3    H248563   4.785   2.975   0.693 -1.1633 -0.7348 -1.3103
 9050TIP3   OH248564   1.449   3.265   4.286  0.9229 -0.4863  0.2284
 9050TIP3    H148565   1.475   3.357   4.296 -0.2892 -0.2389  1.3388
 9050TIP3    H248566   1.448   3.250   4.192  2.6816  0.1870  0.0946
 9051TIP3   OH248567   0.870   5.926   1.159  0.1803 -0.4616 -0.3222
 9051TIP3    H148568   0.799   5.873   1.193 -0.0344  1.1134  1.8127
 9051TIP3    H248569   0.945   5.867   1.154 -0.1582 -1.0565  1.5980
 9052TIP3   OH248570   1.781   5.776  15.633  0.5630 -0.2268  0.0176
 9052TIP3    H148571   1.832   5.749  15.556 -2.5000 -2.6581 -1.2907
 9052TIP3    H248572   1.773   5.696  15.685  0.1022  0.7107  1.3922
 9053TIP3   OH248573   0.204   6.582  15.560 -0.2820 -1.0319  0.7084
 9053TIP3    H148574   0.280   6.558  15.613 -0.2100 -0.5021  0.8437
 9053TIP3    H248575   0.235   6.573  15.469  0.3720  0.5226  0.7613
 9054TIP3   OH248576   3.698   6.740  11.555  0.2967 -0.3916 -0.2961
 9054TIP3    H148577   3.684   6.770  11.645 -0.1304  0.9460 -0.7946
 9054TIP3    H248578   3.643   6.797  11.502  1.1535 -0.6446 -1.4799
 9055TIP3   OH248579   4.059   6.291   0.240  0.1426  0.7071  0.0685
 9055TIP3    H148580   4.056   6.199   0.269 -1.0136  1.3718  2.1861
 9055TIP3    H248581   4.036   6.341   0.318 -0.7910  2.7230 -1.4525
 9056TIP3   OH248582   6.566   1.622   3.684  0.3615  0.0417 -0.0839
 9056TIP3    H148583   6.484   1.596   3.643  0.9798 -0.7511 -0.8522
 9056TIP3    H248584   6.613   1.539   3.699 -0.8344  0.0248  4.4415
 9057TIP3   OH248585   0.100   1.102   0.777  0.2110  0.3744 -0.1839
 9057TIP3    H148586   0.118   1.012   0.803 -0.3831 -0.0213 -1.1190
 9057TIP3    H248587   0.151   1.114   0.697 -1.8066 -0.0250 -1.5818
 9058TIP3   OH248588   1.479   2.507   0.581 -0.2880  0.1552  0.2265
 9058TIP3    H148589   1.487   2.598   0.556 -3.0097  0.4269  0.1102
 9058TIP3    H248590   1.419   2.470   0.516  0.1769 -1.5178  0.7275
 9059TIP3   OH248591   5.048   2.818   0.932 -0.1248 -0.8360 -0.4129
 9059TIP3    H148592   5.070   2.791   0.843  1.7776  2.0754 -0.9089
 9059TIP3    H248593   5.036   2.913   0.926 -0.7502 -0.7004  2.2865
 9060TIP3   OH248594   0.070   6.245  14.732 -0.2283 -0.1979  0.3109
 9060TIP3    H148595  -0.004   6.214  14.680 -0.4519 -0.0219  0.5225
 9060TIP3    H248596   0.119   6.303  14.674 -0.6759  0.2801  0.4135
 9061TIP3   OH248597   3.886   0.698  12.548 -0.8169 -0.0352 -0.3126
 9061TIP3    H148598   3.972   0.726  12.580 -1.2036  1.2342 -0.3201
 9061TIP3    H248599   3.878   0.607  12.576 -1.0315  0.9123  3.0433
 9062TIP3   OH248600   2.884   4.337   6.067  0.5263 -0.2826  0.1127
 9062TIP3    H148601   2.931   4.420   6.066  1.2720 -0.6954  0.3690
 9062TIP3    H248602   2.802   4.356   6.112  0.0612  0.6417 -1.1176
 9063TIP3   OH248603   0.099   3.360  13.112 -0.1662 -0.7907 -0.6478
 9063TIP3    H148604   0.119   3.267  13.122 -0.2907 -0.8271 -0.7318
 9063TIP3    H248605   0.177   3.396  13.070  0.4781 -0.5807  0.7030
 9064TIP3   OH248606   0.362   6.367  15.191 -0.3204  0.1102  0.3530
 9064TIP3    H148607   0.388   6.350  15.100 -2.1778 -2.5258  0.2702
 9064TIP3    H248608   0.422   6.315  15.244 -1.4797 -1.1595  0.4450
 9065TIP3   OH248609   1.987   0.020  15.456  0.1248 -0.2514 -0.1538
 9065TIP3    H148610   1.913   0.050  15.508 -0.4364  0.5716 -1.4206
 9065TIP3    H248611   1.959   0.030  15.365  1.5488 -0.5244 -0.6372
 9066TIP3   OH248612   4.414   2.031   3.750 -0.2149  0.0774 -0.0213
 9066TIP3    H148613   4.328   2.037   3.792 -0.1203  1.6768 -0.0288
 9066TIP3    H248614   4.411   2.094   3.678  0.9688  0.1786 -0.0050
 9067TIP3   OH248615   0.430   4.431  14.233 -0.3992 -0.1792  0.3818
 9067TIP3    H148616   0.444   4.471  14.147  2.4207 -0.0674  0.8519
 9067TIP3    H248617   0.453   4.500  14.296 -0.1385 -0.9915  1.2000
 9068TIP3   OH248618   2.510   2.423   3.923 -0.6634 -0.5434 -0.0006
 9068TIP3    H148619   2.577   2.410   3.855 -0.5132 -0.0866  0.0574
 9068TIP3    H248620   2.553   2.478   3.988 -1.7746  1.5495 -0.9933
 9069TIP3   OH248621   4.117   6.177  13.724 -0.0413  0.1505  0.4160
 9069TIP3    H148622   4.078   6.122  13.792 -0.2934 -0.0195  0.1338
 9069TIP3    H248623   4.091   6.266  13.747 -2.4251 -0.1644 -0.9906
 9070TIP3   OH248624   3.232   2.017   0.635  0.5333 -0.6899 -0.2837
 9070TIP3    H148625   3.159   1.981   0.685  0.6728 -1.6036 -0.7279
 9070TIP3    H248626   3.310   1.996   0.686  0.3867  1.6677  0.9905
 9071TIP3   OH248627   6.671   0.648  16.461  0.0722  0.0464  0.6581
 9071TIP3    H148628   6.743   0.709  16.479  1.2706 -1.2206  0.2995
 9071TIP3    H248629   6.620   0.691  16.393  1.8969 -0.0816 -0.8446
 9072TIP3   OH248630   1.322   2.762   3.709 -0.3112 -0.3671 -0.0761
 9072TIP3    H148631   1.391   2.824   3.733 -1.3983  1.6042 -1.8962
 9072TIP3    H248632   1.263   2.762   3.784 -0.1299  0.5740  0.0741
 9073TIP3   OH248633   0.714   0.386   2.223 -0.3194  0.2665 -0.4717
 9073TIP3    H148634   0.670   0.458   2.178 -0.0183  0.3381 -0.6510
 9073TIP3    H248635   0.650   0.316   2.224 -0.4647  0.3959 -0.6700
 9074TIP3   OH248636   1.859   1.585  12.628  0.1365  0.2428 -0.8239
 9074TIP3    H148637   1.942   1.539  12.619  0.0176  0.1115 -1.2351
 9074TIP3    H248638   1.883   1.676  12.645  0.3692  0.0770 -0.2581
 9075TIP3   OH248639   2.460   6.733  16.827 -0.3533  0.5728  0.4922
 9075TIP3    H148640   2.412   6.764  16.750  0.3761  0.8315  0.1419
 9075TIP3    H248641   2.410   6.656  16.856  0.6311 -0.8968 -1.5811
 9076TIP3   OH248642   3.966   2.954   1.828  0.0372 -0.3941  0.4601
 9076TIP3    H148643   3.970   2.888   1.897 -3.5389  0.7027  1.8411
 9076TIP3    H248644   3.992   3.035   1.871 -1.1706  0.1011  0.2776
 9077TIP3   OH248645   5.673   4.940   2.084 -0.2470  0.3637 -0.0190
 9077TIP3    H148646   5.661   5.015   2.143 -1.7542 -0.3625  0.6327
 9077TIP3    H248647   5.602   4.949   2.020 -0.7012 -0.7530  0.3267
 9078TIP3   OH248648   5.229   4.945  11.518  0.1670 -0.0402  0.0411
 9078TIP3    H148649   5.153   4.985  11.474 -0.2158 -1.0776 -0.2515
 9078TIP3    H248650   5.238   4.995  11.599 -1.0261 -0.0908  0.2197
 9079TIP3   OH248651   2.717   2.735  14.707  0.4977 -0.1717  0.4322
 9079TIP3    H148652   2.777   2.735  14.782 -0.1798  0.3450  0.9793
 9079TIP3    H248653   2.675   2.649  14.710 -1.0298  0.5834  1.8775
 9080TIP3   OH248654   4.904   5.389  13.575 -0.2602  0.0159  0.0609
 9080TIP3    H148655   4.964   5.402  13.501 -0.8018  0.6327 -0.2802
 9080TIP3    H248656   4.817   5.385  13.534 -0.3879 -1.6690  0.4697
 9081TIP3   OH248657   0.928   3.463   0.537 -0.0706 -0.0728 -0.0526
 9081TIP3    H148658   0.878   3.526   0.589 -2.6043 -0.5433 -1.7890
 9081TIP3    H248659   0.933   3.385   0.592 -1.4768 -0.0908  0.0804
 9082TIP3   OH248660   2.001   1.153  11.443 -0.5339 -0.5802 -0.1232
 9082TIP3    H148661   2.000   1.226  11.381  3.6630  1.8177  2.4506
 9082TIP3    H248662   2.057   1.087  11.401  2.1468  0.9595  0.9512
 9083TIP3   OH248663   3.343   6.319  11.445  0.3141 -0.0171 -0.4282
 9083TIP3    H148664   3.328   6.224  11.440 -0.3878  0.2036 -2.6077
 9083TIP3    H248665   3.262   6.358  11.414  1.0269  1.2939 -0.6576
 9084TIP3   OH248666   4.230   2.619   2.373 -0.4682 -0.6378  0.6871
 9084TIP3    H148667   4.247   2.534   2.414 -0.3964 -0.4364  1.0813
 9084TIP3    H248668   4.261   2.610   2.283  0.7277 -0.6125  1.0878
 9085TIP3   OH248669   0.847   5.937   5.451 -0.3901  0.1193 -0.8152
 9085TIP3    H148670   0.840   5.846   5.479 -1.0472  0.2234 -0.6348
 9085TIP3    H248671   0.935   5.944   5.413 -0.7256 -0.8557 -1.7914
 9086TIP3   OH248672   1.472   5.481  10.845  0.0806 -0.0132 -0.3558
 9086TIP3    H148673   1.402   5.417  10.834 -0.2971  0.3143  0.1351
 9086TIP3    H248674   1.548   5.428  10.869 -0.3059 -0.2511  0.3515
 9087TIP3   OH248675   6.328   2.067   3.487 -0.1347  0.1707  0.3731
 9087TIP3    H148676   6.258   2.032   3.432 -0.9571 -0.3209  1.7056
 9087TIP3    H248677   6.384   1.992   3.506 -1.2787 -0.2218  2.3081
 9088TIP3   OH248678   6.200   3.022  16.911  0.0462  0.5911 -0.2506
 9088TIP3    H148679   6.258   2.956  16.950  0.0577  0.3958 -0.5950
 9088TIP3    H248680   6.182   3.083  16.982 -0.0032  0.1871  0.0897
 9089TIP3   OH248681   0.836   4.084  14.556 -0.2482 -0.2005 -0.2970
 9089TIP3    H148682   0.772   4.108  14.624 -0.5982 -0.0842 -0.6675
 9089TIP3    H248683   0.910   4.142  14.572 -0.4356  0.0067 -0.1705
 9090TIP3   OH248684   5.671   3.470   5.534 -0.3955  0.8073 -0.3324
 9090TIP3    H148685   5.665   3.502   5.624  0.3789  0.6485 -0.2192
 9090TIP3    H248686   5.651   3.546   5.480 -1.7449  0.6954 -0.0252
 9091TIP3   OH248687   1.324   3.389  12.370 -0.7623 -0.2278 -0.0232
 9091TIP3    H148688   1.340   3.392  12.275  1.3786 -0.8027  0.2854
 9091TIP3    H248689   1.269   3.313  12.383 -0.4618 -0.5714 -0.7370
 9092TIP3   OH248690   5.063   2.786   4.884  0.1550  0.3498 -0.6411
 9092TIP3    H148691   5.039   2.849   4.815 -0.8295  0.2499 -0.4062
 9092TIP3    H248692   5.146   2.817   4.918  0.4207  0.6679 -1.5618
 9093TIP3   OH248693   2.500   6.493   3.097 -0.0621  0.0447  0.0641
 9093TIP3    H148694   2.542   6.438   3.163  1.4377  1.9219  0.7315
 9093TIP3    H248695   2.551   6.574   3.097 -0.4700  0.3712 -2.9040
 9094TIP3   OH248696   5.890   3.732  14.861 -0.2752 -0.3305 -0.0974
 9094TIP3    H148697   5.875   3.638  14.850  1.6643 -1.0163  2.5557
 9094TIP3    H248698   5.961   3.753  14.801  0.0278 -0.8057  0.0889
 9095TIP3   OH248699   3.826   2.308  15.748  0.0960 -0.2847  0.3063
 9095TIP3    H148700   3.915   2.337  15.767  0.2114 -0.0193 -0.6225
 9095TIP3    H248701   3.778   2.326  15.829  0.8957 -0.4893  0.8361
 9096TIP3   OH248702   1.722   4.932   2.995  0.1871 -0.5951 -0.4575
 9096TIP3    H148703   1.743   5.023   3.016  1.0307 -0.7806 -0.4914
 9096TIP3    H248704   1.805   4.886   3.004 -0.0431 -1.1960 -1.3770
 9097TIP3   OH248705   5.453   6.652   5.329 -0.0841  0.8002  0.6805
 9097TIP3    H148706   5.404   6.703   5.266 -0.0381 -1.8880 -1.6384
 9097TIP3    H248707   5.390   6.631   5.398 -0.5656  2.3961  0.7227
 9098TIP3   OH248708   2.483   3.927  11.682 -0.2549 -0.2140  0.2546
 9098TIP3    H148709   2.498   3.942  11.775  1.8704 -0.2786 -0.0688
 9098TIP3    H248710   2.514   4.006  11.638  0.9670 -1.1478 -0.5883
 9099TIP3   OH248711   4.185   1.559  16.985  0.4451  0.1871  0.1904
 9099TIP3    H148712   4.163   1.612  17.062  0.5558 -0.3220  0.5809
 9099TIP3    H248713   4.240   1.489  17.020  1.8454  0.8714 -0.6143
 9100TIP3   OH248714   1.960   5.419   2.516  0.1854 -0.0415  0.0006
 9100TIP3    H148715   1.934   5.456   2.431  0.0900 -0.0288  0.0351
 9100TIP3    H248716   1.942   5.490   2.579  0.2552 -0.0516  0.0308
 9101TIP3   OH248717   3.978   0.947  16.489  0.3465  0.3047 -0.1316
 9101TIP3    H148718   3.949   0.888  16.559 -0.8485  0.6816 -0.3080
 9101TIP3    H248719   3.973   1.034  16.528 -1.1254  0.5988 -0.9318
 9102TIP3   OH248720   3.326   6.571  12.048 -0.4807  0.0926  0.2968
 9102TIP3    H148721   3.333   6.655  12.004 -1.1856  0.4353  0.8242
 9102TIP3    H248722   3.401   6.569  12.108  0.5004 -0.3896 -0.9207
 9103TIP3   OH248723   6.348   2.080   2.604  0.2332 -0.1832 -0.2009
 9103TIP3    H148724   6.275   2.021   2.623 -0.1131  0.9637  2.2638
 9103TIP3    H248725   6.421   2.021   2.584 -0.6164 -1.4002  0.1948
 9104TIP3   OH248726   6.391   1.404   0.162 -0.5756  0.1125 -0.3905
 9104TIP3    H148727   6.375   1.315   0.131 -0.4030  0.2194 -0.7930
 9104TIP3    H248728   6.329   1.458   0.113  0.2038  0.3757 -1.1053
 9105TIP3   OH248729   0.891   1.676   3.605  0.3742  0.0473 -0.8259
 9105TIP3    H148730   0.820   1.649   3.547 -0.1469 -0.3832  0.0113
 9105TIP3    H248731   0.966   1.621   3.578 -0.5680 -2.0187  0.6124
 9106TIP3   OH248732   3.457   5.721  15.283  0.1694 -0.3397  0.4023
 9106TIP3    H148733   3.452   5.625  15.281 -1.1645 -0.3343  2.5873
 9106TIP3    H248734   3.401   5.747  15.356  1.6868  2.0413  0.7589
 9107TIP3   OH248735   2.721   0.287  15.001  0.1479 -0.0411  0.0377
 9107TIP3    H148736   2.808   0.265  15.035  0.6650 -0.1172 -1.3315
 9107TIP3    H248737   2.665   0.215  15.030  0.4070  0.3016  1.4317
 9108TIP3   OH248738   0.449   1.553   1.106 -0.5190  0.0858  0.7285
 9108TIP3    H148739   0.510   1.621   1.079 -0.6188  0.2792  0.9800
 9108TIP3    H248740   0.425   1.507   1.025 -0.5373  0.4232  0.5444
 9109TIP3   OH248741   0.773   5.286  15.071  0.6327  0.4061 -0.0884
 9109TIP3    H148742   0.839   5.282  15.141  0.1438  0.1790  0.3675
 9109TIP3    H248743   0.710   5.218  15.095  0.3040  0.5393 -0.5926
 9110TIP3   OH248744   0.149   4.833  16.350 -0.3604  0.0796  0.0169
 9110TIP3    H148745   0.209   4.828  16.425  0.7385  0.9906 -0.7892
 9110TIP3    H248746   0.126   4.925  16.344 -2.0956 -0.3013  0.4867
 9111TIP3   OH248747   5.603   3.469  11.258  0.4098 -0.6903 -0.2354
 9111TIP3    H148748   5.651   3.495  11.179  0.9797 -1.5768 -0.1869
 9111TIP3    H248749   5.512   3.491  11.238  0.7905  0.7797 -0.4265
 9112TIP3   OH248750   5.854   0.800  16.697 -0.1417  0.1087 -0.5194
 9112TIP3    H148751   5.830   0.875  16.642 -1.2022 -0.3673 -0.7113
 9112TIP3    H248752   5.784   0.795  16.762  1.0057  0.5521  0.7778
 9113TIP3   OH248753   0.202   6.161   5.132  0.1037 -0.1991 -0.9111
 9113TIP3    H148754   0.294   6.182   5.150 -0.1343  0.5993 -0.5813
 9113TIP3    H248755   0.199   6.148   5.037  0.3116  1.1278 -1.1153
 9114TIP3   OH248756   1.575   2.700  11.105  0.5710 -0.0808  0.2184
 9114TIP3    H148757   1.653   2.700  11.049  0.9172 -1.6888  0.6571
 9114TIP3    H248758   1.604   2.741  11.187  0.5560  0.6446 -0.1403
 9115TIP3   OH248759   4.894   5.034   3.657 -0.6535 -0.6908 -0.1295
 9115TIP3    H148760   4.890   5.053   3.563  0.1488  0.0184 -0.0193
 9115TIP3    H248761   4.914   4.940   3.661 -1.1134 -0.8149 -0.6644
 9116TIP3   OH248762   1.242   0.464   4.466  0.4388 -0.3451 -0.1989
 9116TIP3    H148763   1.335   0.484   4.467  0.4081 -0.2229  0.6251
 9116TIP3    H248764   1.199   0.548   4.480  0.2630 -0.7007  1.4748
 9117TIP3   OH248765   2.486   3.295  10.766 -0.5497 -0.2685 -0.5642
 9117TIP3    H148766   2.522   3.377  10.799 -0.7239 -0.0735 -0.8538
 9117TIP3    H248767   2.463   3.245  10.844  1.6844 -1.0044 -0.3450
 9118TIP3   OH248768   2.186   2.309  15.979  0.0702 -0.1714 -0.4156
 9118TIP3    H148769   2.248   2.376  16.008  0.0246  0.3274 -1.4466
 9118TIP3    H248770   2.180   2.249  16.053  1.9441 -0.3365 -0.3670
 9119TIP3   OH248771   6.599   6.259  11.171 -0.1461  0.4077 -1.0707
 9119TIP3    H148772   6.625   6.168  11.160 -2.0325 -0.6311  2.3170
 9119TIP3    H248773   6.538   6.276  11.099 -0.4614 -1.3028 -1.2143
 9120TIP3   OH248774   0.201   3.236  10.472 -0.4022  0.6555 -0.1039
 9120TIP3    H148775   0.248   3.317  10.454  0.5894 -0.1829 -1.3838
 9120TIP3    H248776   0.241   3.201  10.552 -0.2196  0.9693 -0.0581
 9121TIP3   OH248777   0.550   3.678   4.870 -0.1382  0.3716 -0.2615
 9121TIP3    H148778   0.616   3.609   4.863 -1.6458 -1.0420 -0.8641
 9121TIP3    H248779   0.597   3.758   4.845  1.5391 -0.4709  0.0942
 9122TIP3   OH248780   3.702   1.327   3.567  0.1348 -0.1411 -0.3245
 9122TIP3    H148781   3.641   1.396   3.540  2.3863  1.5569 -1.1930
 9122TIP3    H248782   3.674   1.250   3.517  1.0291  1.6160 -3.7323
 9123TIP3   OH248783   0.136   3.026  12.756  0.1623  0.5690  0.0014
 9123TIP3    H148784   0.219   3.002  12.796  1.0076  2.3484 -0.6472
 9123TIP3    H248785   0.153   3.110  12.713 -2.2640  1.5680  0.8714
 9124TIP3   OH248786   3.377   1.733  11.724 -0.2802 -0.2236  0.7442
 9124TIP3    H148787   3.304   1.777  11.768 -1.6099 -1.2780 -0.3703
 9124TIP3    H248788   3.357   1.740  11.631  1.1848 -0.3117  0.4061
 9125TIP3   OH248789   0.817   5.998   2.334  0.2591  0.3237  0.4925
 9125TIP3    H148790   0.832   5.946   2.255  0.3832 -1.7879  1.8808
 9125TIP3    H248791   0.800   6.086   2.301 -1.5188 -0.8964 -1.9948
 9126TIP3   OH248792   6.581   4.416  15.472  0.5468 -0.4582  0.1785
 9126TIP3    H148793   6.513   4.408  15.406 -0.1022 -1.8242  1.0112
 9126TIP3    H248794   6.564   4.501  15.514 -0.8716 -0.9645  0.6430
 9127TIP3   OH248795   5.483   5.801   3.671 -0.0912  0.2273 -0.1725
 9127TIP3    H148796   5.465   5.776   3.761 -0.8992 -0.5594 -0.5352
 9127TIP3    H248797   5.427   5.877   3.655  1.4836  1.5673  0.5679
 9128TIP3   OH248798   5.019   1.052  15.584  0.1498  0.3683 -0.3055
 9128TIP3    H148799   5.013   0.983  15.517  0.0475 -0.7733  0.8704
 9128TIP3    H248800   5.090   1.109  15.553  0.9550 -0.8629 -0.7576
 9129TIP3   OH248801   4.473   5.617   3.841  0.4821 -0.5196 -0.5671
 9129TIP3    H148802   4.448   5.557   3.771 -0.4917 -1.2464  0.3944
 9129TIP3    H248803   4.475   5.703   3.799 -2.2030 -0.6334 -1.0183
 9130TIP3   OH248804   5.753   5.471   4.676 -0.1884 -0.1798  0.4222
 9130TIP3    H148805   5.737   5.475   4.770  1.8105 -1.9956  0.8769
 9130TIP3    H248806   5.745   5.378   4.654  2.0928 -0.1579 -0.6622
 9131TIP3   OH248807   2.069   4.355  12.916 -0.0641 -0.4229 -0.2146
 9131TIP3    H148808   1.982   4.317  12.931 -0.6800  1.1876  0.4436
 9131TIP3    H248809   2.130   4.288  12.946 -1.1490 -0.6940  1.4511
 9132TIP3   OH248810   0.030   3.855  12.973 -0.6351  0.6190  0.3017
 9132TIP3    H148811   0.096   3.802  13.018 -1.2256 -1.1020 -0.8116
 9132TIP3    H248812  -0.053   3.816  12.998 -1.0254  0.3091 -1.4157
 9133TIP3   OH248813   3.022   6.785   5.060 -0.0538 -0.4918 -0.9357
 9133TIP3    H148814   3.005   6.833   5.142  0.1488 -0.2222 -1.0542
 9133TIP3    H248815   3.052   6.699   5.089 -0.9674 -0.7465 -0.7196
 9134TIP3   OH248816   4.238   6.428  13.012 -0.4814 -0.5595  0.9772
 9134TIP3    H148817   4.247   6.439  13.107 -1.3176 -0.6490  1.0695
 9134TIP3    H248818   4.146   6.405  12.999 -0.3845 -0.4915  0.1361
 9135TIP3   OH248819   4.831   5.224  16.797 -0.2268  0.5891 -0.3764
 9135TIP3    H148820   4.739   5.251  16.795 -1.3564 -2.9337 -1.3226
 9135TIP3    H248821   4.862   5.239  16.708  0.2604  2.1374  0.0403
 9136TIP3   OH248822   2.630   1.178   5.399  0.0288 -0.6271  0.3288
 9136TIP3    H148823   2.684   1.099   5.403 -0.0413 -0.6795  0.2565
 9136TIP3    H248824   2.545   1.147   5.368 -0.8331 -0.9396  2.9304
 9137TIP3   OH248825   3.241   1.257  12.927  0.5224  0.1315 -0.1459
 9137TIP3    H148826   3.287   1.223  12.851 -0.8305  0.3358 -1.0819
 9137TIP3    H248827   3.190   1.331  12.893 -0.3361  0.0331  0.8861
 9138TIP3   OH248828   4.660   4.467   3.045 -0.1812  0.3446 -0.0635
 9138TIP3    H148829   4.642   4.461   3.139  0.5115 -0.4381  0.0290
 9138TIP3    H248830   4.654   4.560   3.025 -0.1157  0.5407  0.8041
 9139TIP3   OH248831   2.839   3.017  17.201  0.5755 -0.2552  0.4629
 9139TIP3    H148832   2.837   2.989  17.109 -2.6827  1.2206  0.0032
 9139TIP3    H248833   2.838   2.935  17.251  1.5793 -1.0579 -0.8157
 9140TIP3   OH248834   2.111   4.650   0.537  0.2749  0.2817 -0.1239
 9140TIP3    H148835   2.130   4.698   0.456 -0.5961  1.6174  0.4687
 9140TIP3    H248836   2.105   4.558   0.508 -2.0448  0.9544 -1.9442
 9141TIP3   OH248837   2.721   1.899  13.886 -0.0393 -0.1553  0.6383
 9141TIP3    H148838   2.713   1.988  13.920  2.3613  0.4595 -0.3377
 9141TIP3    H248839   2.800   1.901  13.832  0.1361 -2.9169  0.7422
 9142TIP3   OH248840   0.302   4.990   3.737  0.2452 -0.1244  0.1566
 9142TIP3    H148841   0.272   5.039   3.813  1.5857  0.3702  0.3851
 9142TIP3    H248842   0.236   5.009   3.669 -0.3119  0.3955  0.8339
 9143TIP3   OH248843   3.168   3.227   6.175  0.0708 -0.1783  0.2905
 9143TIP3    H148844   3.163   3.134   6.152 -0.3176 -0.6352  2.1334
 9143TIP3    H248845   3.237   3.232   6.240  3.0835  1.5217 -2.8847
 9144TIP3   OH248846   1.666   0.461   2.767  0.0961  0.0664 -0.0861
 9144TIP3    H148847   1.696   0.525   2.703 -0.9831  0.8990  0.2208
 9144TIP3    H248848   1.574   0.448   2.746  0.4548 -1.8930 -0.5543
 9145TIP3   OH248849   0.755   0.471  13.753  0.0096 -0.7292  0.0287
 9145TIP3    H148850   0.707   0.554  13.758  0.2596 -0.6136  0.5551
 9145TIP3    H248851   0.812   0.472  13.829  1.1752 -0.6606 -0.8244
 9146TIP3   OH248852   1.893   0.378  13.254 -0.1638 -0.2297  0.4461
 9146TIP3    H148853   1.937   0.409  13.332  0.7943 -1.6124  0.4748
 9146TIP3    H248854   1.938   0.421  13.181 -0.7915  0.7432  0.6347
 9147TIP3   OH248855   2.209   1.359   2.914 -1.0825  0.4638 -0.2422
 9147TIP3    H148856   2.193   1.452   2.902 -0.4988  0.6186  0.1690
 9147TIP3    H248857   2.282   1.338   2.856  1.0367  0.9925  2.1189
 9148TIP3   OH248858   3.849   4.697  15.047  0.4388 -0.4252 -0.1367
 9148TIP3    H148859   3.790   4.758  15.090  1.9128 -0.9701  2.7740
 9148TIP3    H248860   3.793   4.644  14.991 -1.2735  1.5177 -0.2960
 9149TIP3   OH248861   4.699   2.977  13.426  0.5545 -0.3867 -0.0701
 9149TIP3    H148862   4.745   2.946  13.504  0.6922 -1.5317 -0.6017
 9149TIP3    H248863   4.685   2.899  13.373  0.9006  0.4472 -1.4270
 9150TIP3   OH248864   2.183   4.157   5.760  0.1559 -0.0666 -0.0795
 9150TIP3    H148865   2.225   4.155   5.674 -0.2891 -1.0775 -0.2825
 9150TIP3    H248866   2.208   4.241   5.797  1.8854 -0.4067 -0.4420
 9151TIP3   OH248867   1.020   0.573  14.962 -0.5951  0.0824  0.1008
 9151TIP3    H148868   1.050   0.663  14.947 -1.1943  0.0883 -1.1444
 9151TIP3    H248869   0.932   0.583  14.997 -0.5474 -0.0173  0.2500
 9152TIP3   OH248870   2.693   4.377   0.295  0.3090  0.0728 -0.3488
 9152TIP3    H148871   2.649   4.410   0.373 -0.0732  0.0535 -0.5545
 9152TIP3    H248872   2.732   4.294   0.323 -1.6330 -1.0112 -0.7271
 9153TIP3   OH248873   3.456   0.661  10.670 -0.1268  0.4213 -0.0906
 9153TIP3    H148874   3.392   0.726  10.641 -0.0929  0.5236  0.0642
 9153TIP3    H248875   3.463   0.600  10.597  0.6240  1.1765 -0.6590
 9154TIP3   OH248876   3.227   1.585   0.646  0.3400  0.5912  0.3835
 9154TIP3    H148877   3.244   1.532   0.568 -1.6096 -0.7773  0.8719
 9154TIP3    H248878   3.258   1.673   0.622 -0.4217  0.2417 -1.9963
 9155TIP3   OH248879   5.424   2.540   6.072  0.0154 -0.3094  0.0356
 9155TIP3    H148880   5.374   2.567   5.995 -0.9869  0.3387  0.9058
 9155TIP3    H248881   5.425   2.444   6.067  0.9180 -0.2409 -1.3723
 9156TIP3   OH248882   1.143   3.308   3.944  0.9016  1.0795  0.7847
 9156TIP3    H148883   1.083   3.369   3.987 -0.3818 -1.6867  3.1485
 9156TIP3    H248884   1.215   3.297   4.005  0.8789 -0.0909  0.6286
 9157TIP3   OH248885   2.003   4.965   5.280 -0.2955  0.0468 -0.2207
 9157TIP3    H148886   2.040   4.894   5.228  1.9675  0.6753  0.4709
 9157TIP3    H248887   2.011   5.043   5.225 -1.1078  0.0945 -0.2783
 9158TIP3   OH248888   4.923   0.941  15.019  0.3050 -0.1648 -0.4274
 9158TIP3    H148889   4.929   1.000  14.944  1.2500 -1.1509 -1.1382
 9158TIP3    H248890   4.889   0.996  15.090 -0.1723  0.8828 -1.4474
 9159TIP3   OH248891   4.511   2.241   4.233 -0.2007  0.6460 -0.1479
 9159TIP3    H148892   4.475   2.324   4.201 -0.6154  1.1376  1.5427
 9159TIP3    H248893   4.606   2.253   4.227 -0.2640  1.0309 -0.4271
 9160TIP3   OH248894   1.264   1.091  16.614  0.1232 -0.7825  0.2608
 9160TIP3    H148895   1.272   1.108  16.520  1.0496 -1.3776  0.2277
 9160TIP3    H248896   1.217   1.008  16.619  0.9674 -1.2661  0.2940
 9161TIP3   OH248897   5.940   3.829  12.308 -0.0817  0.0236 -0.0417
 9161TIP3    H148898   6.010   3.812  12.371  1.1933  1.2140 -1.0909
 9161TIP3    H248899   5.981   3.886  12.242 -1.2237 -1.5353 -2.1709
 9162TIP3   OH248900   5.247   5.017  12.196  0.0171 -0.3953  0.0285
 9162TIP3    H148901   5.309   4.959  12.152  0.1453  0.2175 -0.6060
 9162TIP3    H248902   5.191   5.050  12.126  0.7304  1.2142  0.1715
 9163TIP3   OH248903   3.548   1.441   2.054  0.0986  0.8102  0.3526
 9163TIP3    H148904   3.561   1.481   2.140  1.2654  0.1267  0.5060
 9163TIP3    H248905   3.468   1.388   2.064  0.7300  0.0126  1.2862
 9164TIP3   OH248906   3.971   0.998  16.845  0.2866 -0.0764 -0.7131
 9164TIP3    H148907   4.015   1.005  16.930 -0.0042  0.5382 -0.6106
 9164TIP3    H248908   4.008   1.070  16.793  1.0575 -0.9391 -1.3798
 9165TIP3   OH248909   1.236   3.715   0.207 -0.0182 -0.6563  0.1536
 9165TIP3    H148910   1.207   3.689   0.295  0.7442 -2.3100 -0.0666
 9165TIP3    H248911   1.329   3.689   0.204  0.2993  0.5388 -0.7013
 9166TIP3   OH248912   3.382   3.603   4.630  0.3023 -0.5828 -0.0592
 9166TIP3    H148913   3.314   3.582   4.694 -0.0264  1.5335  0.3329
 9166TIP3    H248914   3.358   3.553   4.552 -0.1939 -1.9358  0.9496
 9167TIP3   OH248915   4.617   0.208   0.207  0.7775 -0.3203 -0.4999
 9167TIP3    H148916   4.582   0.289   0.245 -0.3447 -0.8699 -0.3511
 9167TIP3    H248917   4.655   0.236   0.124  3.1036  0.8724  0.8708
 9168TIP3   OH248918   1.828   5.554   6.308  0.2536  0.4482 -0.1325
 9168TIP3    H148919   1.871   5.603   6.378 -1.3617  0.4374  0.9051
 9168TIP3    H248920   1.825   5.615   6.234 -1.5484  1.8920  1.0843
 9169TIP3   OH248921   0.735   6.203   5.491 -0.4266 -0.7433 -0.3844
 9169TIP3    H148922   0.734   6.107   5.495  0.9720 -0.7690 -0.4913
 9169TIP3    H248923   0.738   6.222   5.397 -1.3819 -0.5714 -0.3895
 9170TIP3   OH248924   1.573   6.746  13.294 -0.0019  0.0327 -0.3883
 9170TIP3    H148925   1.657   6.780  13.261 -1.1682  0.8272 -2.6815
 9170TIP3    H248926   1.576   6.652  13.276 -0.4478  0.3891 -2.4996
 9171TIP3   OH248927   5.460   5.097   4.845  0.0938  0.0950 -0.7266
 9171TIP3    H148928   5.477   5.017   4.794 -1.8399 -0.2548 -0.8581
 9171TIP3    H248929   5.515   5.088   4.922 -0.2703 -1.4958 -0.6256
 9172TIP3   OH248930   3.609   5.040  15.480  0.0821 -0.5961  0.4101
 9172TIP3    H148931   3.646   4.952  15.476  0.6939 -0.2639 -1.7365
 9172TIP3    H248932   3.525   5.033  15.434  0.5276  0.1339 -0.5190
 9173TIP3   OH248933   1.701   2.559   4.235  0.5302  0.4298  0.2531
 9173TIP3    H148934   1.766   2.498   4.269  0.5127 -0.6579 -1.5689
 9173TIP3    H248935   1.656   2.592   4.312  1.5077 -0.7728  1.3624
 9174TIP3   OH248936   6.095   4.667   5.901  0.0850  0.6466  0.5250
 9174TIP3    H148937   6.016   4.714   5.929 -0.0362 -0.2591  1.7167
 9174TIP3    H248938   6.151   4.736   5.864 -0.4658  1.5909  1.4092
 9175TIP3   OH248939   5.534   1.094  11.770 -0.3754  0.0339 -0.1603
 9175TIP3    H148940   5.474   1.020  11.779 -1.8225  1.2387  0.4366
 9175TIP3    H248941   5.620   1.055  11.756 -0.7123 -1.8144  2.5061
 9176TIP3   OH248942   1.352   3.017   5.611  0.6096  0.4648 -0.4102
 9176TIP3    H148943   1.433   2.973   5.586  0.1024 -0.3143 -0.6907
 9176TIP3    H248944   1.338   3.082   5.542  0.3090 -0.2827 -1.0627
 9177TIP3   OH248945   2.244   1.664   4.607 -0.2537 -0.2229  0.2341
 9177TIP3    H148946   2.306   1.623   4.667 -0.2997 -0.6895 -0.0302
 9177TIP3    H248947   2.159   1.651   4.648 -0.2688 -0.4031  0.1482
 9178TIP3   OH248948   5.310   4.599   0.933 -0.1350 -0.0499  0.0407
 9178TIP3    H148949   5.382   4.551   0.973  1.7876  1.8774 -0.9961
 9178TIP3    H248950   5.291   4.670   0.994 -0.0067  0.4599 -0.5162
 9179TIP3   OH248951   5.924   1.570   5.461  0.2239  0.1335 -0.3456
 9179TIP3    H148952   6.004   1.609   5.426  0.7217  0.1624  0.8105
 9179TIP3    H248953   5.900   1.504   5.396 -0.0747  1.6579 -1.8130
 9180TIP3   OH248954   2.629   5.953  12.064 -0.0647  0.1316  0.4870
 9180TIP3    H148955   2.635   5.867  12.024  0.6604  0.2976  0.2399
 9180TIP3    H248956   2.596   5.936  12.153  0.4003 -0.4265  0.5522
 9181TIP3   OH248957   4.180   4.818  15.532  0.6869  0.4377 -0.5602
 9181TIP3    H148958   4.185   4.785  15.622  1.4391 -1.5390 -1.3046
 9181TIP3    H248959   4.201   4.911  15.540  1.8834  0.0438  1.1839
 9182TIP3   OH248960   2.559   5.103   4.814 -0.3308  0.2765  0.1526
 9182TIP3    H148961   2.527   5.114   4.903  0.7936 -1.7714  0.8353
 9182TIP3    H248962   2.653   5.117   4.820  0.0314 -1.8944 -0.3337
 9183TIP3   OH248963   2.218   4.192  15.136  0.0544 -0.7548  0.3448
 9183TIP3    H148964   2.221   4.097  15.144  1.5502 -0.8828 -1.3710
 9183TIP3    H248965   2.180   4.208  15.050  0.8031  0.1616  0.1728
 9184TIP3   OH248966   3.929   5.784   0.335 -0.0515  0.1651  0.3364
 9184TIP3    H148967   3.911   5.696   0.367  1.4741 -0.2397  0.0981
 9184TIP3    H248968   3.975   5.771   0.252 -0.2353  1.1967  0.0584
 9185TIP3   OH248969   1.516   2.956   1.672 -0.0331 -0.2143  0.4400
 9185TIP3    H148970   1.581   3.020   1.644 -0.5882 -0.2489 -1.0086
 9185TIP3    H248971   1.513   2.892   1.601 -0.8845 -0.7769  0.9697
 9186TIP3   OH248972   1.430   1.167   4.921 -0.1155  0.1564  0.1508
 9186TIP3    H148973   1.514   1.195   4.884 -0.0612 -1.5916 -1.0943
 9186TIP3    H248974   1.395   1.106   4.857 -1.1668 -1.0698  1.8562
 9187TIP3   OH248975   5.300   0.178   2.087 -0.1307  0.0061  0.0123
 9187TIP3    H148976   5.358   0.158   2.014 -2.3937  0.0400 -1.8636
 9187TIP3    H248977   5.325   0.266   2.115  0.7603 -0.0088 -0.7213
 9188TIP3   OH248978   0.597   0.007   5.382  0.1605 -0.7153  0.2160
 9188TIP3    H148979   0.561   0.092   5.407  0.7428 -0.3969 -0.0296
 9188TIP3    H248980   0.620   0.017   5.290  0.2359 -1.1358  0.1898
 9189TIP3   OH248981   0.702   1.966   4.671 -0.0987  0.6851 -0.7410
 9189TIP3    H148982   0.678   2.012   4.751  1.4694  1.0910 -0.4868
 9189TIP3    H248983   0.685   2.030   4.601  3.1682  2.1379 -0.2904
 9190TIP3   OH248984   0.795   0.628  14.552  0.3593  0.0218  0.5978
 9190TIP3    H148985   0.859   0.569  14.589  0.0450  0.2687  1.5443
 9190TIP3    H248986   0.843   0.678  14.486  0.7648 -0.8543  0.2297
 9191TIP3   OH248987   2.157   5.792   0.082 -0.5287 -0.0478  0.0586
 9191TIP3    H148988   2.071   5.751   0.075 -0.6309  0.4293 -1.5777
 9191TIP3    H248989   2.219   5.719   0.073 -0.7494 -0.4316  1.5284
 9192TIP3   OH248990   3.267   4.558  12.305  0.2493  0.7350  0.0578
 9192TIP3    H148991   3.248   4.488  12.368  1.8462  0.9559  0.7964
 9192TIP3    H248992   3.213   4.536  12.229 -1.9128  0.6193  1.5743
 9193TIP3   OH248993   5.471   2.029   3.229  0.0386 -0.1399  0.4027
 9193TIP3    H148994   5.464   2.115   3.271 -0.3411 -0.4047  0.8769
 9193TIP3    H248995   5.410   2.035   3.154  1.1228  0.5193 -0.4481
 9194TIP3   OH248996   2.580   5.718  10.625  0.0443 -0.0777  0.1517
 9194TIP3    H148997   2.649   5.746  10.685 -0.9814  2.4038  0.2514
 9194TIP3    H248998   2.587   5.623  10.623  1.9620 -0.0142  1.9530
 9195TIP3   OH248999   3.708   1.729  16.292  0.0709  0.4339 -0.6487
 9195TIP3    H149000   3.722   1.701  16.202  0.9220  2.3475 -1.1572
 9195TIP3    H249001   3.701   1.825  16.286 -0.9387  0.4972  1.1805
 9196TIP3   OH249002   6.187   1.519   0.033 -0.0853  0.0084  0.7620
 9196TIP3    H149003   6.120   1.493   0.096  0.5642  1.3806  2.0456
 9196TIP3    H249004   6.144   1.581  -0.025 -1.1395 -2.4548 -1.2040
 9197TIP3   OH249005   1.740   6.617  14.629  0.4611 -0.1406  0.6809
 9197TIP3    H149006   1.764   6.674  14.556  0.3230 -0.1203  0.6526
 9197TIP3    H249007   1.645   6.604  14.620  0.4317 -0.0789  0.8966
 9198TIP3   OH249008   0.667   0.256  13.631 -0.1204  0.2686  1.1543
 9198TIP3    H149009   0.699   0.252  13.541 -0.2330 -0.3486  1.1372
 9198TIP3    H249010   0.661   0.349  13.650 -2.1558  0.4449 -0.2162
 9199TIP3   OH249011   4.810   4.242   5.451  0.0940  0.1535  0.3712
 9199TIP3    H149012   4.813   4.327   5.408 -0.7144  0.5111  1.0168
 9199TIP3    H249013   4.772   4.259   5.537 -1.4787 -1.0770 -0.0527
 9200TIP3   OH249014   0.721   3.371  16.608 -0.4046  0.1932  0.2089
 9200TIP3    H149015   0.771   3.318  16.671 -1.5127 -0.8335  0.2513
 9200TIP3    H249016   0.629   3.352  16.629 -0.8043  1.3065 -0.4994
 9201TIP3   OH249017   0.027   3.382   3.048 -0.5041 -0.2725  0.1828
 9201TIP3    H149018   0.101   3.335   3.009  0.3219 -0.5574  2.0138
 9201TIP3    H249019  -0.013   3.319   3.107 -2.6142 -0.3011 -1.2309
 9202TIP3   OH249020   0.447   1.233  15.537  0.1159 -0.3260 -0.2251
 9202TIP3    H149021   0.480   1.286  15.609  0.8670 -0.7950 -0.2180
 9202TIP3    H249022   0.522   1.180  15.510 -1.0163 -2.5199  0.7825
 9203TIP3   OH249023   1.198   6.013  15.844 -0.6213  0.1068  0.3357
 9203TIP3    H149024   1.225   5.924  15.863 -0.0829 -0.1600 -1.6208
 9203TIP3    H249025   1.279   6.064  15.842 -0.7782  0.3422 -0.1418
 9204TIP3   OH249026   6.413   6.389  11.877 -0.1313  0.2165 -0.3076
 9204TIP3    H149027   6.328   6.394  11.921 -0.3510 -3.3751 -0.2033
 9204TIP3    H249028   6.474   6.369  11.948  0.6601  1.5338 -0.5920
 9205TIP3   OH249029   3.134   2.915  14.743  0.5595 -0.3779 -0.0534
 9205TIP3    H149030   3.188   2.951  14.672 -3.1209  3.3189 -1.1409
 9205TIP3    H249031   3.096   2.836  14.705  0.5320  0.2425 -1.3539
 9206TIP3   OH249032   3.472   2.528  15.310  0.0052 -0.0057 -0.7341
 9206TIP3    H149033   3.450   2.519  15.217  0.0985 -0.4331 -0.7150
 9206TIP3    H249034   3.446   2.445  15.349 -0.9650  0.5533 -0.1894
 9207TIP3   OH249035   3.094   1.341  13.728  0.1685  0.1535  0.3791
 9207TIP3    H149036   3.003   1.329  13.700  0.7716  2.0688 -2.5662
 9207TIP3    H249037   3.137   1.259  13.706 -0.1390  0.4052 -1.1749
 9208TIP3   OH249038   1.815   0.402   1.385 -0.2621  0.4197 -0.0457
 9208TIP3    H149039   1.846   0.409   1.295 -0.7191  0.6854 -0.1836
 9208TIP3    H249040   1.748   0.470   1.393  0.5156  1.1035  0.7988
 9209TIP3   OH249041   3.722   5.188  13.583 -0.3153 -0.6604 -0.2765
 9209TIP3    H149042   3.681   5.274  13.594 -2.1104 -1.3106 -1.6251
 9209TIP3    H249043   3.745   5.185  13.490  1.6623 -0.8163  0.2134
 9210TIP3   OH249044   2.225   1.204  12.620 -0.4961 -0.1244  0.1055
 9210TIP3    H149045   2.257   1.249  12.699 -0.6899 -1.7255  1.1112
 9210TIP3    H249046   2.298   1.147  12.595  0.4789  2.0778 -2.2651
 9211TIP3   OH249047   5.793   1.430   5.829  0.2469  0.8171  0.5393
 9211TIP3    H149048   5.798   1.524   5.842 -1.2143  1.6451 -3.8896
 9211TIP3    H249049   5.699   1.410   5.839  0.5043 -0.1285  1.1336
 9212TIP3   OH249050   4.199   2.010  12.581  0.0928 -0.1621 -0.9986
 9212TIP3    H149051   4.240   2.096  12.595  0.0335  0.1337 -2.5785
 9212TIP3    H249052   4.227   1.958  12.656 -1.4658  1.8150  1.0193
 9213TIP3   OH249053   3.356   5.925   6.377  0.6798  0.1113  0.3022
 9213TIP3    H149054   3.392   5.893   6.294  0.3754 -0.2856  0.3250
 9213TIP3    H249055   3.270   5.960   6.355  0.8950  0.6779  0.3253
 9214TIP3   OH249056   1.762   3.535   1.509  0.1530 -0.5014  0.2627
 9214TIP3    H149057   1.744   3.609   1.567 -0.6174 -1.9084  1.8550
 9214TIP3    H249058   1.716   3.557   1.428 -1.5877 -0.0700  1.3394
 9215TIP3   OH249059   5.239   1.135  14.928  0.5048 -0.0343  0.1231
 9215TIP3    H149060   5.256   1.228  14.916 -1.4819  0.5092  1.2555
 9215TIP3    H249061   5.150   1.122  14.894 -0.5925 -0.7974  3.1345
 9216TIP3   OH249062   5.877   5.096  11.938 -0.4596 -0.3685 -0.1260
 9216TIP3    H149063   5.965   5.061  11.924 -0.0461  1.1325 -1.4955
 9216TIP3    H249064   5.840   5.042  12.008  1.8875 -0.4415  1.1054
 9217TIP3   OH249065   2.222   1.074   6.552 -0.2867 -0.1020 -0.7014
 9217TIP3    H149066   2.295   1.136   6.554  0.2365 -0.7427  0.3242
 9217TIP3    H249067   2.246   1.012   6.483  0.6428 -0.9117  0.3418
 9218TIP3   OH249068   6.548   1.257  13.991 -0.0074  0.5845  0.1495
 9218TIP3    H149069   6.552   1.314  13.914 -3.8830  0.9999  0.1751
 9218TIP3    H249070   6.571   1.170  13.957  0.4362  1.1604 -1.0419
 9219TIP3   OH249071   0.425   3.255  13.930 -0.0404  0.0014  0.1586
 9219TIP3    H149072   0.396   3.228  13.843  1.8865 -0.3451 -0.3986
 9219TIP3    H249073   0.455   3.345  13.919  1.7865 -0.5903  0.0597
 9220TIP3   OH249074   1.675   6.075   2.129  0.1772 -0.0723  0.4356
 9220TIP3    H149075   1.686   6.072   2.224  0.3439  0.3565  0.4304
 9220TIP3    H249076   1.596   6.024   2.112 -0.8114  1.2903  0.9478
 9221TIP3   OH249077   6.169   6.076   5.624 -0.0203 -0.1179 -0.4252
 9221TIP3    H149078   6.091   6.100   5.674  0.0547 -2.8615  1.1062
 9221TIP3    H249079   6.186   6.152   5.569 -2.2151  1.5840  1.1322
 9222TIP3   OH249080   1.016   0.828  16.698 -0.4188  0.1264  0.4694
 9222TIP3    H149081   1.006   0.836  16.792 -2.0012  0.6343  0.2800
 9222TIP3    H249082   0.929   0.848  16.663 -0.3444 -1.8650 -0.9791
 9223TIP3   OH249083   0.821   1.496   5.565 -0.2782  0.4450 -0.3543
 9223TIP3    H149084   0.894   1.445   5.601  0.1421  0.3640 -1.3295
 9223TIP3    H249085   0.754   1.431   5.542 -0.6410  0.5139  0.4750
 9224TIP3   OH249086   4.133   0.127  14.568  0.2492 -0.1685 -0.0437
 9224TIP3    H149087   4.206   0.159  14.515  0.0471 -0.3654 -0.4434
 9224TIP3    H249088   4.117   0.196  14.632  0.9748 -0.2484  0.2237
 9225TIP3   OH249089   2.407   1.049  14.471 -0.1071 -0.1497 -0.2279
 9225TIP3    H149090   2.329   1.001  14.445 -0.8438  2.2689 -2.6743
 9225TIP3    H249091   2.480   1.001  14.430 -0.6844 -0.0087 -1.4236
 9226TIP3   OH249092   5.194   0.670  16.998 -0.1436  0.0136 -0.0017
 9226TIP3    H149093   5.178   0.576  17.005  1.8846 -0.3806 -0.1553
 9226TIP3    H249094   5.269   0.686  17.055 -1.1179  1.7350  0.8401
 9227TIP3   OH249095   3.458   2.324   0.661 -0.4318 -0.2014 -0.1480
 9227TIP3    H149096   3.498   2.398   0.615 -0.1589  0.1412  0.6350
 9227TIP3    H249097   3.364   2.339   0.653 -0.3810  0.0254 -0.3262
 9228TIP3   OH249098   5.408   1.988   6.479 -0.0078  0.7846 -0.2176
 9228TIP3    H149099   5.434   2.080   6.477  1.2049  0.4578 -0.2779
 9228TIP3    H249100   5.392   1.965   6.388  0.0924  0.8369 -0.2486
 9229TIP3   OH249101   4.567   6.116  12.425 -0.0070  0.2774  0.0429
 9229TIP3    H149102   4.608   6.126  12.511 -0.8727  1.6146  0.3237
 9229TIP3    H249103   4.610   6.181  12.370 -1.7116  1.7102  0.3466
 9230TIP3   OH249104   1.960   6.424  14.196  0.0317 -0.2951 -0.0276
 9230TIP3    H149105   1.869   6.453  14.198  0.0526 -0.1944 -0.3434
 9230TIP3    H249106   2.010   6.505  14.183  0.2811 -0.1505  1.7387
 9231TIP3   OH249107   3.890   4.703   0.998 -0.1784  0.0972  0.1833
 9231TIP3    H149108   3.967   4.736   1.044  0.1189 -1.8698  1.1646
 9231TIP3    H249109   3.825   4.772   1.008  0.0970  0.0211  3.0153
 9232TIP3   OH249110   0.665   4.628  12.346  0.1197  0.0120 -0.0074
 9232TIP3    H149111   0.731   4.603  12.411  0.1068  0.3709  0.1396
 9232TIP3    H249112   0.710   4.690  12.289 -0.2856  0.7593  0.4792
 9233TIP3   OH249113   5.010   0.905   6.585  1.0869  0.1275  0.2468
 9233TIP3    H149114   5.100   0.915   6.554  0.9814 -2.0634 -0.8863
 9233TIP3    H249115   4.960   0.967   6.533  1.8007  0.7156  0.2436
 9234TIP3   OH249116   5.777   5.977   4.153  0.3584  0.6424 -0.3460
 9234TIP3    H149117   5.732   5.904   4.197 -0.7749  0.6762 -1.4058
 9234TIP3    H249118   5.761   5.962   4.060  3.2108  0.2575 -0.8169
 9235TIP3   OH249119   6.399   1.485  12.957  0.5372  0.2181  0.1047
 9235TIP3    H149120   6.488   1.460  12.930  0.2221 -0.7796 -0.0352
 9235TIP3    H249121   6.353   1.401  12.966 -0.2870  0.7196  0.5291
 9236TIP3   OH249122   3.066   1.669  16.094 -0.4280 -0.1159 -0.4275
 9236TIP3    H149123   3.078   1.670  15.999  2.8394  3.0187 -0.0958
 9236TIP3    H249124   3.128   1.603  16.125  0.5436  0.8359 -0.3046
 9237TIP3   OH249125   0.374   1.413   4.680  0.2519  0.0852  0.4112
 9237TIP3    H149126   0.449   1.473   4.679 -0.2333  0.7019 -1.9320
 9237TIP3    H249127   0.297   1.469   4.676 -0.2422 -0.6374 -0.6155
 9238TIP3   OH249128   0.137   3.268  15.772  0.0233 -0.0524 -0.6163
 9238TIP3    H149129   0.196   3.325  15.722 -0.1181 -0.4674 -1.2693
 9238TIP3    H249130   0.125   3.313  15.855  3.0328 -1.0557  0.4139
 9239TIP3   OH249131   0.162   5.407  11.539 -0.2100 -0.1461 -0.3461
 9239TIP3    H149132   0.100   5.440  11.604 -0.1688  0.3667 -0.5629
 9239TIP3    H249133   0.110   5.398  11.459 -0.6992 -2.5006  0.1941
 9240TIP3   OH249134   5.829   5.793   1.350  0.0973 -0.1294  0.3058
 9240TIP3    H149135   5.865   5.704   1.352 -1.6870 -0.8561  2.8142
 9240TIP3    H249136   5.745   5.784   1.305  0.1609  0.4011  0.0753
 9241TIP3   OH249137   6.738   3.919   2.749  0.2283 -0.2601 -0.9393
 9241TIP3    H149138   6.668   3.890   2.808  0.3870  1.5729  0.1866
 9241TIP3    H249139   6.701   3.907   2.662 -1.2972  0.1335 -0.3814
 9242TIP3   OH249140   1.859   4.577  15.428 -0.1649  0.3229  0.3298
 9242TIP3    H149141   1.862   4.483  15.411 -0.8389  0.4019 -0.2586
 9242TIP3    H249142   1.801   4.586  15.503 -3.5578  0.5718 -2.1912
 9243TIP3   OH249143   1.446   0.645  16.993  0.0112  0.0550  0.3790
 9243TIP3    H149144   1.469   0.644  17.086 -0.5057  0.6000  0.5174
 9243TIP3    H249145   1.368   0.589  16.987 -0.0756  0.1803  0.3140
 9244TIP3   OH249146   0.273   1.469  14.450  0.2600  0.2131 -0.6042
 9244TIP3    H149147   0.309   1.387  14.483  1.7661  1.5361  1.1805
 9244TIP3    H249148   0.181   1.468  14.476  0.0985 -1.1727 -1.1810
 9245TIP3   OH249149   5.116   3.026   6.253  0.2511 -0.1468  0.3149
 9245TIP3    H149150   5.101   2.992   6.164  1.8638  0.4994 -0.2230
 9245TIP3    H249151   5.073   3.111   6.254  1.2492  0.3616 -0.2241
 9246TIP3   OH249152   2.584   5.419   3.427  0.0794 -0.1662  0.0453
 9246TIP3    H149153   2.665   5.467   3.414 -0.6279  1.0508  0.1190
 9246TIP3    H249154   2.535   5.432   3.346  1.5746 -4.1420 -1.6281
 9247TIP3   OH249155   0.633   6.603  14.480 -0.3247 -0.0290  0.2388
 9247TIP3    H149156   0.678   6.643  14.405  2.7174  1.1565  2.5857
 9247TIP3    H249157   0.588   6.676  14.523 -0.7065 -0.4180  0.5040
 9248TIP3   OH249158   0.844   1.833   2.301 -0.2241 -0.2655 -0.5202
 9248TIP3    H149159   0.935   1.804   2.294 -0.8736 -2.1212 -1.7410
 9248TIP3    H249160   0.825   1.871   2.215 -1.0585 -1.3254 -0.8126
 9249TIP3   OH249161   3.296   0.999   1.150 -0.0919 -0.3414  0.0797
 9249TIP3    H149162   3.277   1.043   1.068 -1.8098 -1.7910 -0.3423
 9249TIP3    H249163   3.334   1.067   1.206 -0.4638  1.0619 -1.3343
 9250TIP3   OH249164   3.325   0.368   1.126 -0.3152  0.7258  0.4199
 9250TIP3    H149165   3.398   0.418   1.089  0.6361 -0.8068  0.1681
 9250TIP3    H249166   3.342   0.367   1.220  0.2184  0.0563  0.3259
 9251TIP3   OH249167   2.889   1.479  14.740 -0.0706  0.1257  0.1857
 9251TIP3    H149168   2.973   1.456  14.700 -0.2930  0.6654 -0.6002
 9251TIP3    H249169   2.883   1.423  14.818  0.4274 -0.8311 -0.4616
 9252TIP3   OH249170   0.798   0.166   1.949 -0.0231 -0.0454 -0.5318
 9252TIP3    H149171   0.861   0.236   1.928 -0.6072  0.2677 -1.2435
 9252TIP3    H249172   0.853   0.096   1.984  0.6141  0.6227 -0.1540
 9253TIP3   OH249173   2.774   4.460  16.107  0.1970 -0.6976  0.4250
 9253TIP3    H149174   2.688   4.474  16.068  1.4527  1.6492 -1.6254
 9253TIP3    H249175   2.788   4.537  16.162 -0.0409 -2.2744  2.7498
 9254TIP3   OH249176   6.298   4.919  16.729  0.4217  0.1081  0.1848
 9254TIP3    H149177   6.290   4.908  16.634  0.3626 -0.4846  0.2619
 9254TIP3    H249178   6.390   4.902  16.748  0.8520  2.0738 -0.0192
 9255TIP3   OH249179   2.686   1.708   3.104  0.8279 -0.1667 -0.0056
 9255TIP3    H149180   2.649   1.672   3.184  2.1157 -0.9617  0.2343
 9255TIP3    H249181   2.610   1.745   3.058 -0.1477 -1.0734  0.8352
 9256TIP3   OH249182   5.967   3.127   4.891  0.0401  0.0058 -0.0529
 9256TIP3    H149183   6.015   3.068   4.833  0.0064 -1.2578  1.1968
 9256TIP3    H249184   5.972   3.086   4.977  0.0587  1.8543  0.8510
 9257TIP3   OH249185   3.398   1.842   5.230 -0.7127 -0.4495  0.2578
 9257TIP3    H149186   3.491   1.827   5.214 -0.3562  0.4905  1.3842
 9257TIP3    H249187   3.367   1.760   5.269  0.1630  0.0064  1.9817
 9258TIP3   OH249188   0.358   3.064  15.822  0.2298  0.1310  0.3004
 9258TIP3    H149189   0.288   3.129  15.828  0.1287  0.0365  0.1450
 9258TIP3    H249190   0.407   3.088  15.744 -1.3950 -1.5412 -1.2763
 9259TIP3   OH249191   6.744   1.202  14.735  0.9195  0.5254 -0.1147
 9259TIP3    H149192   6.838   1.188  14.749  0.9571  1.5636  0.7513
 9259TIP3    H249193   6.720   1.137  14.668  2.1434 -0.0799  0.0106
 9260TIP3   OH249194   2.476   6.626   6.378  0.5656 -0.3605  0.0424
 9260TIP3    H149195   2.446   6.677   6.454  0.2402  1.3644 -1.2117
 9260TIP3    H249196   2.571   6.625   6.387  0.4755 -1.0600  1.0263
 9261TIP3   OH249197   5.033   2.894   6.023 -0.3023 -0.0100  0.1746
 9261TIP3    H149198   5.032   2.897   5.927 -1.3652 -0.1538  0.1694
 9261TIP3    H249199   5.046   2.802   6.044 -0.0281  0.0273  0.1729
 9262TIP3   OH249200   2.419   4.543  15.117  0.6630 -0.4123 -0.3000
 9262TIP3    H149201   2.509   4.510  15.118 -0.4099 -3.5237  0.6907
 9262TIP3    H249202   2.386   4.520  15.030  1.0782  1.5734 -1.0077
 9263TIP3   OH249203   2.976   5.918  15.042 -0.1540  0.0829 -0.3304
 9263TIP3    H149204   2.904   5.873  14.998  0.7654 -1.0349 -0.7368
 9263TIP3    H249205   3.047   5.919  14.977  0.7299 -0.2797  0.6114
 9264TIP3   OH249206   2.754   0.945   5.434 -0.0419 -0.0041 -0.3923
 9264TIP3    H149207   2.838   0.991   5.426  0.2914 -0.9131 -2.2762
 9264TIP3    H249208   2.778   0.853   5.449 -0.7047  0.2374  2.3906
 9265TIP3   OH249209   2.464   0.181   0.047 -0.1297  1.1103  0.9210
 9265TIP3    H149210   2.382   0.161   0.001  0.4121  0.8564  0.0426
 9265TIP3    H249211   2.497   0.095   0.075  1.5106  0.8064 -1.6661
 9266TIP3   OH249212   3.442   1.762  11.059 -0.4953 -0.2497 -0.0051
 9266TIP3    H149213   3.383   1.686  11.060 -1.5896  0.4970 -2.7282
 9266TIP3    H249214   3.493   1.751  10.979  1.6449  0.2029  1.2773
 9267TIP3   OH249215   0.956   5.446   1.124  0.4313 -0.4085 -0.3186
 9267TIP3    H149216   0.873   5.474   1.163  0.8728 -1.3147  1.3169
 9267TIP3    H249217   0.990   5.524   1.080  0.9749  1.3225  2.9778
 9268TIP3   OH249218   5.534   0.472  16.903 -0.7819 -0.1533 -0.1551
 9268TIP3    H149219   5.491   0.548  16.863  1.1083  0.3681 -1.2409
 9268TIP3    H249220   5.476   0.398  16.883 -1.7633  0.7072 -0.5601
 9269TIP3   OH249221   3.083   5.210   4.515 -0.2482 -0.6043 -0.0129
 9269TIP3    H149222   3.045   5.290   4.479 -0.5413 -0.4803  0.5624
 9269TIP3    H249223   3.109   5.234   4.604  1.0908 -0.7193 -0.3669
 9270TIP3   OH249224   3.161   4.125   2.539  0.1939  0.3179 -0.4683
 9270TIP3    H149225   3.201   4.137   2.453  0.1287 -1.6146 -0.7837
 9270TIP3    H249226   3.082   4.074   2.522  0.6086 -0.7775  0.8196
 9271TIP3   OH249227   0.646   2.023   1.412 -0.5759  0.4704 -0.2019
 9271TIP3    H149228   0.599   1.982   1.340  0.2467 -0.2454 -0.3525
 9271TIP3    H249229   0.656   1.953   1.477 -1.1254  1.0510  0.5098
 9272TIP3   OH249230   5.115   1.850  15.545 -0.1369 -1.2093 -0.1517
 9272TIP3    H149231   5.072   1.841  15.460 -0.4040  0.0803 -0.1754
 9272TIP3    H249232   5.063   1.797  15.605 -1.0844 -0.5752 -0.4133
 9273TIP3   OH249233   5.227   0.504   3.263  0.7544  0.4544 -0.3183
 9273TIP3    H149234   5.158   0.438   3.256  2.2654 -0.8851 -3.4350
 9273TIP3    H249235   5.184   0.586   3.238 -0.2374  0.0196 -0.0689
 9274TIP3   OH249236   1.195   1.601   6.179  0.6623 -0.3467 -0.5460
 9274TIP3    H149237   1.218   1.510   6.193 -0.9961 -0.3036  3.0527
 9274TIP3    H249238   1.274   1.650   6.204 -0.0249 -0.6277  2.3466
 9275TIP3   OH249239   6.343   2.927  12.223 -0.4518  0.0799 -0.1468
 9275TIP3    H149240   6.396   2.957  12.149 -1.0762 -2.0357 -1.4847
 9275TIP3    H249241   6.406   2.887  12.283 -0.0989  0.7486 -0.0657
 9276TIP3   OH249242   3.566   1.573   2.302 -0.0877  0.1567  0.2791
 9276TIP3    H149243   3.480   1.554   2.340 -0.7711  0.2797 -1.2059
 9276TIP3    H249244   3.590   1.658   2.341  0.6182 -1.1422  2.8142
 9277TIP3   OH249245   1.587   5.972  12.505  0.3656  0.2903 -0.1374
 9277TIP3    H149246   1.628   6.025  12.437  0.2567  0.9658  0.3199
 9277TIP3    H249247   1.639   5.891  12.507  0.8003  0.5574 -0.5369
 9278TIP3   OH249248   4.934   6.467  16.441 -0.6571 -0.0493  0.0891
 9278TIP3    H149249   4.857   6.524  16.452 -0.3875  0.1890  0.7918
 9278TIP3    H249250   4.897   6.378  16.436 -0.9714  0.0378  0.6866
 9279TIP3   OH249251   1.725   2.098  15.509  0.5197  0.5321 -0.0078
 9279TIP3    H149252   1.814   2.132  15.511  0.0065  1.8894  0.5326
 9279TIP3    H249253   1.669   2.176  15.506 -0.5894 -0.3251 -3.3218
 9280TIP3   OH249254   3.973   5.072  15.103  0.2684  0.2198  0.9914
 9280TIP3    H149255   3.902   5.058  15.041  0.0344 -0.2158  1.3579
 9280TIP3    H249256   4.034   5.129  15.057 -1.2934  2.2980  1.4107
 9281TIP3   OH249257   3.299   1.783  15.800 -0.0052 -0.4256  0.4165
 9281TIP3    H149258   3.381   1.734  15.807 -0.1172 -0.2680  2.9595
 9281TIP3    H249259   3.311   1.860  15.855 -0.5543  1.4863 -2.0472
 9282TIP3   OH249260   4.696   6.193   0.303  0.3409 -0.1106  0.5255
 9282TIP3    H149261   4.751   6.223   0.230 -1.9905 -2.8070 -2.4581
 9282TIP3    H249262   4.758   6.178   0.374  2.9187  0.9507 -1.3951
 9283TIP3   OH249263   6.708   4.435   2.399 -0.4271 -1.0473 -0.3254
 9283TIP3    H149264   6.681   4.404   2.312 -1.6172  0.1726 -0.4155
 9283TIP3    H249265   6.627   4.467   2.438  0.8152  2.3181 -0.4038
 9284TIP3   OH249266   6.329   1.262   2.283  0.4967 -0.1525 -0.0980
 9284TIP3    H149267   6.413   1.249   2.240  0.8473  2.6350 -0.3509
 9284TIP3    H249268   6.278   1.314   2.220  0.3317  2.3138  1.9837
 9285TIP3   OH249269   2.083   6.064  16.093 -0.2634  0.4804  0.7809
 9285TIP3    H149270   2.067   6.158  16.095  0.0058  0.5660 -0.4356
 9285TIP3    H249271   2.018   6.027  16.152 -2.0445  1.2145 -0.6744
 9286TIP3   OH249272   5.722   2.734   4.623 -0.2852 -0.2711  0.1318
 9286TIP3    H149273   5.704   2.667   4.557 -0.3624 -2.2149  2.0389
 9286TIP3    H249274   5.751   2.810   4.573  0.5329 -1.9672 -2.0730
 9287TIP3   OH249275   0.298   2.360  17.082  0.1815 -0.0711  0.3650
 9287TIP3    H149276   0.288   2.446  17.124  1.3692  0.6790 -0.8565
 9287TIP3    H249277   0.209   2.334  17.059 -0.2765  0.4302  1.5207
 9288TIP3   OH249278   1.859   1.188   5.244  0.2422 -0.0999  0.2245
 9288TIP3    H149279   1.893   1.249   5.179  1.9079 -0.3871  0.8097
 9288TIP3    H249280   1.801   1.130   5.195  0.1595  0.7435 -0.6830
 9289TIP3   OH249281   3.566   1.621  17.115 -0.0353  0.0412  0.0455
 9289TIP3    H149282   3.488   1.570  17.094 -0.1702  0.7981 -1.3145
 9289TIP3    H249283   3.639   1.567  17.083  0.0391 -0.8483  1.6724
 9290TIP3   OH249284   3.601   6.612   2.978  0.5935 -0.1302 -0.4202
 9290TIP3    H149285   3.637   6.603   3.067  0.6600 -1.4357 -0.5662
 9290TIP3    H249286   3.674   6.592   2.920  0.6827  1.2363 -0.7797
 9291TIP3   OH249287   1.744   5.105   1.297 -0.5823  0.1633 -0.1039
 9291TIP3    H149288   1.673   5.055   1.258 -1.3032  0.3980  0.8883
 9291TIP3    H249289   1.730   5.098   1.391  0.2473  0.8818  0.0828
 9292TIP3   OH249290   4.343   2.963  14.957  0.7225  0.0788  0.1538
 9292TIP3    H149291   4.315   2.901  14.890  0.1968 -0.4387  0.8431
 9292TIP3    H249292   4.263   3.008  14.984  1.3873  2.5614 -1.7957
 9293TIP3   OH249293   4.168   6.358  16.800 -0.4545  0.0295 -0.2768
 9293TIP3    H149294   4.115   6.312  16.735 -1.0470  1.3652 -0.7601
 9293TIP3    H249295   4.116   6.435  16.823  0.1315  0.0176  1.1578
 9294TIP3   OH249296   1.232   0.362   6.049  0.1551  0.3147  0.0547
 9294TIP3    H149297   1.278   0.357   6.133 -0.3052 -1.2550  0.2263
 9294TIP3    H249298   1.141   0.380   6.073  0.1714  0.6641 -0.1474
 9295TIP3   OH249299   1.416   5.856   3.328  0.2572  0.4210  0.0670
 9295TIP3    H149300   1.457   5.771   3.339  0.3838  0.1206 -2.4661
 9295TIP3    H249301   1.400   5.886   3.417  1.0323 -1.8350  1.0114
 9296TIP3   OH249302   3.033   4.575  16.126  0.4420  0.1626  0.1254
 9296TIP3    H149303   2.962   4.511  16.128  1.0383 -0.5021  0.3568
 9296TIP3    H249304   3.005   4.639  16.060 -0.7487  0.3683  0.8131
 9297TIP3   OH249305   5.892   0.273  16.058  0.1647  0.0254  0.0762
 9297TIP3    H149306   5.886   0.241  15.968  0.1959  0.5467 -0.1095
 9297TIP3    H249307   5.949   0.210  16.102  0.3365 -0.0997 -0.3261
 9298TIP3   OH249308   4.591   5.832  11.028 -0.3389  0.0462 -0.5562
 9298TIP3    H149309   4.547   5.876  10.956 -0.4604  0.2190 -0.3782
 9298TIP3    H249310   4.620   5.903  11.086  1.1221  0.0023 -1.2048
 9299TIP3   OH249311   0.900   1.315  16.564  0.0155  0.3237 -0.1059
 9299TIP3    H149312   0.873   1.247  16.501  1.8539  0.9816 -1.6527
 9299TIP3    H249313   0.915   1.392  16.510  0.0851  1.3577  1.3769
 9300TIP3   OH249314   4.842   1.843   1.154  0.4507  0.1480 -0.8725
 9300TIP3    H149315   4.748   1.850   1.173  0.2562 -0.2921 -1.6629
 9300TIP3    H249316   4.853   1.888   1.071  0.6849 -1.0910 -1.5282
 9301TIP3   OH249317   5.773   5.817   5.853  0.3219 -0.1238  0.1373
 9301TIP3    H149318   5.775   5.865   5.770 -1.9214 -0.4981 -0.1722
 9301TIP3    H249319   5.795   5.883   5.919  1.2827  0.3683 -0.6650
 9302TIP3   OH249320   2.496   5.934  15.508 -0.0875 -0.2818 -0.2673
 9302TIP3    H149321   2.476   5.911  15.417  0.3356 -0.1090 -0.4069
 9302TIP3    H249322   2.513   6.028  15.506 -1.4998 -0.0078  0.2446
 9303TIP3   OH249323   2.367   0.696  11.471  0.5592  0.6423  0.6222
 9303TIP3    H149324   2.400   0.772  11.520  1.2916  0.8737 -0.2281
 9303TIP3    H249325   2.273   0.712  11.463  0.5578  0.9788  1.2942
 9304TIP3   OH249326   4.840   4.238   1.400  0.8684  0.2906  0.3460
 9304TIP3    H149327   4.747   4.243   1.381  0.6250  0.5705  1.5692
 9304TIP3    H249328   4.845   4.204   1.490  1.9112  0.9089  0.5389
 9305TIP3   OH249329   4.613   3.786  16.007  0.1190 -0.1607 -0.4720
 9305TIP3    H149330   4.640   3.762  16.096 -1.5216  0.0058  0.0880
 9305TIP3    H249331   4.546   3.854  16.020 -0.9521 -0.9398 -1.7972
 9306TIP3   OH249332   3.312   1.375   4.569 -0.2062 -0.0880 -0.0750
 9306TIP3    H149333   3.322   1.294   4.619  1.3668 -0.5219 -1.0651
 9306TIP3    H249334   3.217   1.386   4.559 -0.4612 -1.1749  1.0780
 9307TIP3   OH249335   4.602   0.345  16.337  0.6674 -0.3546 -0.9388
 9307TIP3    H149336   4.542   0.287  16.384  0.1890  0.5022 -0.4803
 9307TIP3    H249337   4.601   0.426  16.387  1.2390  0.0933 -1.6426
 9308TIP3   OH249338   3.975   2.461   0.012 -0.4343  0.5770 -0.3322
 9308TIP3    H149339   3.913   2.503  -0.048  0.0525 -0.8513 -1.8670
 9308TIP3    H249340   3.921   2.399   0.061 -0.0560 -1.3915 -2.3753
 9309TIP3   OH249341   2.168   5.152  16.805 -0.3099  0.2969 -0.2605
 9309TIP3    H149342   2.139   5.194  16.885  0.0219  0.8111 -0.4110
 9309TIP3    H249343   2.131   5.206  16.735 -1.0262 -0.4349 -0.4599
 9310TIP3   OH249344   1.205   3.465  15.867 -0.0760  0.0765  0.5085
 9310TIP3    H149345   1.221   3.554  15.899 -2.0939  1.3298 -1.7338
 9310TIP3    H249346   1.220   3.471  15.772  0.7990 -2.2545  0.4727
 9311TIP3   OH249347   3.478   6.052  13.798 -0.1156  0.3496 -0.2267
 9311TIP3    H149348   3.448   6.071  13.710 -0.2470  0.2795 -0.1971
 9311TIP3    H249349   3.433   6.116  13.853 -0.6949 -0.1555 -0.1054
 9312TIP3   OH249350   3.903   4.957   2.532 -0.3804 -0.7718 -0.0510
 9312TIP3    H149351   3.861   4.897   2.594  0.1248 -1.4448 -0.3588
 9312TIP3    H249352   3.987   4.916   2.511  0.5588  0.7025  0.7509
 9313TIP3   OH249353   6.253   4.688   4.304  0.4410 -0.4221  0.1255
 9313TIP3    H149354   6.344   4.668   4.323  1.2640  0.0759 -3.0195
 9313TIP3    H249355   6.212   4.602   4.291  0.1922 -0.6921  2.5552
 9314TIP3   OH249356   1.336   5.819  13.559 -0.0277  0.4728 -0.2106
 9314TIP3    H149357   1.375   5.873  13.490 -2.3720  1.8041 -0.5482
 9314TIP3    H249358   1.272   5.764  13.513 -1.2369  0.9913  0.8264
 9315TIP3   OH249359   2.204   5.960  14.727  0.2839 -0.2706  0.4329
 9315TIP3    H149360   2.210   5.933  14.635 -0.2858 -1.2281  0.6625
 9315TIP3    H249361   2.204   5.877  14.776 -0.6655  0.1791  1.2162
 9316TIP3   OH249362   3.803   2.542   1.896 -0.4532  0.5441  0.2784
 9316TIP3    H149363   3.734   2.603   1.925 -0.9568  0.4647 -0.7118
 9316TIP3    H249364   3.797   2.544   1.800 -0.9208 -1.5775  0.2376
 9317TIP3   OH249365   5.112   5.317   2.456 -0.3370 -0.3519  0.1677
 9317TIP3    H149366   5.090   5.367   2.378  3.1894  2.3860  0.8027
 9317TIP3    H249367   5.134   5.230   2.423 -1.4039 -0.0004 -1.5542
 9318TIP3   OH249368   1.569   4.455   2.755  0.0859  0.4015  0.2071
 9318TIP3    H149369   1.500   4.421   2.698 -1.0103  0.2811  1.5710
 9318TIP3    H249370   1.623   4.508   2.698 -0.5379 -0.3441 -1.1106
 9319TIP3   OH249371   3.601   5.766  10.486  0.0666  0.3718  0.2162
 9319TIP3    H149372   3.670   5.725  10.434  0.2314  0.4729  0.3565
 9319TIP3    H249373   3.591   5.853  10.448 -0.7708 -0.0332 -0.5350
 9320TIP3   OH249374   3.723   1.349   1.699  0.4517 -0.4728  0.4705
 9320TIP3    H149375   3.817   1.334   1.692  0.0769 -1.9778 -1.8949
 9320TIP3    H249376   3.692   1.283   1.761  0.9732  0.1530  1.4035
 9321TIP3   OH249377   4.334   3.596  15.092  0.0179 -0.9444  0.5201
 9321TIP3    H149378   4.252   3.597  15.042 -0.2477 -3.4706  0.8286
 9321TIP3    H249379   4.377   3.679  15.070 -1.6471 -0.5300 -1.2844
 9322TIP3   OH249380   3.091   2.264   2.460 -0.4398  0.0173  0.1418
 9322TIP3    H149381   3.133   2.183   2.488 -2.0323 -1.4949 -1.7490
 9322TIP3    H249382   3.162   2.329   2.461  1.3040 -1.8384 -0.2792
 9323TIP3   OH249383   0.726   2.424   4.772 -0.1813  0.3498 -0.2913
 9323TIP3    H149384   0.731   2.349   4.831  0.1794  0.5228 -0.1039
 9323TIP3    H249385   0.743   2.500   4.828 -2.2101  0.7212 -0.1475
 9324TIP3   OH249386   0.068   2.382  12.874 -0.1518 -0.3164  0.3206
 9324TIP3    H149387  -0.008   2.439  12.868  0.9998  1.2568  0.2490
 9324TIP3    H249388   0.098   2.373  12.784  0.3820 -0.0297  0.4678
 9325TIP3   OH249389   3.905   3.570   1.620 -0.5396  0.3847 -0.6160
 9325TIP3    H149390   3.884   3.661   1.640  1.1571  0.6065  0.2702
 9325TIP3    H249391   3.982   3.551   1.674 -1.5903 -1.9526  0.1261
 9326TIP3   OH249392   6.212   1.493   2.079 -0.2324 -0.4097  0.7132
 9326TIP3    H149393   6.193   1.459   1.992  0.1284  3.2636 -0.9239
 9326TIP3    H249394   6.128   1.528   2.109  0.4970  2.0587  0.0015
 9327TIP3   OH249395   3.533   0.021  13.631  0.6404 -0.0778  0.9777
 9327TIP3    H149396   3.568  -0.067  13.647  1.2751  0.3694  2.1430
 9327TIP3    H249397   3.611   0.077  13.630  0.0988  0.7150  2.0412
 9328TIP3   OH249398   5.275   5.859   2.717  0.1444 -0.2222  0.5566
 9328TIP3    H149399   5.270   5.850   2.622 -1.4317 -0.8141  0.6788
 9328TIP3    H249400   5.278   5.953   2.733 -2.1671 -0.0346  0.0208
 9329TIP3   OH249401   4.537   2.368   3.817  0.3516 -0.3117 -0.0963
 9329TIP3    H149402   4.453   2.330   3.842  1.3511 -2.1838  0.4785
 9329TIP3    H249403   4.581   2.299   3.768  1.1631  1.0099 -1.2984
 9330TIP3   OH249404   2.445   5.979  12.631 -0.7164 -0.0433  0.6417
 9330TIP3    H149405   2.432   6.039  12.705 -1.3012 -1.8055  1.9951
 9330TIP3    H249406   2.540   5.972  12.622 -0.6294  1.6997 -0.0635
 9331TIP3   OH249407   6.298   5.560   1.408  0.1905 -0.2381 -0.1681
 9331TIP3    H149408   6.287   5.472   1.374 -1.5395 -0.3452  0.6142
 9331TIP3    H249409   6.388   5.563   1.440  0.8093 -1.1426 -1.8049
 9332TIP3   OH249410   1.628   1.926   6.129  0.6419 -0.3749 -0.0443
 9332TIP3    H149411   1.667   1.877   6.202 -0.0026  0.1724  0.6683
 9332TIP3    H249412   1.647   2.017   6.149 -0.0882 -0.1808 -0.2490
 9333TIP3   OH249413   1.067   5.210  11.742  0.4476 -0.0428 -0.6312
 9333TIP3    H149414   1.071   5.285  11.681 -0.1284  0.2465 -0.3112
 9333TIP3    H249415   0.980   5.215  11.780  0.9958  0.1010  0.6319
 9334TIP3   OH249416   0.691   2.121   4.910 -0.1477 -0.6142 -0.1532
 9334TIP3    H149417   0.774   2.140   4.955 -0.0475 -0.8459 -0.2404
 9334TIP3    H249418   0.624   2.161   4.966  0.0791  0.1540 -0.4285
 9335TIP3   OH249419   4.958   0.096   3.441 -0.5568 -0.2861 -0.1853
 9335TIP3    H149420   4.901   0.034   3.487 -0.3711 -0.2415  0.1131
 9335TIP3    H249421   5.011   0.041   3.383  0.4564 -0.5562  0.9668
 9336TIP3   OH249422   1.053   2.270  15.927 -0.0861 -0.4065  0.4450
 9336TIP3    H149423   1.119   2.235  15.867 -0.5453 -2.4820  1.1074
 9336TIP3    H249424   0.986   2.308  15.870  0.3382 -0.7564 -0.2920
 9337TIP3   OH249425   2.817   2.934  16.941  0.2743 -0.0594 -0.1194
 9337TIP3    H149426   2.741   2.882  16.912  0.2175  0.6231 -1.2166
 9337TIP3    H249427   2.886   2.869  16.953 -0.2390 -0.5855  0.0256
 9338TIP3   OH249428   6.123   5.472  13.553  0.4267 -0.0381  0.2752
 9338TIP3    H149429   6.103   5.538  13.620 -0.2227  0.9710 -0.8800
 9338TIP3    H249430   6.195   5.421  13.590  1.4597  1.8011  0.8975
 9339TIP3   OH249431   2.659   2.594  11.516  0.2382  0.2037  0.0984
 9339TIP3    H149432   2.685   2.591  11.608 -0.7395  2.0709  0.4656
 9339TIP3    H249433   2.583   2.536  11.510 -0.2671  0.8039  0.6766
 9340TIP3   OH249434   2.674   1.175   6.238  0.2640  0.0807  0.4882
 9340TIP3    H149435   2.672   1.216   6.324  1.0159  0.3296  0.3875
 9340TIP3    H249436   2.637   1.088   6.252  1.3832 -0.2762  1.2680
 9341TIP3   OH249437   2.507   3.132   1.475 -0.5759  0.0207  0.1383
 9341TIP3    H149438   2.540   3.192   1.541  0.2266  0.9075 -1.0566
 9341TIP3    H249439   2.575   3.065   1.467  0.0470  0.7722 -0.9096
 9342TIP3   OH249440   0.202   5.092   4.211 -0.3432 -0.1118 -0.1805
 9342TIP3    H149441   0.189   4.997   4.208  1.2525 -0.3476  0.0222
 9342TIP3    H249442   0.259   5.106   4.287 -0.8936  1.0511  0.0260
 9343TIP3   OH249443   2.650   1.563  11.731 -0.8187  0.1258 -0.3366
 9343TIP3    H149444   2.688   1.506  11.797  1.0148  0.5315 -1.0177
 9343TIP3    H249445   2.558   1.535  11.725 -0.6737 -0.7847  1.4084
 9344TIP3   OH249446   6.715   4.526   3.037 -0.2589 -0.5809  0.2074
 9344TIP3    H149447   6.776   4.486   2.974  0.5729  1.3779 -0.2674
 9344TIP3    H249448   6.628   4.498   3.008  0.3309 -2.6409  0.3382
 9345TIP3   OH249449   1.561   4.902   1.263  0.0034 -0.0378  0.0568
 9345TIP3    H149450   1.551   4.807   1.258  1.8876 -0.3385  1.4482
 9345TIP3    H249451   1.479   4.933   1.302 -0.2061 -1.1911  0.5390
 9346TIP3   OH249452   2.315   4.187  14.046  0.1324  0.0200  0.5674
 9346TIP3    H149453   2.224   4.201  14.070  0.3716  0.7639  1.0602
 9346TIP3    H249454   2.350   4.131  14.116 -0.0460 -0.5967  0.1679
 9347TIP3   OH249455   6.065   5.501   0.828 -0.6050  0.5153 -0.2432
 9347TIP3    H149456   6.008   5.577   0.816 -1.9399 -0.2871  0.7844
 9347TIP3    H249457   6.066   5.487   0.923  0.4739 -0.1208 -0.3368
 9348TIP3   OH249458   1.284   2.064  12.806 -0.2704  0.1118 -0.1332
 9348TIP3    H149459   1.244   2.150  12.816  0.8878  0.4476  2.0010
 9348TIP3    H249460   1.217   2.010  12.764 -1.0902  1.9771 -1.2553
 9349TIP3   OH249461   5.540   0.322  15.075 -0.9696 -0.2148  0.3160
 9349TIP3    H149462   5.545   0.271  14.994  1.2823 -0.9369  0.8673
 9349TIP3    H249463   5.502   0.263  15.139 -0.5349 -0.4483  0.3654
 9350TIP3   OH249464   1.363   0.932   1.622  0.0161  0.1560 -0.0534
 9350TIP3    H149465   1.399   0.942   1.534  0.0282  2.5816  0.1738
 9350TIP3    H249466   1.440   0.924   1.679 -0.0025 -2.1266 -0.2975
 9351TIP3   OH249467   3.670   0.372   1.335 -0.5527 -0.3209 -0.1809
 9351TIP3    H149468   3.655   0.297   1.278  0.7591 -1.2225  0.6300
 9351TIP3    H249469   3.648   0.448   1.282 -2.1916 -1.2960 -0.9171
 9352TIP3   OH249470   1.303   2.036   2.495  0.1703 -0.4268 -0.4530
 9352TIP3    H149471   1.361   1.998   2.429 -0.0879 -0.7351 -0.5005
 9352TIP3    H249472   1.311   1.977   2.571  0.8908  0.2278 -0.0120
 9353TIP3   OH249473   4.668   4.104  13.058  0.6734 -0.0265 -0.2590
 9353TIP3    H149474   4.605   4.037  13.086  0.6393 -0.2411 -0.8396
 9353TIP3    H249475   4.713   4.130  13.139  0.2084 -0.2543  0.0752
 9354TIP3   OH249476   1.686   3.172   1.594 -0.0921  0.0231 -0.1043
 9354TIP3    H149477   1.752   3.230   1.633  0.9877 -0.0686 -1.6984
 9354TIP3    H249478   1.684   3.198   1.502  0.0417 -2.1263 -0.7350
 9355TIP3   OH249479   4.053   6.457   3.125 -0.1606  0.6072 -0.4244
 9355TIP3    H149480   4.111   6.514   3.175 -0.7601  1.7872 -1.0544
 9355TIP3    H249481   4.093   6.451   3.039  0.6834 -1.1380  0.0743
 9356TIP3   OH249482   4.379   4.265   3.633  0.2122  0.0234 -0.5489
 9356TIP3    H149483   4.443   4.199   3.607  0.8562  1.1134 -1.7498
 9356TIP3    H249484   4.427   4.323   3.693 -0.0919 -0.0478 -0.2312
 9357TIP3   OH249485   6.365   1.277   1.240  0.3546  0.0531 -0.1073
 9357TIP3    H149486   6.342   1.362   1.203 -0.0898  0.2368  0.5714
 9357TIP3    H249487   6.305   1.215   1.198 -1.9721  0.6243  2.1632
 9358TIP3   OH249488   0.282   5.816  13.187 -0.0969  0.4363 -0.1491
 9358TIP3    H149489   0.371   5.813  13.224 -0.0198  1.4024 -0.2345
 9358TIP3    H249490   0.235   5.747  13.233  0.4534  0.5190  0.5575
 9359TIP3   OH249491   2.126   0.808  11.470  0.0479  0.2589  0.1198
 9359TIP3    H149492   2.144   0.892  11.428 -0.1704  0.4807  0.4720
 9359TIP3    H249493   2.037   0.786  11.444  0.2646 -0.0782 -0.3346
 9360TIP3   OH249494   4.810   2.879  15.604 -0.1363 -0.0514 -0.1636
 9360TIP3    H149495   4.767   2.950  15.558 -1.8660 -1.5658 -0.9468
 9360TIP3    H249496   4.876   2.922  15.658  0.4598  1.9316 -2.3815
 9361TIP3   OH249497   1.846   5.177  15.165  0.4310 -0.6313 -0.0146
 9361TIP3    H149498   1.821   5.140  15.080 -0.1460 -0.9587  0.2974
 9361TIP3    H249499   1.939   5.197  15.156  0.5762 -1.4995 -0.4175
 9362TIP3   OH249500   0.499   3.335   5.989 -0.1342  0.4695  0.0955
 9362TIP3    H149501   0.545   3.339   6.073 -0.5900  1.9324  0.3010
 9362TIP3    H249502   0.428   3.272   6.003  0.9605 -0.7565  0.1981
 9363TIP3   OH249503   5.238   0.546   5.591 -0.7016 -0.2063  0.4621
 9363TIP3    H149504   5.265   0.488   5.662 -0.3141 -0.5966 -0.0031
 9363TIP3    H249505   5.204   0.624   5.635  1.8457  0.5989  1.0519
 9364TIP3   OH249506   1.838   4.526  12.253 -0.6025 -0.0999 -0.2455
 9364TIP3    H149507   1.774   4.461  12.280  0.2630 -0.6683  0.4726
 9364TIP3    H249508   1.920   4.498  12.294 -0.2610  1.5306  0.2178
 9365TIP3   OH249509   0.912   0.135   5.524 -0.6581  0.0557  0.1283
 9365TIP3    H149510   0.933   0.171   5.438  0.4106  0.5060  0.5690
 9365TIP3    H249511   0.948   0.198   5.586  0.8429 -1.5296  0.9134
 9366TIP3   OH249512   5.585   1.127  15.687  0.3103 -0.3712  0.3240
 9366TIP3    H149513   5.619   1.142  15.599 -1.2895  2.6620  0.1924
 9366TIP3    H249514   5.520   1.057  15.676  1.7750 -1.6439 -0.4689
 9367TIP3   OH249515   6.308   5.110  12.870  0.3827 -0.1815  0.5708
 9367TIP3    H149516   6.306   5.026  12.916 -2.6763 -0.7551 -0.5083
 9367TIP3    H249517   6.254   5.168  12.924 -1.2153 -0.1927 -0.9598
 9368TIP3   OH249518   2.344   3.341   4.010 -0.8277 -0.3925 -1.0141
 9368TIP3    H149519   2.390   3.264   3.978  0.6486  0.2089 -0.3784
 9368TIP3    H249520   2.385   3.360   4.095 -0.8924  1.3259 -1.3525
 9369TIP3   OH249521   2.528   0.640   4.227 -0.0183  0.1384 -0.1313
 9369TIP3    H149522   2.471   0.713   4.252  1.0591  0.9322  0.0680
 9369TIP3    H249523   2.485   0.601   4.151  0.6763  2.6337 -1.9146
 9370TIP3   OH249524   4.747   6.030   1.790 -0.0705  0.1749 -0.4985
 9370TIP3    H149525   4.729   6.100   1.852  1.4533  1.3358 -1.3495
 9370TIP3    H249526   4.686   6.046   1.718 -0.9556 -0.4322  0.1017
 9371TIP3   OH249527   5.698   2.291   5.476  0.2493  0.2089  0.1357
 9371TIP3    H149528   5.606   2.295   5.451  0.0123  0.1299  0.9742
 9371TIP3    H249529   5.711   2.366   5.534  0.5682 -0.1153  0.4885
 9372TIP3   OH249530   1.960   2.016   4.326  0.1873  0.2025 -0.1955
 9372TIP3    H149531   2.042   1.977   4.355 -0.1714 -0.0220  0.5387
 9372TIP3    H249532   1.893   1.952   4.352 -0.0380 -0.6196 -2.6876
 9373TIP3   OH249533   4.999   0.912   2.529  0.5814 -1.2862  0.2288
 9373TIP3    H149534   4.972   0.826   2.560 -1.3742 -0.9434 -0.3885
 9373TIP3    H249535   4.972   0.972   2.598 -2.0330 -0.7382 -1.1800
 9374TIP3   OH249536   3.875   4.879   3.989 -0.3362  0.0138 -0.2903
 9374TIP3    H149537   3.821   4.809   3.953 -0.3961  0.3429 -0.8451
 9374TIP3    H249538   3.839   4.894   4.077 -0.8235 -0.1121 -0.4664
 9375TIP3   OH249539   5.253   1.694   2.826 -0.3333 -0.2432  0.0428
 9375TIP3    H149540   5.173   1.743   2.804  1.7850  3.5253  0.3004
 9375TIP3    H249541   5.297   1.681   2.742 -0.1781 -0.3968  0.1478
 9376TIP3   OH249542   5.179   5.435  15.207 -0.0089 -0.1524 -0.5855
 9376TIP3    H149543   5.257   5.475  15.245 -0.6631  0.9643 -0.4080
 9376TIP3    H249544   5.129   5.508  15.170 -0.6146 -0.9387 -1.3552
 9377TIP3   OH249545   4.546   4.254   0.880  0.3934  0.2471 -0.4476
 9377TIP3    H149546   4.559   4.186   0.946 -0.5024  1.2836  0.8201
 9377TIP3    H249547   4.498   4.210   0.810  1.5066 -0.9065 -0.5247
 9378TIP3   OH249548   1.507   4.084   3.705 -0.4473  0.1537 -0.1244
 9378TIP3    H149549   1.574   4.142   3.740 -0.8003 -0.3152  1.3853
 9378TIP3    H249550   1.497   4.016   3.772 -2.2429  0.0960 -0.4244
 9379TIP3   OH249551   1.883   4.912   5.994  0.1683  0.0319  0.2888
 9379TIP3    H149552   1.965   4.951   5.963 -0.0150  0.9640  0.9713
 9379TIP3    H249553   1.883   4.824   5.956  0.6509  0.6321 -1.1418
 9380TIP3   OH249554   4.386   6.621   0.306 -0.0530  0.1267  0.1584
 9380TIP3    H149555   4.368   6.536   0.267 -0.0205  0.4339 -0.5429
 9380TIP3    H249556   4.399   6.603   0.399 -0.0089 -0.6366  0.0077
 9381TIP3   OH249557   4.494   0.633  15.609  0.0093 -0.7866  0.2229
 9381TIP3    H149558   4.399   0.637  15.595 -0.2495 -1.4842  1.6922
 9381TIP3    H249559   4.531   0.665  15.526 -1.5045  0.4484 -0.0244
 9382TIP3   OH249560   4.712   2.440   1.091 -0.2500 -0.9912  0.0466
 9382TIP3    H149561   4.712   2.528   1.053 -1.8421 -1.2569 -0.6406
 9382TIP3    H249562   4.802   2.410   1.084  0.8414  1.4685  2.4241
 9383TIP3   OH249563   1.398   1.587  11.706 -0.3053  0.2277  0.1365
 9383TIP3    H149564   1.303   1.597  11.713 -0.3353 -0.3660  0.6255
 9383TIP3    H249565   1.429   1.675  11.684 -1.0771  0.1736 -1.2545
 9384TIP3   OH249566   0.219   4.134   2.746 -0.3322  0.0338  0.1543
 9384TIP3    H149567   0.147   4.189   2.713 -0.4641 -0.0229  0.3493
 9384TIP3    H249568   0.176   4.066   2.797 -0.2648 -1.1245 -1.3246
 9385TIP3   OH249569   0.103   5.102  12.758  0.3079 -0.0910 -0.5894
 9385TIP3    H149570   0.069   5.190  12.778 -0.0833 -0.7207  1.6744
 9385TIP3    H249571   0.197   5.109  12.776  0.6197  0.3739 -2.3092
 9386TIP3   OH249572   3.172   0.064   0.816 -0.3852 -0.1153  0.3739
 9386TIP3    H149573   3.089   0.048   0.861 -0.3631  0.5329  0.6491
 9386TIP3    H249574   3.239   0.035   0.878 -0.3521  0.8508  0.7991
 9387TIP3   OH249575   4.845   6.766   5.975  0.1691  0.4165 -0.2939
 9387TIP3    H149576   4.874   6.688   5.926  1.5693  1.7203 -1.5920
 9387TIP3    H249577   4.905   6.770   6.049 -0.8432 -0.5722  0.5850
 9388TIP3   OH249578   4.491   1.454  15.484 -0.3904 -0.3376 -0.3689
 9388TIP3    H149579   4.523   1.418  15.567  1.2631 -0.6124 -1.0943
 9388TIP3    H249580   4.465   1.377  15.434 -0.7230 -0.2234 -0.3676
 9389TIP3   OH249581   6.183   5.029  15.023  0.0632 -0.2543  0.0046
 9389TIP3    H149582   6.221   5.032  14.935 -0.9461  0.5865 -0.4149
 9389TIP3    H249583   6.200   5.116  15.059  0.6173 -0.6526  0.7071
 9390TIP3   OH249584   2.409   2.824   1.773 -0.0616 -0.3054  0.1170
 9390TIP3    H149585   2.481   2.802   1.714 -0.7622 -4.8388  0.7785
 9390TIP3    H249586   2.335   2.840   1.715  0.6292  1.0141 -0.4232
 9391TIP3   OH249587   2.430   1.130   1.065  0.7133  0.1733 -0.0725
 9391TIP3    H149588   2.371   1.146   0.991  0.0259 -0.8850  0.2329
 9391TIP3    H249589   2.386   1.062   1.116  0.3399  2.0983  2.2619
 9392TIP3   OH249590   3.323   6.634  16.128 -0.9699  0.3629 -0.1274
 9392TIP3    H149591   3.231   6.633  16.101 -0.8198 -0.6753 -0.6176
 9392TIP3    H249592   3.367   6.575  16.066  0.0025  0.7317  0.1971
 9393TIP3   OH249593   3.373   2.182  12.927  0.0366  0.0157 -0.3596
 9393TIP3    H149594   3.380   2.261  12.980 -0.9680  0.1843 -0.4759
 9393TIP3    H249595   3.445   2.189  12.864  2.0401 -0.8094  1.7802
 9394TIP3   OH249596   4.751   3.573   1.173 -0.5518 -0.1017 -0.1605
 9394TIP3    H149597   4.700   3.492   1.163 -0.7346  0.0992 -0.8509
 9394TIP3    H249598   4.700   3.640   1.127 -0.1081  0.2838 -0.0940
 9395TIP3   OH249599   4.176   6.493  15.177 -0.5512 -0.0708 -0.0036
 9395TIP3    H149600   4.265   6.526  15.182 -0.7004  0.7857 -2.2019
 9395TIP3    H249601   4.122   6.566  15.208 -0.3995 -1.5468  4.0537
 9396TIP3   OH249602   0.892   0.149  17.187 -0.3020  0.1182  0.3960
 9396TIP3    H149603   0.889   0.238  17.151 -0.4871 -0.4418 -1.0386
 9396TIP3    H249604   0.830   0.150  17.260  2.1048  2.0409  2.5020
 9397TIP3   OH249605   2.660   2.552   4.106 -0.2472  0.7137 -0.2117
 9397TIP3    H149606   2.723   2.615   4.072 -0.3712  1.6023  1.1931
 9397TIP3    H249607   2.645   2.578   4.196  0.6314 -2.0476  0.7983
 9398TIP3   OH249608   1.558   3.635   2.227 -0.8631 -0.2146  0.2502
 9398TIP3    H149609   1.522   3.577   2.293 -1.0771 -1.5532 -1.0158
 9398TIP3    H249610   1.498   3.626   2.152  0.0945  0.2642 -0.5867
 9399TIP3   OH249611   6.284   3.620   3.443 -0.2031  0.2548 -0.4743
 9399TIP3    H149612   6.215   3.679   3.412 -0.5753 -0.9336 -1.9727
 9399TIP3    H249613   6.243   3.569   3.513  0.1951  1.9112  1.0107
 9400TIP3   OH249614   4.650   0.494  15.790  0.3141 -0.3950 -0.3588
 9400TIP3    H149615   4.728   0.539  15.758 -0.4627  1.7563  0.7018
 9400TIP3    H249616   4.582   0.513  15.726 -0.2009  0.5497  0.4548
 9401TIP3   OH249617   3.286   4.855   3.907  0.0222  0.0032 -0.7121
 9401TIP3    H149618   3.262   4.834   3.816 -0.8461 -0.5274 -0.3644
 9401TIP3    H249619   3.291   4.771   3.951  0.2771  0.2754 -0.2211
 9402TIP3   OH249620   3.531   3.919   2.551  0.3615  0.0921 -0.0659
 9402TIP3    H149621   3.511   3.846   2.492  0.7958  0.1595 -0.2966
 9402TIP3    H249622   3.454   3.926   2.607 -0.1758  0.2045 -0.8075
 9403TIP3   OH249623   1.360   5.328  13.684 -0.1088 -0.2009 -0.0218
 9403TIP3    H149624   1.372   5.237  13.656 -0.9318 -0.3474  0.0898
 9403TIP3    H249625   1.266   5.337  13.697  0.1270  0.1960  1.5587
 9404TIP3   OH249626   1.873   1.114  12.133  0.3940 -0.4459 -0.0459
 9404TIP3    H149627   1.959   1.133  12.096  0.2571  0.0157 -0.1306
 9404TIP3    H249628   1.891   1.054  12.205  0.9681  0.9189  0.9821
 9405TIP3   OH249629   5.410   4.968  14.606  0.2507 -0.0358  0.4509
 9405TIP3    H149630   5.383   5.004  14.522  0.5453  0.9067  0.7507
 9405TIP3    H249631   5.364   5.022  14.671 -0.5339 -1.2112  0.8846
 9406TIP3   OH249632   3.546   3.214  14.804  0.1437  0.8452  0.0200
 9406TIP3    H149633   3.592   3.131  14.790 -0.6385  0.6821 -1.6901
 9406TIP3    H249634   3.588   3.275  14.743  0.1261  1.4917  0.6456
 9407TIP3   OH249635   6.688   2.049  13.590 -0.1270  0.1736 -1.0014
 9407TIP3    H149636   6.623   2.091  13.646 -1.7388 -0.4879 -2.3148
 9407TIP3    H249637   6.757   2.020  13.650  0.2582  3.2458  0.0960
 9408TIP3   OH249638   3.522   6.752   5.587 -0.1033  0.3420  0.5216
 9408TIP3    H149639   3.525   6.784   5.677 -2.6423  2.9206 -0.2524
 9408TIP3    H249640   3.444   6.697   5.584  0.0022  0.2241 -0.1018
 9409TIP3   OH249641   3.981   6.687   2.126 -0.1534  0.1425 -0.6114
 9409TIP3    H149642   3.949   6.776   2.114 -0.2280  0.1733 -0.1788
 9409TIP3    H249643   3.903   6.636   2.148  0.1387  0.2734  0.7427
 9410TIP3   OH249644   6.300   4.144  13.660 -0.1916  0.4580 -0.0257
 9410TIP3    H149645   6.317   4.051  13.672 -0.3722  0.2363 -1.4228
 9410TIP3    H249646   6.386   4.184  13.649 -0.0155  0.6764  1.9474
 9411TIP3   OH249647   0.285   3.476  11.152  0.2654 -0.4197  0.4107
 9411TIP3    H149648   0.282   3.478  11.247  0.7278 -3.0306  0.5269
 9411TIP3    H249649   0.360   3.531  11.128  1.5357 -1.5772  1.6757
 9412TIP3   OH249650   1.096   0.746   4.495 -0.0378 -0.1041 -0.3203
 9412TIP3    H149651   1.049   0.782   4.420  0.0448  0.4391 -0.1138
 9412TIP3    H249652   1.177   0.796   4.499 -0.1367  0.0098  0.2567
 9413TIP3   OH249653   3.563   3.077  14.035 -0.1550 -1.1341 -0.2021
 9413TIP3    H149654   3.613   2.995  14.034  1.3580 -0.2278 -1.2132
 9413TIP3    H249655   3.473   3.051  14.019  0.3697 -2.5672 -0.8978
 9414TIP3   OH249656   1.428   0.760  16.405  0.2662  0.2162  0.1882
 9414TIP3    H149657   1.499   0.768  16.469 -0.2953 -0.2650  0.8724
 9414TIP3    H249658   1.394   0.671  16.418  0.1283  0.1307 -0.7534
 9415TIP3   OH249659   4.982   0.129   3.740 -0.0746 -0.7661 -0.7094
 9415TIP3    H149660   4.957   0.166   3.655 -1.8667 -0.7046 -0.1863
 9415TIP3    H249661   4.958   0.196   3.803 -0.4680 -1.5524 -0.0134
 9416TIP3   OH249662   6.310   2.310   0.134 -0.0499 -0.3442  0.0234
 9416TIP3    H149663   6.401   2.334   0.146  0.1890 -1.8486  1.4116
 9416TIP3    H249664   6.262   2.361   0.199 -0.2503  0.7020 -0.9342
 9417TIP3   OH249665   2.314   1.843  15.211  0.0553  0.0904  0.2844
 9417TIP3    H149666   2.270   1.865  15.293  0.2711 -1.6875  0.8971
 9417TIP3    H249667   2.274   1.901  15.146 -1.2945  0.3632  1.3315
 9418TIP3   OH249668   3.052   3.439   2.633 -0.1774 -0.0680  0.2410
 9418TIP3    H149669   3.009   3.436   2.718 -1.5362  1.2342 -0.3836
 9418TIP3    H249670   3.138   3.478   2.650 -0.6883  0.7701  0.9191
 9419TIP3   OH249671   4.225   6.138  11.641 -0.3137  0.4431  0.6795
 9419TIP3    H149672   4.263   6.196  11.576  0.0791  1.5750  1.9115
 9419TIP3    H249673   4.285   6.064  11.646  0.0073  0.6779  0.2607
 9420TIP3   OH249674   6.630   5.116  14.535  0.2619  0.4196 -0.2176
 9420TIP3    H149675   6.578   5.147  14.609  0.4073  1.9857 -0.7550
 9420TIP3    H249676   6.606   5.174  14.463  0.2324 -1.0073 -1.3606
 9421TIP3   OH249677   4.593   4.738  11.646 -0.0418  0.2236  0.1375
 9421TIP3    H149678   4.688   4.738  11.650  0.0379 -0.8787 -1.3727
 9421TIP3    H249679   4.566   4.791  11.721  1.7697  1.2205  0.1134
 9422TIP3   OH249680   1.148   4.635  11.172 -0.4291 -0.1877 -0.4814
 9422TIP3    H149681   1.139   4.710  11.231 -0.9315  1.1896 -2.2755
 9422TIP3    H249682   1.231   4.650  11.127 -1.5514  0.4098 -2.3777
 9423TIP3   OH249683   3.712   3.342   3.337 -0.7929 -0.1129 -0.1843
 9423TIP3    H149684   3.793   3.306   3.303 -0.4283  1.1898 -0.7065
 9423TIP3    H249685   3.666   3.266   3.374  1.7680 -0.4971  2.3947
 9424TIP3   OH249686   1.059   4.743   2.251  0.4675 -0.0046 -0.4092
 9424TIP3    H149687   0.986   4.794   2.218 -0.8526  0.4473  3.0489
 9424TIP3    H249688   1.113   4.806   2.299  2.2412 -0.6634 -1.4808
 9425TIP3   OH249689   2.925   1.685   3.647  0.0420 -0.0780  0.6146
 9425TIP3    H149690   2.992   1.660   3.582  1.1750  0.2114  1.6469
 9425TIP3    H249691   2.958   1.766   3.686 -1.4710  0.6712  0.3610
 9426TIP3   OH249692   1.829   1.946   1.372  0.2355  0.1172  0.0614
 9426TIP3    H149693   1.846   2.040   1.362 -0.2495  0.2937  0.9304
 9426TIP3    H249694   1.825   1.913   1.282  2.4195  0.5552 -0.2416
 9427TIP3   OH249695   2.586   2.620   4.346 -0.0793 -0.0022 -0.3085
 9427TIP3    H149696   2.610   2.539   4.391 -0.0095 -1.1593 -2.3371
 9427TIP3    H249697   2.526   2.664   4.406  4.1103  1.1791  3.2780
 9428TIP3   OH249698   4.578   3.388  14.953  0.2320 -0.6191 -0.1697
 9428TIP3    H149699   4.534   3.461  14.909 -0.8572 -1.8696 -1.1933
 9428TIP3    H249700   4.672   3.403  14.937 -0.1184 -0.7673 -2.4951
 9429TIP3   OH249701   5.574   3.292  15.094  0.0565  0.3366 -0.3798
 9429TIP3    H149702   5.601   3.328  15.178  1.3777  2.4016 -1.6368
 9429TIP3    H249703   5.512   3.222  15.116  1.0872  0.2161  2.3215
 9430TIP3   OH249704   0.688   1.422   4.821 -0.5600  0.1691  0.2881
 9430TIP3    H149705   0.777   1.429   4.855 -0.7392  0.1126  0.7749
 9430TIP3    H249706   0.633   1.416   4.899 -0.9172 -0.6127 -0.0159
 9431TIP3   OH249707   4.587   0.210   2.413 -0.1206  0.0064 -0.0942
 9431TIP3    H149708   4.673   0.168   2.416 -0.2807 -0.4084 -1.0045
 9431TIP3    H249709   4.567   0.217   2.319 -0.3662  1.5812  0.0580
 9432TIP3   OH249710   2.324   4.258   1.377  0.6643 -0.1432 -0.0181
 9432TIP3    H149711   2.375   4.289   1.452 -0.1470  0.0772  0.4501
 9432TIP3    H249712   2.233   4.271   1.403  0.3736 -0.1583 -1.0055
 9433TIP3   OH249713   2.886   0.699   3.186  0.0939  0.1963 -0.0245
 9433TIP3    H149714   2.791   0.712   3.198  0.4077  1.4864  1.1619
 9433TIP3    H249715   2.920   0.687   3.274  1.0379 -0.3279 -0.4595
 9434TIP3   OH249716   4.414   4.101   3.111 -0.7241 -0.0004 -0.3788
 9434TIP3    H149717   4.498   4.137   3.082 -1.4351  0.7952 -1.4436
 9434TIP3    H249718   4.349   4.165   3.083 -1.6181 -0.1909  1.2009
 9435TIP3   OH249719   5.073   3.730   4.120 -0.0787  0.3144 -0.2274
 9435TIP3    H149720   5.091   3.737   4.213 -0.3399 -0.8331 -0.0837
 9435TIP3    H249721   5.095   3.816   4.084  2.3985 -0.0062  0.4703
 9436TIP3   OH249722   0.375   4.004  14.794  0.4573 -0.1462 -0.1423
 9436TIP3    H149723   0.313   3.946  14.750 -1.2573  1.2673  0.3133
 9436TIP3    H249724   0.357   3.992  14.887 -0.0312  1.1985 -0.0517
 9437TIP3   OH249725   6.036   4.251   2.271  0.0206  0.1574  0.5123
 9437TIP3    H149726   6.005   4.331   2.313 -0.1298  0.2186  0.2830
 9437TIP3    H249727   6.132   4.260   2.272 -0.0585  1.3686 -1.5132
 9438TIP3   OH249728   0.768   6.019   3.176  0.0416 -0.0002  0.1543
 9438TIP3    H149729   0.819   5.949   3.136 -0.1502  1.1465 -2.1393
 9438TIP3    H249730   0.691   5.974   3.211  0.0852 -0.9924 -0.9789
 9439TIP3   OH249731   3.325   3.298  15.523 -0.6659  0.3728 -0.0648
 9439TIP3    H149732   3.239   3.335  15.544 -1.4863 -1.0996 -0.7360
 9439TIP3    H249733   3.311   3.250  15.441  0.4396 -1.0955  0.5816
 9440TIP3   OH249734   3.554   4.747  13.695 -0.1342 -0.0173 -0.2218
 9440TIP3    H149735   3.643   4.743  13.731 -0.2022  1.5215  0.1401
 9440TIP3    H249736   3.566   4.749  13.600  0.3667  2.7903 -0.1488
 9441TIP3   OH249737   1.284   5.914  11.701 -0.4589  0.1455  0.0895
 9441TIP3    H149738   1.213   5.943  11.643 -1.1065  0.5580  1.0906
 9441TIP3    H249739   1.240   5.859  11.766  0.1860  0.1989  0.5630
 9442TIP3   OH249740   6.475   4.814  11.803 -0.3828  0.4804  0.4724
 9442TIP3    H149741   6.384   4.826  11.777 -0.5237  1.3010  1.3268
 9442TIP3    H249742   6.510   4.750  11.740 -1.7189 -0.3262  0.5380
 9443TIP3   OH249743   3.113   5.160   3.519  0.1685  0.3159  0.1725
 9443TIP3    H149744   3.190   5.110   3.547  0.2101  0.6834  0.7081
 9443TIP3    H249745   3.051   5.093   3.491  0.0784 -0.0657  1.2562
 9444TIP3   OH249746   0.167   3.704  12.034  0.4686 -0.3235 -0.2662
 9444TIP3    H149747   0.163   3.779  12.094  0.0666 -1.0110  0.5712
 9444TIP3    H249748   0.080   3.664  12.041  1.3181 -2.0029  0.7410
 9445TIP3   OH249749   5.475   4.142  14.382  0.2453  0.0710  0.7040
 9445TIP3    H149750   5.518   4.150  14.467  1.0811 -0.3744  0.3261
 9445TIP3    H249751   5.529   4.193  14.322  0.3561 -0.6245  0.1947
 9446TIP3   OH249752   2.434   2.748  13.408  0.2657 -0.3774  0.0492
 9446TIP3    H149753   2.370   2.705  13.351  0.8537  0.8048 -1.5519
 9446TIP3    H249754   2.446   2.688  13.481 -1.2683 -1.4707 -0.5721
 9447TIP3   OH249755   6.142   3.804   4.605  0.0743 -0.2574 -0.0915
 9447TIP3    H149756   6.109   3.759   4.683  2.2445 -1.0420  0.4063
 9447TIP3    H249757   6.235   3.817   4.623  0.2245  1.1816 -1.8026
 9448TIP3   OH249758   0.801   0.657  15.797 -0.2380 -0.2639  0.1071
 9448TIP3    H149759   0.800   0.624  15.886  1.3051 -0.0488  0.2111
 9448TIP3    H249760   0.803   0.578  15.742  1.6970 -0.3780  0.3224
 9449TIP3   OH249761   3.494   2.842  16.489  0.2963  0.2276 -0.0396
 9449TIP3    H149762   3.479   2.919  16.543 -0.8283  0.6716 -0.9760
 9449TIP3    H249763   3.416   2.788  16.501 -0.7930  1.1837 -2.6422
 9450TIP3   OH249764   5.009   4.630   3.069 -0.2727 -0.1555 -0.0271
 9450TIP3    H149765   5.103   4.640   3.087 -0.2024 -0.1799 -0.3849
 9450TIP3    H249766   4.967   4.642   3.154  0.1662 -1.7886  0.4402
 9451TIP3   OH249767   6.529   5.947   2.002  0.1215  0.4834 -0.0406
 9451TIP3    H149768   6.501   5.947   1.910  0.4019 -0.2460 -0.1301
 9451TIP3    H249769   6.469   6.007   2.045 -0.1851  0.6232 -0.6538
 9452TIP3   OH249770   4.846   5.409  14.059  0.1370 -0.0247 -0.3533
 9452TIP3    H149771   4.865   5.357  13.981  0.9526  0.3187 -0.3830
 9452TIP3    H249772   4.875   5.354  14.132  1.9774  0.7993 -0.4329
 9453TIP3   OH249773   5.796   4.026   2.198 -0.2727 -0.1873  1.0257
 9453TIP3    H149774   5.861   4.090   2.228  0.4003 -0.5091  0.2573
 9453TIP3    H249775   5.847   3.952   2.165 -0.9519  0.4822 -1.6881
 9454TIP3   OH249776   6.439   0.521  12.235 -0.2014 -0.1716  0.2626
 9454TIP3    H149777   6.360   0.491  12.191 -0.5794  0.5687  0.4394
 9454TIP3    H249778   6.486   0.572  12.169 -0.4601  0.4029  0.5180
 9455TIP3   OH249779   1.355   2.453   0.348 -0.3671  0.0463 -0.1625
 9455TIP3    H149780   1.262   2.473   0.335 -0.8416 -0.6996  1.7820
 9455TIP3    H249781   1.376   2.392   0.277 -1.2359  0.5891 -0.9010
 9456TIP3   OH249782   4.939   0.919   2.806 -0.1051 -0.5589 -0.5228
 9456TIP3    H149783   5.000   0.993   2.808 -1.0091  0.1902  0.2987
 9456TIP3    H249784   4.969   0.862   2.876  0.9183 -1.2548 -1.5065
 9457TIP3   OH249785   3.857   2.865  15.996  0.0482 -0.1221 -0.1204
 9457TIP3    H149786   3.847   2.936  15.933 -0.3153  0.4229  0.5398
 9457TIP3    H249787   3.767   2.837  16.014 -0.1112  2.0125  2.7131
 9458TIP3   OH249788   5.669   4.003  13.216 -0.3629 -0.3844 -0.2662
 9458TIP3    H149789   5.746   4.048  13.251  0.3795 -0.4476 -1.7726
 9458TIP3    H249790   5.633   3.956  13.290  0.5169  0.3996  0.6751
 9459TIP3   OH249791   3.269   2.956  17.176  0.9117  0.0830 -0.5107
 9459TIP3    H149792   3.204   2.977  17.242  0.0750 -0.7368 -1.0594
 9459TIP3    H249793   3.221   2.963  17.093  0.9729 -2.4531 -0.8102
 9460TIP3   OH249794   0.866   4.691   5.923  0.2324  0.3373 -0.4736
 9460TIP3    H149795   0.811   4.728   5.854  1.4125 -1.0735 -2.2205
 9460TIP3    H249796   0.822   4.716   6.005 -1.7062  1.2359 -1.7535
 9461TIP3   OH249797   0.393   4.592   2.936 -0.0632  0.2351 -0.5940
 9461TIP3    H149798   0.388   4.505   2.896 -2.4008  0.6642 -1.2976
 9461TIP3    H249799   0.329   4.590   3.006 -0.2307  1.4437 -0.7098
 9462TIP3   OH249800   1.962   1.784   5.611 -0.6626 -0.0395 -0.0604
 9462TIP3    H149801   1.937   1.742   5.694  0.9473  2.6245  1.8197
 9462TIP3    H249802   1.881   1.824   5.579 -0.9257  0.2991  1.0309
 9463TIP3   OH249803   3.890   4.693  10.125 -0.1525 -0.8715 -0.1134
 9463TIP3    H149804   3.859   4.607  10.153 -1.3640 -0.5924 -0.5763
 9463TIP3    H249805   3.811   4.740  10.099  0.5244  0.3142 -0.0613
 9464TIP3   OH249806   3.930   3.562  12.815  0.2584  0.3206  0.4740
 9464TIP3    H149807   4.018   3.536  12.844 -0.4466 -0.3783  2.0350
 9464TIP3    H249808   3.879   3.568  12.895 -1.5643 -0.9836 -0.5423
 9465TIP3   OH249809   1.114   0.688  11.327 -0.1181  0.4865 -0.2960
 9465TIP3    H149810   1.110   0.774  11.284  0.7196  0.0854 -1.1943
 9465TIP3    H249811   1.180   0.640  11.277  0.6766 -0.0819  1.2727
 9466TIP3   OH249812   4.117   1.747  17.179  0.1742 -0.2271 -0.2766
 9466TIP3    H149813   4.143   1.742  17.271  2.3365 -0.7640 -0.8921
 9466TIP3    H249814   4.024   1.769  17.182 -0.2997 -2.3009  2.0732
 9467TIP3   OH249815   3.552   2.771   4.613  0.5228 -0.2510  0.2164
 9467TIP3    H149816   3.580   2.839   4.674  1.7404  0.9615 -1.6217
 9467TIP3    H249817   3.605   2.695   4.635  2.5485  0.8402 -0.6881
 9468TIP3   OH249818   2.999   2.606  15.828  0.1341  0.1988 -0.2052
 9468TIP3    H149819   3.033   2.520  15.851  0.7202  0.3212 -0.5869
 9468TIP3    H249820   3.077   2.657  15.804 -0.0681  1.1958  1.1702
 9469TIP3   OH249821   0.977   3.796   3.079  0.3659  0.7477  0.1284
 9469TIP3    H149822   1.068   3.824   3.090  0.4022  0.7249 -0.1099
 9469TIP3    H249823   0.953   3.759   3.164  0.4612  1.0911  0.3055
 9470TIP3   OH249824   0.255   4.493   4.981 -0.2658  0.1023 -0.1735
 9470TIP3    H149825   0.175   4.442   4.968 -0.2202 -0.5767  2.0754
 9470TIP3    H249826   0.232   4.581   4.951 -1.6100 -0.2870 -0.3050
 9471TIP3   OH249827   5.543   1.759  16.160  0.2492  0.6150  0.5548
 9471TIP3    H149828   5.613   1.715  16.208 -0.3071  0.8835  1.6327
 9471TIP3    H249829   5.505   1.820  16.223 -1.5467 -0.1791  0.2699
 9472TIP3   OH249830   5.744   6.669  15.827  0.1986 -0.7894 -0.8080
 9472TIP3    H149831   5.781   6.582  15.841  0.3102 -0.5958  0.2017
 9472TIP3    H249832   5.815   6.729  15.852 -0.4571 -0.4172  0.1857
 9473TIP3   OH249833   6.719   2.126  14.732  0.1801 -0.1602  0.2407
 9473TIP3    H149834   6.806   2.164  14.728  0.1090 -0.0280 -0.0733
 9473TIP3    H249835   6.733   2.033  14.714 -0.0817  0.3600 -2.9715
 9474TIP3   OH249836   4.711   3.000   5.546 -0.1317  0.1430  0.2993
 9474TIP3    H149837   4.775   2.930   5.538 -0.8483 -0.4834 -0.0189
 9474TIP3    H249838   4.630   2.956   5.573 -0.1501  1.0541  1.8357
 9475TIP3   OH249839   1.546   2.572   5.022 -0.5841 -0.7471 -0.0490
 9475TIP3    H149840   1.504   2.613   4.946 -0.8742 -1.0226 -0.0416
 9475TIP3    H249841   1.619   2.522   4.986 -0.8605 -1.0646 -0.1754
 9476TIP3   OH249842   3.166   4.825  14.721  0.3622  0.7224  0.7882
 9476TIP3    H149843   3.258   4.834  14.695  0.1718  1.0928  0.2402
 9476TIP3    H249844   3.142   4.912  14.753 -0.1195  0.9326 -0.1212
 9477TIP3   OH249845   3.426   2.911   4.181  0.2223 -0.1047  0.5736
 9477TIP3    H149846   3.487   2.985   4.176  1.2519 -1.0953 -1.9851
 9477TIP3    H249847   3.350   2.939   4.131 -0.5804  0.3020  1.9943
 9478TIP3   OH249848   6.452   4.496  10.698 -0.0055  0.3757  0.3936
 9478TIP3    H149849   6.379   4.436  10.684  0.4334 -0.3363  1.1159
 9478TIP3    H249850   6.512   4.477  10.625 -2.3529  3.8194 -2.6227
 9479TIP3   OH249851   1.425   5.389   2.155  0.2994  0.2741  0.1532
 9479TIP3    H149852   1.516   5.368   2.134 -0.9211 -2.2369 -3.0506
 9479TIP3    H249853   1.386   5.412   2.071 -2.6980 -1.4519  1.0027
 9480TIP3   OH249854   6.434   0.189   1.650  0.4196  0.4132 -0.5571
 9480TIP3    H149855   6.421   0.254   1.580 -1.6041 -0.6895 -1.2734
 9480TIP3    H249856   6.387   0.111   1.619  2.6468 -1.3638  0.3593
 9481TIP3   OH249857   1.884   0.858  14.585 -0.8786  0.0918  0.3410
 9481TIP3    H149858   1.817   0.790  14.580  0.7066 -1.4511 -0.6141
 9481TIP3    H249859   1.957   0.816  14.631  0.6191  0.6923 -1.4178
 9482TIP3   OH249860   1.828   1.200   3.311 -0.3114 -0.5233 -0.3983
 9482TIP3    H149861   1.810   1.112   3.281 -2.6967  0.0829 -0.8325
 9482TIP3    H249862   1.922   1.200   3.330 -0.0467 -2.7822 -1.5392
 9483TIP3   OH249863   2.160   0.327  11.206  0.6397  0.2271  0.4146
 9483TIP3    H149864   2.209   0.351  11.285 -1.5970  0.4635  1.7857
 9483TIP3    H249865   2.126   0.239  11.225 -1.3297  0.9619  0.4648
 9484TIP3   OH249866   0.880   0.533  12.899 -0.0499 -0.3039 -0.0492
 9484TIP3    H149867   0.924   0.549  12.815 -0.2064 -0.2986 -0.1295
 9484TIP3    H249868   0.943   0.481  12.950 -0.4662 -1.4000 -0.6414
 9485TIP3   OH249869   5.224   0.518  14.970 -0.1686 -0.2196 -0.1818
 9485TIP3    H149870   5.271   0.502  14.888  0.2582 -0.0847  0.0379
 9485TIP3    H249871   5.290   0.552  15.029 -0.3746 -0.7685  0.3659
 9486TIP3   OH249872   1.193   6.320   3.484 -0.3686  1.0333 -0.3051
 9486TIP3    H149873   1.186   6.349   3.393 -1.2420  0.5953 -0.3800
 9486TIP3    H249874   1.170   6.227   3.481  3.5342 -0.0623 -0.2612
 9487TIP3   OH249875   4.228   2.104   1.342  0.1007 -0.2734 -0.1255
 9487TIP3    H149876   4.156   2.163   1.321 -1.4990 -2.6515 -1.5493
 9487TIP3    H249877   4.204   2.066   1.427  1.0965  0.9831  0.7569
 9488TIP3   OH249878   4.776   5.606   4.211 -0.1920 -0.1727 -0.3106
 9488TIP3    H149879   4.695   5.640   4.250 -0.8840 -2.7610  0.6292
 9488TIP3    H249880   4.752   5.587   4.120 -0.4536 -0.3158 -0.2118
 9489TIP3   OH249881   2.193   0.040  11.661 -0.3102 -0.7744 -0.0581
 9489TIP3    H149882   2.216  -0.029  11.723  0.5248  0.0646  0.5795
 9489TIP3    H249883   2.149   0.107  11.714 -3.2716 -1.8207 -1.0455
 9490TIP3   OH249884   2.466   1.104   2.167 -0.6418 -0.4967 -0.3142
 9490TIP3    H149885   2.435   1.067   2.084 -1.2554  1.5733 -1.0459
 9490TIP3    H249886   2.553   1.139   2.146 -0.3312 -0.9684  0.1973
 9491TIP3   OH249887   5.170   4.167  14.449  0.5336  0.7534  0.3184
 9491TIP3    H149888   5.237   4.232  14.471 -0.5430  2.2147 -0.6441
 9491TIP3    H249889   5.220   4.092  14.416  1.8513  0.6808  2.3733
 9492TIP3   OH249890   3.584   6.517   5.178  0.1977 -0.0453 -0.5795
 9492TIP3    H149891   3.651   6.562   5.229 -1.0330  1.6246 -0.4262
 9492TIP3    H249892   3.501   6.548   5.213 -0.6920 -2.4700 -0.4468
 9493TIP3   OH249893   5.900   1.131   2.356 -0.3862  0.6756 -0.4184
 9493TIP3    H149894   5.859   1.060   2.307  0.2730  2.3299 -3.4409
 9493TIP3    H249895   5.994   1.112   2.352 -0.2673  1.2867 -0.5442
 9494TIP3   OH249896   1.775   6.296  16.051  0.0809 -1.0218  0.2824
 9494TIP3    H149897   1.867   6.291  16.076  0.6181  4.6456  0.2073
 9494TIP3    H249898   1.776   6.321  15.959 -1.5511 -1.3172  0.1694
 9495TIP3   OH249899   3.803   2.429   5.235 -0.1018  0.0882 -0.2422
 9495TIP3    H149900   3.739   2.500   5.234  1.0115  1.1119  0.1831
 9495TIP3    H249901   3.750   2.349   5.241 -1.3573  0.8772 -0.5917
 9496TIP3   OH249902   6.139   4.792   5.633 -0.5313 -0.1226  0.3241
 9496TIP3    H149903   6.122   4.868   5.688 -4.1953 -1.3148  0.9249
 9496TIP3    H249904   6.152   4.829   5.545 -1.2704  1.2706  0.7891
 9497TIP3   OH249905   6.595   4.135  11.626  0.2414  0.3282 -0.1124
 9497TIP3    H149906   6.562   4.054  11.588  2.3263 -1.1471  1.1026
 9497TIP3    H249907   6.561   4.135  11.715  2.1066 -0.3892  0.6223
 9498TIP3   OH249908   3.797   4.077  14.287 -0.2451  0.1734  0.2776
 9498TIP3    H149909   3.831   4.030  14.210  1.6313  2.6069 -0.4312
 9498TIP3    H249910   3.873   4.086  14.345 -1.0465  0.6594  1.2599
 9499TIP3   OH249911   5.282   0.244  13.478  0.2449  0.2708 -0.0395
 9499TIP3    H149912   5.211   0.179  13.473  0.3076  0.1534  0.5215
 9499TIP3    H249913   5.295   0.258  13.572 -0.3135  1.7000 -0.1594
 9500TIP3   OH249914   3.753   5.955   4.485  0.2266 -0.5459  0.4437
 9500TIP3    H149915   3.750   5.893   4.558  0.2920  0.2194  1.0924
 9500TIP3    H249916   3.800   6.031   4.518  0.1459 -0.1365 -0.3508
 9501TIP3   OH249917   3.194   0.136  15.001  0.1873 -0.2460 -0.0796
 9501TIP3    H149918   3.251   0.110  15.074 -0.2890 -1.6286 -0.1760
 9501TIP3    H249919   3.160   0.053  14.967  0.1414  0.4183 -1.6626
 9502TIP3   OH249920   3.544   6.167  10.954  0.0909 -0.1178 -0.1403
 9502TIP3    H149921   3.514   6.217  11.030  0.4027  0.8670 -0.6662
 9502TIP3    H249922   3.608   6.105  10.990 -0.6670 -0.5012  0.5851
 9503TIP3   OH249923   2.744   0.202  11.080 -0.3254  0.3799 -0.2235
 9503TIP3    H149924   2.719   0.214  10.988 -0.2888 -1.6539 -0.5203
 9503TIP3    H249925   2.678   0.252  11.129 -0.9561  0.6267 -1.2928
 9504TIP3   OH249926   4.880   1.587   0.447  0.2342 -0.1703  0.9169
 9504TIP3    H149927   4.973   1.589   0.423 -0.0095 -2.0762 -0.2841
 9504TIP3    H249928   4.844   1.669   0.413  1.4210  0.4707  1.1884
 9505TIP3   OH249929   4.501   4.286  12.199  0.0726 -0.6445 -0.2033
 9505TIP3    H149930   4.482   4.194  12.218  1.0434 -0.9922 -0.8518
 9505TIP3    H249931   4.545   4.318  12.277 -1.5764 -0.3159  0.6094
 9506TIP3   OH249932   4.894   0.186  12.427 -0.1563  0.4427  0.2280
 9506TIP3    H149933   4.859   0.124  12.362  2.4450 -1.5253  0.6633
 9506TIP3    H249934   4.880   0.272  12.387 -1.0422 -0.5884 -1.7476
 9507TIP3   OH249935   5.261   0.566  12.550  0.6243 -0.5365  0.1046
 9507TIP3    H149936   5.218   0.529  12.626 -1.8891 -0.3391 -1.1630
 9507TIP3    H249937   5.208   0.642  12.527  0.1354 -1.7383 -3.0303
 9508TIP3   OH249938   6.580   2.718   3.080 -0.2733 -0.5044 -0.0877
 9508TIP3    H149939   6.541   2.631   3.085 -0.0094 -0.5377  1.8452
 9508TIP3    H249940   6.515   2.777   3.118  1.1349 -0.4431  2.3420
 9509TIP3   OH249941   1.853   2.283  14.418 -0.2883  0.3122 -0.2720
 9509TIP3    H149942   1.933   2.250  14.458 -1.6056 -1.4101  1.0673
 9509TIP3    H249943   1.786   2.219  14.443 -2.2256  2.0941 -0.7222
 9510TIP3   OH249944   2.170   3.061  10.843  0.0216  0.0476 -0.5222
 9510TIP3    H149945   2.091   3.113  10.832  0.1340  0.3104 -0.1202
 9510TIP3    H249946   2.216   3.069  10.760 -0.1765  0.2263 -0.6149
 9511TIP3   OH249947   0.149   6.738  13.573 -0.2621  0.1119  0.3678
 9511TIP3    H149948   0.180   6.664  13.624  0.3342 -1.3612 -2.0345
 9511TIP3    H249949   0.128   6.806  13.638  3.1089 -0.6533  2.3691
 9512TIP3   OH249950   5.738   1.703   4.606  0.0724  0.3396 -0.1014
 9512TIP3    H149951   5.752   1.713   4.512  0.6946  0.6258  0.0162
 9512TIP3    H249952   5.785   1.777   4.645  0.0230  0.0842  0.4478
 9513TIP3   OH249953   0.631   6.605  13.703 -0.0023 -0.3934  0.7276
 9513TIP3    H149954   0.727   6.605  13.708  0.1904 -2.2180 -2.0719
 9513TIP3    H249955   0.607   6.697  13.697  1.4564  0.1609  2.6043
 9514TIP3   OH249956   0.469   0.886  13.392  0.1999  0.2156 -0.0376
 9514TIP3    H149957   0.486   0.799  13.427  0.5486  0.9379  1.6716
 9514TIP3    H249958   0.555   0.919  13.365  0.2218  0.3931  0.2368
 9515TIP3   OH249959   5.010   3.947  14.337  0.0330 -0.0530 -0.5192
 9515TIP3    H149960   5.094   3.909  14.364 -0.6001 -0.3833  1.0845
 9515TIP3    H249961   5.006   4.031  14.383 -1.2501 -0.8022  0.7733
 9516TIP3   OH249962   5.122   6.010  16.635  0.0132  0.5781  0.0179
 9516TIP3    H149963   5.037   6.043  16.664  0.7036  0.6968  1.9683
 9516TIP3    H249964   5.106   5.979  16.546 -2.6081 -1.3848  1.0852
 9517TIP3   OH249965   2.600   3.396   4.687  0.3393  0.2035  0.3890
 9517TIP3    H149966   2.557   3.467   4.641  0.0213 -0.2145  0.0349
 9517TIP3    H249967   2.532   3.360   4.744  0.8953  1.1055  1.6362
 9518TIP3   OH249968   4.866   4.026  10.570  0.4995 -0.5760 -0.3174
 9518TIP3    H149969   4.849   3.964  10.641  1.5608  1.0698  1.4104
 9518TIP3    H249970   4.792   4.013  10.510 -1.8195 -0.2041  2.3346
 9519TIP3   OH249971   5.194   6.245  10.334  0.4800  0.4338  0.1030
 9519TIP3    H149972   5.193   6.170  10.274 -1.3693  1.4957 -1.2497
 9519TIP3    H249973   5.286   6.268  10.342  1.0674 -1.9475  0.4847
 9520TIP3   OH249974   3.666   1.923   2.884  0.4086 -0.4889 -0.1673
 9520TIP3    H149975   3.743   1.922   2.827 -0.3113  1.0165 -1.1772
 9520TIP3    H249976   3.592   1.940   2.826 -0.4584  0.1164  1.0792
 9521TIP3   OH249977   5.443   2.619  16.820  0.2982  0.0152  0.1354
 9521TIP3    H149978   5.378   2.642  16.754  0.8899  0.0535 -0.4391
 9521TIP3    H249979   5.394   2.621  16.903 -0.8147 -1.6220 -0.4664
 9522TIP3   OH249980   5.286   5.174   4.612  0.0638 -0.1459  0.0891
 9522TIP3    H149981   5.338   5.139   4.684  1.1587 -0.4690 -0.8351
 9522TIP3    H249982   5.196   5.149   4.633  0.4355 -0.6872  1.0731
 9523TIP3   OH249983   4.455   0.688   3.504  0.2626 -0.1565 -0.7273
 9523TIP3    H149984   4.458   0.713   3.597  2.4785 -1.8368 -0.3154
 9523TIP3    H249985   4.400   0.755   3.464 -0.2669  0.9362  1.6937
 9524TIP3   OH249986   6.649   0.388  12.042  0.3959 -0.5415 -0.0914
 9524TIP3    H149987   6.612   0.379  11.954  0.4471  0.0160 -0.1752
 9524TIP3    H249988   6.709   0.462  12.035 -0.7834  0.5351  0.7875
 9525TIP3   OH249989   5.727   4.736   0.295 -0.3453  0.2287  0.5342
 9525TIP3    H149990   5.745   4.798   0.223  0.6878 -0.0535  0.5491
 9525TIP3    H249991   5.735   4.789   0.374 -0.7398  0.3663  0.4863
 9526TIP3   OH249992   5.109   6.462   1.924 -0.1324 -0.0036 -0.0953
 9526TIP3    H149993   5.098   6.461   1.829  3.1851 -1.4611 -0.5170
 9526TIP3    H249994   5.178   6.527   1.940 -0.4380  0.0010  1.2973
 9527TIP3   OH249995   3.026   5.479   1.306 -0.3117  0.0211 -0.1420
 9527TIP3    H149996   3.085   5.459   1.379  0.0251  1.1816 -0.0798
 9527TIP3    H249997   3.019   5.575   1.307  1.1353  0.2154 -2.7208
 9528TIP3   OH249998   2.221   5.896  14.458 -0.0439  0.3823  0.4826
 9528TIP3    H149999   2.130   5.891  14.428  0.4000 -0.8525 -0.6651
 9528TIP3    H250000   2.268   5.938  14.386  1.2570 -3.6938 -1.1513
 9529TIP3   OH250001   5.254   1.362  13.377  0.3273  0.2558 -0.0126
 9529TIP3    H150002   5.249   1.458  13.374  1.3407  0.2811 -1.2690
 9529TIP3    H250003   5.215   1.339  13.461 -0.3111  1.7475  0.1196
 9530TIP3   OH250004   0.869   0.071  11.393  0.1128  0.0298  0.4016
 9530TIP3    H150005   0.954   0.115  11.385 -0.8640  2.0147  0.7263
 9530TIP3    H250006   0.860   0.021  11.312  1.6979 -0.4013  0.4779
 9531TIP3   OH250007   0.111   0.904   2.237  0.2038 -0.6716 -0.0205
 9531TIP3    H150008   0.167   0.842   2.190  0.4847 -0.9993  0.7309
 9531TIP3    H250009   0.043   0.928   2.174 -0.6163 -2.6716  0.0643
 9532TIP3   OH250010   1.430   4.760   1.825 -0.2036 -1.0801  0.1152
 9532TIP3    H150011   1.470   4.719   1.748  0.6736  0.4624 -0.2717
 9532TIP3    H250012   1.488   4.737   1.897 -0.5445 -1.7922  0.1628
 9533TIP3   OH250013   0.721   0.362   3.587  0.3436 -0.0072 -0.5949
 9533TIP3    H150014   0.784   0.381   3.657  1.3025  0.1465 -1.4849
 9533TIP3    H250015   0.701   0.269   3.597 -0.7874  0.3872  0.8984
 9534TIP3   OH250016   5.933   1.785   0.539  0.3252  0.1614  0.1411
 9534TIP3    H150017   6.013   1.759   0.585  0.1314 -1.0573 -0.2013
 9534TIP3    H250018   5.870   1.804   0.608  0.5137 -0.1290  0.3922
 9535TIP3   OH250019   6.115   5.916   5.256 -0.1122 -0.0183 -0.0676
 9535TIP3    H150020   6.166   5.846   5.216  1.4253  1.5870 -0.9567
 9535TIP3    H250021   6.038   5.925   5.199 -0.3127 -0.9460  0.0444
 9536TIP3   OH250022   3.071   6.438  15.236 -0.1520 -0.3397 -0.4971
 9536TIP3    H150023   3.163   6.432  15.261 -0.4702 -2.3626  0.2718
 9536TIP3    H250024   3.043   6.348  15.223 -2.3628  0.1606  0.5304
 9537TIP3   OH250025   3.969   3.445  16.561 -0.0783  0.5870  0.0678
 9537TIP3    H150026   4.033   3.485  16.502  0.3633  1.0952  0.8809
 9537TIP3    H250027   4.020   3.384  16.614 -0.6896 -0.8169 -0.9284
 9538TIP3   OH250028   0.204   4.772  16.096 -0.4139  0.5152 -0.3955
 9538TIP3    H150029   0.167   4.819  16.171 -1.7832 -0.3149 -0.5294
 9538TIP3    H250030   0.155   4.804  16.021  0.6271  0.9871 -0.8805
 9539TIP3   OH250031   2.071   5.216  13.194 -0.1667  0.0206  0.1131
 9539TIP3    H150032   2.046   5.247  13.281 -1.4175  0.4327 -0.3879
 9539TIP3    H250033   2.005   5.150  13.172  0.2188 -0.1725 -0.4740
 9540TIP3   OH250034   1.119   5.737   1.759 -0.5049 -0.4906 -0.0924
 9540TIP3    H150035   1.194   5.748   1.700 -0.4331 -0.9341 -0.0866
 9540TIP3    H250036   1.146   5.779   1.841  0.5188 -2.4023  0.5673
 9541TIP3   OH250037   2.327   5.033   1.935  0.5307  0.0887 -0.0706
 9541TIP3    H150038   2.359   5.081   2.011 -1.4448 -1.8672  2.1023
 9541TIP3    H250039   2.280   5.099   1.883  3.5182  1.8357 -0.6249
 9542TIP3   OH250040   5.363   2.568   3.315 -0.3170 -0.5387 -0.4636
 9542TIP3    H150041   5.326   2.543   3.400 -0.7499  0.1033 -0.4637
 9542TIP3    H250042   5.442   2.617   3.337 -1.0596  0.6367 -0.4091
 9543TIP3   OH250043   2.056   0.592   1.515  0.4904 -0.6023  0.0857
 9543TIP3    H150044   1.976   0.629   1.478 -0.3845 -2.9612 -0.4538
 9543TIP3    H250045   2.034   0.569   1.605 -0.6708 -4.7800 -1.1722
 9544TIP3   OH250046   4.812   0.600  16.823 -0.1483  0.4026  0.1791
 9544TIP3    H150047   4.759   0.612  16.744  0.5522  0.7687 -0.2465
 9544TIP3    H250048   4.898   0.637  16.800  0.4885 -0.7519  0.6311
 9545TIP3   OH250049   0.222   0.975  14.346 -0.4397 -0.0746 -1.3288
 9545TIP3    H150050   0.185   0.887  14.353  1.6081 -0.7502  1.7836
 9545TIP3    H250051   0.310   0.961  14.311  0.0147  0.6945 -0.4977
 9546TIP3   OH250052   2.419   5.285  13.012 -0.0822  0.3113 -0.4221
 9546TIP3    H150053   2.393   5.198  12.982 -0.4646  0.2651  0.0342
 9546TIP3    H250054   2.336   5.330  13.030  0.1311  0.2675  0.7487
 9547TIP3   OH250055   1.408   4.910   5.663 -0.0455 -0.1814  0.1346
 9547TIP3    H150056   1.483   4.969   5.654  0.5147 -1.0539 -1.1408
 9547TIP3    H250057   1.372   4.929   5.749  1.6396  0.2652  0.7487
 9548TIP3   OH250058   5.176   3.266  11.981  0.4848  0.3537 -0.2550
 9548TIP3    H150059   5.225   3.213  12.043  0.0078 -1.4175 -1.3493
 9548TIP3    H250060   5.113   3.205  11.942  0.8015  1.4034 -2.4852
 9549TIP3   OH250061   5.220   0.785   3.919 -0.5197  0.1167  0.5653
 9549TIP3    H150062   5.209   0.759   3.828 -0.9961 -0.3562  0.7566
 9549TIP3    H250063   5.262   0.871   3.915  0.1240 -0.2275 -0.0889
 9550TIP3   OH250064   2.999   1.259   0.862  0.1252 -0.7463 -0.4244
 9550TIP3    H150065   2.976   1.325   0.797  0.8245 -0.2653 -0.1864
 9550TIP3    H250066   2.927   1.262   0.926 -0.7778 -1.5206 -1.3821
 9551TIP3   OH250067   3.271   5.438   3.845 -0.4447  0.3276 -0.3987
 9551TIP3    H150068   3.180   5.465   3.859 -0.6785 -0.5865 -0.1123
 9551TIP3    H250069   3.316   5.464   3.926 -0.7640 -0.5429  0.0638
 9552TIP3   OH250070   6.761   2.687  15.646  0.1522 -0.1152 -0.1344
 9552TIP3    H150071   6.713   2.680  15.564 -1.5003  2.1784  0.5778
 9552TIP3    H250072   6.828   2.753  15.630  1.5033 -1.5182 -0.3805
 9553TIP3   OH250073   2.220   2.698   2.069  0.1171 -0.5795 -0.5586
 9553TIP3    H150074   2.315   2.700   2.056  0.3501 -0.4543  1.0337
 9553TIP3    H250075   2.201   2.606   2.089  0.0509 -0.4395  0.0477
 9554TIP3   OH250076   3.718   2.594  12.055 -0.1136  0.1803 -0.1588
 9554TIP3    H150077   3.696   2.681  12.089  1.4423  0.4291  0.2694
 9554TIP3    H250078   3.742   2.544  12.133 -0.6084 -0.5052 -0.4480
 9555TIP3   OH250079   1.620   3.572  12.556  0.2109 -0.4389  0.9188
 9555TIP3    H150080   1.588   3.487  12.586  3.6141 -0.9756  3.2589
 9555TIP3    H250081   1.708   3.554  12.523 -0.3076  1.6401 -1.7786
 9556TIP3   OH250082   4.131   0.080   3.368  0.0708 -0.8579  0.3205
 9556TIP3    H150083   4.088   0.151   3.320  1.9712  0.1296  0.0450
 9556TIP3    H250084   4.199   0.123   3.420  2.4858 -2.6311 -1.2427
 9557TIP3   OH250085   0.082   4.983   2.932  0.1494  0.7027  0.1553
 9557TIP3    H150086   0.093   4.922   2.859  1.8033  1.2919 -0.1227
 9557TIP3    H250087   0.027   5.053   2.897 -1.7019 -0.5759  0.4579
 9558TIP3   OH250088   3.742   4.997   4.242  0.2026 -0.1712  0.3646
 9558TIP3    H150089   3.789   5.080   4.248  1.4832 -0.5123 -3.4637
 9558TIP3    H250090   3.651   5.020   4.257  0.6427  1.8244  0.1602
 9559TIP3   OH250091   0.232   5.435  15.301 -0.2190  0.4073 -0.1139
 9559TIP3    H150092   0.243   5.493  15.226  0.7374  0.2025 -0.1363
 9559TIP3    H250093   0.311   5.380  15.301 -1.6676 -1.7395 -0.8560
 9560TIP3   OH250094   0.594   0.484  14.450  0.0702 -0.4541 -0.3117
 9560TIP3    H150095   0.644   0.415  14.406 -0.2311 -0.0576 -1.3142
 9560TIP3    H250096   0.659   0.533  14.500 -0.0905 -3.0502  2.5987
 9561TIP3   OH250097   6.519   0.844  13.161  0.3704  0.0726  0.1892
 9561TIP3    H150098   6.532   0.752  13.181 -1.6396  0.3895  3.3593
 9561TIP3    H250099   6.596   0.888  13.196  0.8669 -0.2828 -0.4537
 9562TIP3   OH250100   6.607   2.893  15.134  0.1593  0.2808  0.1797
 9562TIP3    H150101   6.539   2.827  15.120  0.4225 -0.3233  1.6996
 9562TIP3    H250102   6.689   2.845  15.132  0.5899  1.0444 -1.8532
 9563TIP3   OH250103   6.629   4.591  17.121 -0.0539 -0.2332  0.4499
 9563TIP3    H150104   6.719   4.592  17.155 -0.4093  0.7363  1.3768
 9563TIP3    H250105   6.575   4.617  17.195 -0.9326  0.9896 -0.6011
 9564TIP3   OH250106   6.570   2.107   3.267  0.0754 -0.4473  0.1029
 9564TIP3    H150107   6.546   2.037   3.327 -1.0596 -0.0846  0.0912
 9564TIP3    H250108   6.575   2.185   3.321 -0.9179 -0.1250 -0.2574
 9565TIP3   OH250109   0.649   2.385   4.490  0.4962  0.2445  0.4565
 9565TIP3    H150110   0.685   2.419   4.572  1.4395 -1.9898  0.9970
 9565TIP3    H250111   0.554   2.394   4.500  0.6185  0.1985  1.6969
 9566TIP3   OH250112   2.041   0.673   5.414 -0.2608 -0.7096 -0.3069
 9566TIP3    H150113   1.955   0.666   5.456 -0.9281 -0.4257 -1.5723
 9566TIP3    H250114   2.073   0.760   5.438 -0.4117 -0.7439  0.0197
 9567TIP3   OH250115   4.935   5.231  14.234  0.2581  0.1202 -0.0212
 9567TIP3    H150116   4.994   5.191  14.169 -1.8126  1.3943 -2.7982
 9567TIP3    H250117   4.949   5.180  14.313  2.0856 -2.2424 -1.7763
 9568TIP3   OH250118   2.984   5.668  15.380  0.0854  0.5121 -0.1317
 9568TIP3    H150119   2.929   5.697  15.453  1.3737 -1.4489  1.6873
 9568TIP3    H250120   2.982   5.740  15.318 -1.0114  2.2521  1.8677
 9569TIP3   OH250121   0.181   0.871   4.159  0.4658 -0.3919  0.5945
 9569TIP3    H150122   0.240   0.796   4.154 -1.0968 -1.6704  0.8839
 9569TIP3    H250123   0.216   0.923   4.231  2.8992  0.3831 -1.0598
 9570TIP3   OH250124   6.455   5.442   2.131  0.0752  0.4459  0.0681
 9570TIP3    H150125   6.404   5.495   2.192 -0.0705  0.2388  0.1286
 9570TIP3    H250126   6.440   5.352   2.160 -0.2629  0.3267 -0.4750
 9571TIP3   OH250127   1.985   0.515   2.582  0.3452 -0.5039 -0.2659
 9571TIP3    H150128   1.913   0.576   2.566  0.1528 -1.4576 -3.3051
 9571TIP3    H250129   2.060   0.572   2.600 -0.2905  0.5972 -1.0244
 9572TIP3   OH250130   1.952   0.998  17.167 -0.4187  0.3298  0.0860
 9572TIP3    H150131   2.016   1.066  17.145 -0.0502  0.4747  1.4982
 9572TIP3    H250132   1.954   0.995  17.263 -1.4462 -0.7113  0.0779
 9573TIP3   OH250133   0.097   2.536  11.931 -0.2705 -0.4060  0.2363
 9573TIP3    H150134   0.115   2.616  11.981  0.6610  0.3822 -1.2993
 9573TIP3    H250135   0.009   2.550  11.895  1.0492  1.3782 -2.5653
 9574TIP3   OH250136   1.133   1.309  11.841 -0.9093  0.0340 -0.0070
 9574TIP3    H150137   1.093   1.234  11.885 -1.4577 -0.1246 -0.7731
 9574TIP3    H250138   1.222   1.313  11.876 -0.7562 -1.1878 -0.2318
 9575TIP3   OH250139   4.681   0.072   5.708  0.1636  0.1330 -0.3975
 9575TIP3    H150140   4.677   0.090   5.802  1.7556  1.4248 -0.5492
 9575TIP3    H250141   4.708  -0.019   5.702  3.0677  0.8931  0.4341
 9576TIP3   OH250142   0.187   3.700  15.970 -0.3848 -0.2936 -0.3073
 9576TIP3    H150143   0.281   3.687  15.982 -0.5338 -1.3364 -0.1887
 9576TIP3    H250144   0.172   3.792  15.992  0.6530 -0.0472 -0.6278
 9577TIP3   OH250145   6.786   5.810   2.127  0.2847  0.5468  0.1949
 9577TIP3    H150146   6.842   5.874   2.170 -0.8527  1.9085 -0.2900
 9577TIP3    H250147   6.772   5.845   2.039  0.0530 -0.6209 -0.2472
 9578TIP3   OH250148   3.337   3.629   1.324 -0.3111  0.4907 -0.1795
 9578TIP3    H150149   3.353   3.712   1.368  0.6845  0.6925 -0.9234
 9578TIP3    H250150   3.339   3.650   1.231  0.8951 -0.5448 -0.3878
 9579TIP3   OH250151   2.943   6.145   4.902  0.2234 -0.3130  0.2899
 9579TIP3    H150152   2.978   6.097   4.827  0.3043  1.6150 -0.9710
 9579TIP3    H250153   2.858   6.177   4.872  0.9960  1.9330  0.3359
 9580TIP3   OH250154   6.475   1.019  13.728  0.2541 -0.0618 -0.1163
 9580TIP3    H150155   6.560   1.029  13.770 -0.0672  0.4181  0.4127
 9580TIP3    H250156   6.474   0.929  13.696  0.0427 -0.7804  1.8900
 9581TIP3   OH250157   4.478   2.412   6.569 -0.0049 -0.3708  0.2777
 9581TIP3    H150158   4.548   2.392   6.507 -0.3415 -1.1062  0.1242
 9581TIP3    H250159   4.407   2.352   6.546 -1.0012  0.9128 -0.0858
 9582TIP3   OH250160   2.737   3.944  12.300 -0.3145  0.4194 -0.2025
 9582TIP3    H150161   2.770   4.032  12.318  1.9240 -0.5729  0.7626
 9582TIP3    H250162   2.725   3.905  12.387  0.8409 -0.9703 -0.6476
 9583TIP3   OH250163   0.990   5.602   3.181 -0.6583 -0.1532 -0.2948
 9583TIP3    H150164   0.985   5.692   3.149  0.0435 -0.1276 -0.3390
 9583TIP3    H250165   0.945   5.550   3.114 -1.7543  0.2514  0.1098
 9584TIP3   OH250166   4.835   5.638  13.877  0.2137 -0.1503 -0.6074
 9584TIP3    H150167   4.910   5.643  13.818  0.4037  0.9363 -0.2765
 9584TIP3    H250168   4.864   5.580  13.948  1.7253  2.4084  0.9311
 9585TIP3   OH250169   2.790   4.602   5.397  0.2058  0.5025  0.0991
 9585TIP3    H150170   2.734   4.575   5.470 -0.5873 -1.5261 -1.2067
 9585TIP3    H250171   2.746   4.678   5.359 -0.1209  0.6984  0.8735
 9586TIP3   OH250172   0.099   4.442   5.716  0.0662  0.0587  0.0153
 9586TIP3    H150173   0.061   4.523   5.751  0.2405 -0.3511  1.1917
 9586TIP3    H250174   0.105   4.384   5.792  2.6320 -0.0354 -0.2293
 9587TIP3   OH250175   5.210   2.821  15.897  0.2909 -0.1338  0.1188
 9587TIP3    H150176   5.161   2.760  15.952 -0.7745  1.2150  0.6932
 9587TIP3    H250177   5.185   2.908  15.929  0.4695  0.6472 -1.8067
 9588TIP3   OH250178   0.850   0.456  16.033 -0.1770  0.4268 -0.5501
 9588TIP3    H150179   0.937   0.494  16.024 -0.1632  0.1136 -1.8162
 9588TIP3    H250180   0.866   0.363  16.051 -0.2422  0.2047 -1.5846
 9589TIP3   OH250181   5.708   0.904  12.013 -0.2789 -0.1109  0.4941
 9589TIP3    H150182   5.792   0.919  12.056  0.4640 -2.5469 -0.0257
 9589TIP3    H250183   5.720   0.939  11.925  0.0833 -0.1315  0.5341
 9590TIP3   OH250184   2.207   5.880   1.911 -0.2130  0.3657  0.2816
 9590TIP3    H150185   2.189   5.822   1.837 -0.0189 -2.3981  2.3079
 9590TIP3    H250186   2.226   5.965   1.872 -2.5019 -0.4403 -2.6926
 9591TIP3   OH250187   3.206   2.433   0.611 -0.1144 -0.0430  0.0920
 9591TIP3    H150188   3.241   2.494   0.546 -1.6146  0.6391 -0.0972
 9591TIP3    H250189   3.146   2.377   0.562 -1.0711  0.3192  0.8281
 9592TIP3   OH250190   6.772   4.835  14.455  0.2568 -0.6256 -0.5611
 9592TIP3    H150191   6.861   4.802  14.443  1.5868  2.6915 -0.4904
 9592TIP3    H250192   6.765   4.851  14.549 -0.5782 -1.2567 -0.5124
 9593TIP3   OH250193   4.585   0.775   0.044  0.1613  0.7343  0.0634
 9593TIP3    H150194   4.587   0.741   0.134 -1.4389 -2.8884 -1.1650
 9593TIP3    H250195   4.672   0.755   0.009  0.1006  0.2205  0.1931
 9594TIP3   OH250196   1.825   2.468  15.563 -0.0552 -0.0217  0.2966
 9594TIP3    H150197   1.865   2.526  15.627  0.2999  0.3511 -0.2560
 9594TIP3    H250198   1.807   2.525  15.487 -0.2209 -0.5110 -0.0348
 9595TIP3   OH250199   3.831   4.998  14.355  0.2201 -0.2240 -0.2231
 9595TIP3    H150200   3.838   5.079  14.306 -1.8753  0.5699  0.7331
 9595TIP3    H250201   3.908   4.997  14.412 -0.2553  1.5849  0.4773
 9596TIP3   OH250202   0.016   1.816   1.768 -0.5183  0.0354 -0.4001
 9596TIP3    H150203   0.019   1.873   1.691  1.3272  1.0561  0.4012
 9596TIP3    H250204  -0.065   1.766   1.757 -0.0346 -0.2255 -3.2707
 9597TIP3   OH250205   5.020   4.325   3.698 -0.4256  0.4302  0.0262
 9597TIP3    H150206   5.021   4.231   3.715 -0.0256  0.6052  1.0047
 9597TIP3    H250207   5.112   4.348   3.686 -0.6701  0.3767 -2.0798
 9598TIP3   OH250208   2.213   4.215  15.557  0.4612 -0.1940 -0.0146
 9598TIP3    H150209   2.222   4.249  15.646  1.0762 -1.4099  0.3929
 9598TIP3    H250210   2.291   4.247  15.512  0.6725 -0.4542  0.1661
 9599TIP3   OH250211   2.118   4.520   4.619  0.1270 -0.1925  0.5960
 9599TIP3    H150212   2.174   4.557   4.687 -2.3897  1.9173  1.6176
 9599TIP3    H250213   2.079   4.442   4.659  0.1029 -0.0127  0.9242
 9600TIP3   OH250214   6.663   0.652   5.013 -0.7839  0.5322 -0.0776
 9600TIP3    H150215   6.730   0.584   5.011 -1.0641  0.2298  0.6989
 9600TIP3    H250216   6.711   0.734   5.000 -0.3272  0.2726 -0.0238
 9601TIP3   OH250217   5.302   1.590   1.093 -0.3892  0.7154  0.5909
 9601TIP3    H150218   5.354   1.548   1.161 -0.8586 -0.9228 -0.0561
 9601TIP3    H250219   5.350   1.573   1.012  0.1460  2.6193  0.4732
 9602TIP3   OH250220   0.518   1.671  17.179 -0.2947  0.0204 -0.7250
 9602TIP3    H150221   0.523   1.588  17.130  0.5615 -0.3520 -0.0201
 9602TIP3    H250222   0.579   1.660  17.251 -0.1692  1.2801 -0.6229
 9603TIP3   OH250223   1.078   3.499   4.121  0.5995  0.4768 -0.6569
 9603TIP3    H150224   1.084   3.554   4.042  1.4065 -0.2241 -1.0926
 9603TIP3    H250225   1.152   3.528   4.175  0.3217  0.6356 -0.3639
 9604TIP3   OH250226   0.593   5.055  14.427  0.1135 -0.6076 -0.2097
 9604TIP3    H150227   0.566   5.080  14.339 -0.9377  0.1991  0.3280
 9604TIP3    H250228   0.570   5.131  14.481  3.5681  0.2190  0.2646
 9605TIP3   OH250229   3.544   4.970  12.649 -0.7619 -0.7278 -0.0760
 9605TIP3    H150230   3.572   4.904  12.713  2.3190  3.5824  3.3567
 9605TIP3    H250231   3.611   4.968  12.581 -0.7373 -1.2035 -0.0353
 9606TIP3   OH250232   2.409   3.892   0.074  0.0469 -1.0138 -0.5699
 9606TIP3    H150233   2.382   3.844  -0.004 -1.2724 -2.0164  0.4755
 9606TIP3    H250234   2.364   3.976   0.067  0.7173 -0.7143 -1.3711
 9607TIP3   OH250235   4.822   2.441   0.474 -0.0263  0.3893  0.1803
 9607TIP3    H150236   4.838   2.427   0.381  0.3361  1.6885  0.0452
 9607TIP3    H250237   4.815   2.352   0.510 -2.3894 -0.1158 -1.4476
 9608TIP3   OH250238   5.774   5.877   2.465  0.4947 -0.3691  0.1417
 9608TIP3    H150239   5.759   5.790   2.428  2.3102 -0.5959 -0.0693
 9608TIP3    H250240   5.862   5.901   2.438  0.2799  1.2562  0.7838
 9609TIP3   OH250241   4.000   5.429  13.542 -0.1203  0.0195 -0.3573
 9609TIP3    H150242   4.067   5.479  13.587 -0.5427 -0.4264  0.7871
 9609TIP3    H250243   3.922   5.439  13.596 -0.8372  0.1078 -1.4008
 9610TIP3   OH250244   2.561   5.207  17.145 -0.3082 -0.1179  0.0489
 9610TIP3    H150245   2.520   5.138  17.198 -1.2899 -1.6797 -2.6535
 9610TIP3    H250246   2.569   5.168  17.058  2.6865  1.8511 -0.6030
 9611TIP3   OH250247   4.197   4.614  10.826 -0.2261 -0.0447  0.0866
 9611TIP3    H150248   4.262   4.655  10.769 -0.0283  0.7350  0.8600
 9611TIP3    H250249   4.154   4.688  10.870  2.0970 -0.7442  3.6646
 9612TIP3   OH250250   4.158   2.277   2.223 -0.3146  0.2042  0.3938
 9612TIP3    H150251   4.222   2.225   2.174 -2.2168 -0.3655 -1.5296
 9612TIP3    H250252   4.198   2.364   2.230  0.4586 -0.0066 -1.2352
 9613TIP3   OH250253   0.373   6.142  14.726 -0.1422  0.2812  0.1989
 9613TIP3    H150254   0.404   6.228  14.698 -1.7057  0.9552  0.4635
 9613TIP3    H250255   0.389   6.139  14.820 -4.4738  2.2775  1.1126
 9614TIP3   OH250256   4.214   5.989  16.635  0.3806 -0.4012  0.2148
 9614TIP3    H150257   4.142   6.037  16.677  1.0864  0.4608  0.4675
 9614TIP3    H250258   4.279   6.057  16.615  0.4468 -0.9462 -1.4401
 9615TIP3   OH250259   1.025   6.784   4.234  0.0533 -0.1831  0.2721
 9615TIP3    H150260   1.053   6.813   4.321  2.5052 -0.1415 -0.5037
 9615TIP3    H250261   0.941   6.828   4.221 -0.1551  0.1363  2.4408
 9616TIP3   OH250262   3.494   6.626  12.768 -0.4468 -0.8831  0.4603
 9616TIP3    H150263   3.419   6.628  12.708 -1.1327 -0.5137  1.3107
 9616TIP3    H250264   3.552   6.559  12.732 -2.2717 -2.8536  1.0752
 9617TIP3   OH250265   1.628   4.441  16.582 -0.0792  0.3622 -0.5194
 9617TIP3    H150266   1.557   4.415  16.523 -0.1928  1.6332 -0.9593
 9617TIP3    H250267   1.695   4.374  16.569 -2.6111 -2.9656  2.6320
 9618TIP3   OH250268   6.454   4.839   0.465  0.0282  0.1497  0.0324
 9618TIP3    H150269   6.398   4.817   0.539 -0.8326 -0.3585 -0.7547
 9618TIP3    H250270   6.407   4.909   0.420 -0.9790 -1.6108 -1.7413
 9619TIP3   OH250271   6.453   0.497   6.176 -0.2817  0.1816  0.4849
 9619TIP3    H150272   6.511   0.509   6.252 -2.4661 -2.3735  2.6366
 9619TIP3    H250273   6.375   0.548   6.198 -1.2590 -1.2364  0.3721
 9620TIP3   OH250274   4.029   4.543   1.993  0.0996 -0.2742 -0.7969
 9620TIP3    H150275   4.100   4.479   2.001 -0.8441 -1.2430 -0.1399
 9620TIP3    H250276   3.950   4.490   1.985 -0.8792  0.7998  1.4174
 9621TIP3   OH250277   1.431   2.711  11.513 -0.9748  0.6290  0.2338
 9621TIP3    H150278   1.464   2.779  11.454  1.3504 -0.2259  0.4868
 9621TIP3    H250279   1.404   2.640  11.455  1.2498 -0.1855  0.1657
 9622TIP3   OH250280   6.555   4.215  11.917 -0.6432 -0.2822  0.5020
 9622TIP3    H150281   6.631   4.264  11.947  1.4938 -2.3912 -1.3067
 9622TIP3    H250282   6.523   4.170  11.995 -0.0529  0.6076  1.2616
 9623TIP3   OH250283   6.152   3.830   1.416 -0.6126 -0.2476  0.0823
 9623TIP3    H150284   6.238   3.788   1.412 -0.7135 -0.7401  2.2696
 9623TIP3    H250285   6.166   3.917   1.380  0.7744 -0.3871  0.2490
 9624TIP3   OH250286   5.560   2.684   2.149 -0.4472 -0.7173  0.0423
 9624TIP3    H150287   5.580   2.746   2.219 -1.9331 -1.3031  1.0203
 9624TIP3    H250288   5.645   2.662   2.111  0.1948  1.0317  0.4393
 9625TIP3   OH250289   2.861   3.660  14.782 -0.2691 -0.4210  0.1645
 9625TIP3    H150290   2.955   3.666  14.797 -0.0458  0.7640 -1.6079
 9625TIP3    H250291   2.848   3.573  14.743  0.1970 -0.2741 -0.3275
 9626TIP3   OH250292   0.241   0.979  15.634 -0.3339 -0.3281 -0.6599
 9626TIP3    H150293   0.181   0.922  15.680 -0.1624 -0.5212 -0.6727
 9626TIP3    H250294   0.216   0.971  15.542 -2.4933  2.2002 -0.3483
 9627TIP3   OH250295   6.245   4.112  12.030  0.4195 -0.1199  0.2611
 9627TIP3    H150296   6.301   4.171  12.079  2.6321  0.7869 -3.1753
 9627TIP3    H250297   6.294   4.030  12.025  0.0617 -0.3167 -0.1342
 9628TIP3   OH250298   1.659   1.450   3.225 -0.6095  0.0065 -0.0498
 9628TIP3    H150299   1.736   1.438   3.169 -0.0139  2.8379  0.0972
 9628TIP3    H250300   1.666   1.381   3.291  2.4785  0.9624  0.6787
 9629TIP3   OH250301   6.609   6.199  10.348  0.5066 -0.1425 -0.7092
 9629TIP3    H150302   6.552   6.188  10.272  0.9437 -0.2499 -1.0220
 9629TIP3    H250303   6.695   6.166  10.319  1.0169  1.0824 -0.6131
 9630TIP3   OH250304   5.460   5.041   0.511 -0.2868  0.0117  0.0419
 9630TIP3    H150305   5.391   5.040   0.445  0.7004  3.0763 -1.1380
 9630TIP3    H250306   5.421   5.088   0.585 -0.6392 -1.4322  0.7867
 9631TIP3   OH250307   1.611   4.565   0.551  0.2014  0.7073 -0.0237
 9631TIP3    H150308   1.703   4.543   0.568 -0.1078 -0.6151 -0.0076
 9631TIP3    H250309   1.584   4.616   0.627  1.2461  2.1091 -0.5676
 9632TIP3   OH250310   3.913   2.673   3.545 -0.3786 -0.1348 -0.3715
 9632TIP3    H150311   3.960   2.756   3.538  0.2096 -0.4019  0.3175
 9632TIP3    H250312   3.824   2.698   3.570 -1.1122  0.4790 -3.4416
 9633TIP3   OH250313   6.156   0.408  16.591 -0.1974 -0.1151 -0.4914
 9633TIP3    H150314   6.197   0.437  16.672 -1.9166 -0.7619  0.6358
 9633TIP3    H250315   6.077   0.461  16.584 -0.9718 -1.3010 -0.8189
 9634TIP3   OH250316   3.195   1.506  12.097  0.2964  0.1760 -0.5961
 9634TIP3    H150317   3.136   1.475  12.028 -1.1049 -1.4155  1.2498
 9634TIP3    H250318   3.150   1.583  12.133  0.2194  0.0288 -0.3766
 9635TIP3   OH250319   2.959   3.530   1.727 -0.1035 -0.0337  0.1336
 9635TIP3    H150320   2.990   3.552   1.639  0.4744  0.1600  0.3837
 9635TIP3    H250321   3.028   3.475   1.764 -0.0802  0.3541  0.6732
 9636TIP3   OH250322   2.132   3.891   1.411 -0.3982  0.3008 -0.0015
 9636TIP3    H150323   2.078   3.952   1.362 -0.8511  0.7118  1.0051
 9636TIP3    H250324   2.124   3.808   1.363  0.4649  1.0842 -1.5425
 9637TIP3   OH250325   0.493   5.862  13.611  0.2843  0.0111  0.1264
 9637TIP3    H150326   0.514   5.948  13.573  0.8712 -0.0111  0.4037
 9637TIP3    H250327   0.401   5.848  13.588 -0.5405  1.8214  2.1626
 9638TIP3   OH250328   2.631   6.534  14.800  0.7805  0.1137 -0.6386
 9638TIP3    H150329   2.630   6.449  14.755  0.4777  0.7724 -1.8691
 9638TIP3    H250330   2.721   6.541  14.834  1.0228 -0.3496 -1.1795
 9639TIP3   OH250331   4.135   5.138  10.631  0.7913  0.1521 -0.3443
 9639TIP3    H150332   4.067   5.147  10.564  1.0870 -1.3682 -0.8635
 9639TIP3    H250333   4.204   5.088  10.588  0.1102 -2.6303  1.7235
 9640TIP3   OH250334   4.020   1.792   5.828  0.2881 -0.2255 -0.0570
 9640TIP3    H150335   4.114   1.797   5.847  0.5896  1.1990 -1.7515
 9640TIP3    H250336   3.980   1.765   5.910  1.9825  1.1574  1.2760
 9641TIP3   OH250337   4.783   6.539  11.841 -0.5493  0.0501  0.5399
 9641TIP3    H150338   4.754   6.579  11.759 -0.8393 -0.9599  0.1348
 9641TIP3    H250339   4.780   6.444  11.823  2.1096 -0.1366  0.7738
 9642TIP3   OH250340   2.000   3.784  15.693 -0.2440 -0.2738  0.0057
 9642TIP3    H150341   1.999   3.705  15.639 -0.0692  0.2404 -0.7538
 9642TIP3    H250342   1.918   3.781  15.743 -1.0217 -0.0763 -1.2523
 9643TIP3   OH250343   4.948   4.315  17.163  0.3745 -0.0857  0.0631
 9643TIP3    H150344   4.975   4.377  17.231  0.1015 -0.0333  0.1239
 9643TIP3    H250345   4.924   4.370  17.088  2.2269 -0.2028 -0.6444
 9644TIP3   OH250346   2.395   5.371   6.548 -0.3232  0.7708 -0.2198
 9644TIP3    H150347   2.325   5.421   6.507 -1.3118 -2.3503 -2.4922
 9644TIP3    H250348   2.470   5.383   6.491  0.3618  2.1770  0.9415
 9645TIP3   OH250349   1.660   3.727  11.208 -0.1305 -0.5738 -0.3329
 9645TIP3    H150350   1.697   3.650  11.164 -1.1752 -0.2172 -1.9133
 9645TIP3    H250351   1.582   3.748  11.156 -0.1610  1.2191  0.4117
 9646TIP3   OH250352   2.955   3.030  12.488 -0.0281 -0.5191 -0.4156
 9646TIP3    H150353   2.947   3.112  12.439 -1.4843  0.2807  1.0833
 9646TIP3    H250354   2.869   2.988  12.478  0.5201 -1.5998 -0.6890
 9647TIP3   OH250355   4.098   1.013  11.062 -0.1378 -0.5059 -0.0602
 9647TIP3    H150356   4.075   0.926  11.092  0.9472 -0.0633  2.1139
 9647TIP3    H250357   4.017   1.064  11.071 -1.3560 -1.7151 -3.2754
 9648TIP3   OH250358   5.773   3.230   2.569  0.4546  0.5611 -0.1771
 9648TIP3    H150359   5.788   3.324   2.576  0.2867  0.6812 -1.3806
 9648TIP3    H250360   5.807   3.206   2.483 -0.8088 -0.2258 -0.4684
 9649TIP3   OH250361   4.280   5.440   5.860 -0.6944  0.2136  0.1696
 9649TIP3    H150362   4.258   5.440   5.766  0.5807 -0.9234 -0.1585
 9649TIP3    H250363   4.196   5.430   5.904 -1.3204  0.8071 -0.8552
 9650TIP3   OH250364   0.242   4.051  15.048 -0.0857  0.5770  0.7866
 9650TIP3    H150365   0.322   4.090  15.085 -0.1406 -0.1858  1.7282
 9650TIP3    H250366   0.218   3.982  15.110 -1.2797  0.5604  0.3172
 9651TIP3   OH250367   5.780   0.990  11.763 -0.1563 -0.0108 -0.1001
 9651TIP3    H150368   5.868   1.027  11.764  0.0407 -0.4823 -0.3919
 9651TIP3    H250369   5.774   0.941  11.682 -1.4940  1.9427 -1.2270
 9652TIP3   OH250370   3.548   0.670   1.958  0.4487 -0.3318 -0.3459
 9652TIP3    H150371   3.465   0.629   1.983  1.2395 -2.2203 -0.7299
 9652TIP3    H250372   3.608   0.649   2.030  0.4414  1.5392  0.2220
 9653TIP3   OH250373   3.865   0.117   3.613 -0.5267  0.1806 -0.4633
 9653TIP3    H150374   3.801   0.175   3.572 -0.0688 -0.1082 -1.6056
 9653TIP3    H250375   3.939   0.173   3.633  0.8860 -0.3697 -3.7025
 9654TIP3   OH250376   6.263   2.005  11.532 -0.1409 -0.0185  0.3099
 9654TIP3    H150377   6.208   2.012  11.454  0.1954 -0.6042  0.0129
 9654TIP3    H250378   6.201   1.987  11.603 -0.1912 -2.6198 -0.3247
 9655TIP3   OH250379   1.946   0.399  14.069 -0.3728 -0.4870 -0.3097
 9655TIP3    H150380   1.951   0.494  14.080 -1.5139 -0.3965 -0.5329
 9655TIP3    H250381   1.999   0.381  13.992 -0.0796 -0.0463 -0.2113
 9656TIP3   OH250382   2.271   6.010   0.447  0.0909  0.2422 -0.0476
 9656TIP3    H150383   2.242   6.098   0.472 -1.2771 -0.3465  0.5328
 9656TIP3    H250384   2.336   5.986   0.513  1.8357  1.5477 -1.2953
 9657TIP3   OH250385   4.704   4.891   0.175  0.1483 -0.0051  0.0965
 9657TIP3    H150386   4.744   4.832   0.239  0.4318 -1.3331 -1.2703
 9657TIP3    H250387   4.682   4.834   0.101  0.3099  1.5950 -1.2108
 9658TIP3   OH250388   0.424   0.317  12.987 -0.1186 -0.2216 -0.0516
 9658TIP3    H150389   0.401   0.310  12.894 -2.8578 -1.1294  0.6580
 9658TIP3    H250390   0.342   0.301  13.034  0.9726  1.4089  2.5295
 9659TIP3   OH250391   2.212   0.878   5.847  0.2386  0.1493  0.2386
 9659TIP3    H150392   2.238   0.950   5.789  1.3231 -0.6431 -0.2755
 9659TIP3    H250393   2.224   0.799   5.794 -0.3478 -0.4517  1.0015
 9660TIP3   OH250394   0.622   1.643  15.538 -0.1966 -0.7743 -0.6837
 9660TIP3    H150395   0.716   1.638  15.522 -0.4282 -2.7737 -1.5145
 9660TIP3    H250396   0.612   1.620  15.630  0.2671  1.1015 -0.1552
 9661TIP3   OH250397   6.124   0.113   6.037  0.8399 -0.1948  0.1813
 9661TIP3    H150398   6.109   0.085   5.947 -3.3507  1.5990  0.2128
 9661TIP3    H250399   6.214   0.146   6.038  1.3754 -1.4376 -2.9817
 9662TIP3   OH250400   3.456   3.039   5.971  0.6945 -0.3580 -0.2878
 9662TIP3    H150401   3.546   3.006   5.978  1.2213  1.2467  1.0018
 9662TIP3    H250402   3.458   3.101   5.899  0.2404 -1.4544 -1.2566
 9663TIP3   OH250403   4.444   5.266  10.572  0.1575  0.2255  0.4414
 9663TIP3    H150404   4.512   5.326  10.541  0.4602 -1.2236 -1.7871
 9663TIP3    H250405   4.372   5.323  10.599  1.2356  1.6683  0.3182
 9664TIP3   OH250406   5.041   0.007  16.381  0.4362  0.0201  0.2526
 9664TIP3    H150407   4.963  -0.012  16.330  1.3661 -1.4743 -0.6673
 9664TIP3    H250408   5.074   0.089  16.346 -0.9568  0.9065  0.9680
 9665TIP3   OH250409   2.530   6.598   1.236  0.1229 -0.4077 -0.2601
 9665TIP3    H150410   2.520   6.584   1.142  0.7100  1.3071 -0.5953
 9665TIP3    H250411   2.441   6.598   1.270 -0.4478  3.3234 -1.5063
 9666TIP3   OH250412   0.350   0.475   0.004 -0.0697 -0.2950  0.1910
 9666TIP3    H150413   0.339   0.500  -0.087  0.7009  0.3728  0.2730
 9666TIP3    H250414   0.391   0.388   0.001 -0.2334 -0.3615 -0.0946
 9667TIP3   OH250415   4.753   4.099   4.855  0.0834  0.7993 -0.2862
 9667TIP3    H150416   4.661   4.075   4.863  0.7146 -1.1324  1.8731
 9667TIP3    H250417   4.786   4.041   4.786  0.5743 -1.4752  1.7980
 9668TIP3   OH250418   6.514   3.445  11.359  0.6967 -0.0681  0.1001
 9668TIP3    H150419   6.443   3.423  11.298  0.7690  0.3194 -0.1261
 9668TIP3    H250420   6.582   3.482  11.304  1.4636 -1.3170  0.1909
 9669TIP3   OH250421   3.645   4.702   3.958  0.2633 -0.1780  0.4924
 9669TIP3    H150422   3.610   4.659   3.880  0.8886 -0.5797  0.4345
 9669TIP3    H250423   3.600   4.660   4.032  0.3669 -0.4522  0.3988
 9670TIP3   OH250424   4.905   2.657  17.000 -0.0012 -0.0580 -0.1980
 9670TIP3    H150425   4.944   2.680  17.084  0.1061 -0.5369 -0.1138
 9670TIP3    H250426   4.830   2.717  16.991  0.2461  0.2871  0.0305
 9671TIP3   OH250427   1.845   4.157  16.013 -0.2737  0.4261 -0.5846
 9671TIP3    H150428   1.854   4.231  15.953 -0.1635 -0.9145 -2.2633
 9671TIP3    H250429   1.769   4.109  15.981 -0.7891  0.2034  0.9334
 9672TIP3   OH250430   4.131   4.265  13.392 -0.5800 -0.2299 -0.2156
 9672TIP3    H150431   4.039   4.260  13.366 -0.8551  0.4384  0.5844
 9672TIP3    H250432   4.179   4.277  13.310 -1.2167 -0.4710 -0.6255
 9673TIP3   OH250433   1.979   0.534   5.708  0.0415 -0.1547  0.2000
 9673TIP3    H150434   1.926   0.608   5.738  1.1196  0.4912  0.5402
 9673TIP3    H250435   1.964   0.465   5.773 -1.3256 -0.4073 -0.3665
 9674TIP3   OH250436   1.676   5.892  14.893  0.1581  0.4449 -0.5673
 9674TIP3    H150437   1.731   5.958  14.850 -0.1621  1.6016  0.7729
 9674TIP3    H250438   1.689   5.907  14.987 -1.0773 -0.4360 -0.2415
 9675TIP3   OH250439   2.140   3.893  13.122 -0.1488 -0.5479 -0.0733
 9675TIP3    H150440   2.046   3.900  13.135 -0.2179  0.0841 -0.9017
 9675TIP3    H250441   2.176   3.885  13.210 -1.0800 -2.1238  0.1932
 9676TIP3   OH250442   5.321   4.555   6.445  0.3279 -0.0827 -0.1752
 9676TIP3    H150443   5.391   4.619   6.460  0.6952 -0.8778  1.6101
 9676TIP3    H250444   5.250   4.582   6.503  0.4741 -1.2611  0.5653
 9677TIP3   OH250445   3.486   2.597  13.123  0.3585  0.3762 -0.6101
 9677TIP3    H150446   3.457   2.670  13.069 -1.0716  2.4440  2.7539
 9677TIP3    H250447   3.451   2.616  13.210  1.5728 -3.3762  0.8286
 9678TIP3   OH250448   5.344   6.131  15.048  0.2933  0.1411  0.9006
 9678TIP3    H150449   5.258   6.109  15.012  0.4686  0.6610  0.1590
 9678TIP3    H250450   5.349   6.081  15.130  0.6291 -2.4530 -0.6644
 9679TIP3   OH250451   1.978   1.277  14.709  0.3006  0.5196 -0.0638
 9679TIP3    H150452   1.983   1.236  14.623  0.6301  1.0854 -0.3220
 9679TIP3    H250453   1.977   1.371  14.690 -0.7818  0.6345  0.4970
 9680TIP3   OH250454   5.887   3.984   3.709  0.2661 -0.3521  0.0595
 9680TIP3    H150455   5.867   3.986   3.802  2.6295  0.8347  0.5737
 9680TIP3    H250456   5.924   3.897   3.694 -0.5485 -0.7131  0.1124
 9681TIP3   OH250457   4.725   1.649   2.501  0.2356 -0.0942  0.1154
 9681TIP3    H150458   4.768   1.724   2.460 -0.2970  0.1710  0.0438
 9681TIP3    H250459   4.709   1.676   2.591 -1.7491  0.6157 -0.4380
 9682TIP3   OH250460   4.441   3.713  17.062  0.5934 -0.2148 -0.0078
 9682TIP3    H150461   4.469   3.738  16.973  1.2780 -1.8730 -0.2703
 9682TIP3    H250462   4.379   3.642  17.048  1.6535 -1.3371  0.8858
 9683TIP3   OH250463   6.053   6.157  16.786 -0.2698 -0.4540 -0.5628
 9683TIP3    H150464   5.991   6.193  16.850 -0.5362  2.4791 -2.3512
 9683TIP3    H250465   6.005   6.158  16.703  0.8816 -1.9047 -1.2711
 9684TIP3   OH250466   0.554   5.525   2.826 -0.4072 -0.2426 -0.0487
 9684TIP3    H150467   0.490   5.596   2.840 -0.6048 -0.1837 -1.2163
 9684TIP3    H250468   0.508   5.446   2.853 -0.5101 -0.0388  0.3821
 9685TIP3   OH250469   5.588   4.146  16.405  0.3430 -0.2654 -0.2257
 9685TIP3    H150470   5.531   4.168  16.332 -1.3711 -1.0507  0.8631
 9685TIP3    H250471   5.646   4.222  16.414 -1.0359  0.8730 -0.8331
 9686TIP3   OH250472   2.216   0.030   4.093 -0.1869  0.1380  0.7634
 9686TIP3    H150473   2.168   0.098   4.045 -0.3392 -1.8079 -1.9246
 9686TIP3    H250474   2.161  -0.048   4.086  1.6065 -1.1546  0.8334
 9687TIP3   OH250475   1.874   1.188  11.200 -0.1622 -0.3925  1.3208
 9687TIP3    H150476   1.872   1.170  11.106 -0.3757  1.3463  0.9721
 9687TIP3    H250477   1.835   1.111  11.240 -2.8452  0.0728 -0.2252
 9688TIP3   OH250478   5.928   4.813   4.646 -0.3409  0.0358 -0.2931
 9688TIP3    H150479   5.903   4.751   4.714  0.5655 -2.2152 -1.9487
 9688TIP3    H250480   5.857   4.878   4.646 -0.3025  0.1680  2.8216
 9689TIP3   OH250481   1.015   6.176   3.107  0.2346  0.3131  0.1682
 9689TIP3    H150482   0.927   6.147   3.132  0.3878  2.3822  3.4668
 9689TIP3    H250483   1.071   6.101   3.129 -0.3463  0.1114  1.0097
 9690TIP3   OH250484   5.944   3.499  12.339  0.2268 -0.5575 -0.6129
 9690TIP3    H150485   5.914   3.509  12.429 -2.1058 -1.2555 -1.2881
 9690TIP3    H250486   5.933   3.585  12.300  0.7760 -0.3790 -0.3843
 9691TIP3   OH250487   1.651   5.025   1.550  0.0734  0.0037  0.0478
 9691TIP3    H150488   1.668   5.111   1.590 -0.3618  0.4510 -0.7032
 9691TIP3    H250489   1.737   4.982   1.550  0.4599  0.7493 -0.2565
 9692TIP3   OH250490   0.237   4.446  11.952  0.0149  0.0594 -0.6421
 9692TIP3    H150491   0.333   4.452  11.945  0.0622 -0.5516 -0.5717
 9692TIP3    H250492   0.204   4.496  11.878  0.3319  3.5585  1.4943
 9693TIP3   OH250493   3.386   3.733   0.588 -0.1467 -0.0629 -0.4753
 9693TIP3    H150494   3.390   3.702   0.497 -0.4966  0.9910 -0.8526
 9693TIP3    H250495   3.421   3.660   0.639 -0.8916 -1.0609 -1.3625
 9694TIP3   OH250496   5.363   5.087   2.807 -0.7298  0.0700 -0.6124
 9694TIP3    H150497   5.357   5.126   2.895 -1.3267 -2.2758  0.4268
 9694TIP3    H250498   5.300   5.136   2.755 -0.3138  1.5472  0.2382
 9695TIP3   OH250499   4.940   1.128  13.787  0.0459 -0.5051  0.4982
 9695TIP3    H150500   4.873   1.095  13.727 -0.8047 -0.0466  1.1928
 9695TIP3    H250501   4.951   1.059  13.852  0.1798 -0.5368  0.4431
 9696TIP3   OH250502   6.091   0.813   4.951  0.5029  0.3022  0.1479
 9696TIP3    H150503   6.184   0.800   4.968  0.7733  0.5207 -1.0812
 9696TIP3    H250504   6.081   0.795   4.857 -1.1463 -2.1690  0.7571
 9697TIP3   OH250505   6.517   4.752   1.016 -0.8560  0.3294 -0.3666
 9697TIP3    H150506   6.534   4.670   0.971 -1.5591 -0.1962  0.3221
 9697TIP3    H250507   6.605   4.787   1.035 -0.5566 -0.1510 -0.8348
 9698TIP3   OH250508   2.272   4.365   5.938  0.0677  0.0890 -0.2413
 9698TIP3    H150509   2.328   4.441   5.953  0.4070 -0.3313  0.6877
 9698TIP3    H250510   2.195   4.380   5.992  0.2213 -0.3101  0.0972
 9699TIP3   OH250511   1.781   2.344   1.664  0.5072 -0.1456 -0.1337
 9699TIP3    H150512   1.720   2.285   1.710  0.2118  0.6761  0.5333
 9699TIP3    H250513   1.810   2.405   1.732 -0.6112  1.6428 -1.2494
 9700TIP3   OH250514   5.135   0.439   3.678 -0.1835 -0.6080  0.3073
 9700TIP3    H150515   5.044   0.411   3.685 -0.2005 -0.5757  0.2100
 9700TIP3    H250516   5.136   0.528   3.713 -0.5783  0.1702 -1.6250
 9701TIP3   OH250517   1.438   1.761   6.291  0.2225 -0.3954  0.3633
 9701TIP3    H150518   1.533   1.760   6.276  0.1362 -2.9493 -0.2036
 9701TIP3    H250519   1.422   1.685   6.346 -1.8188 -1.5335 -1.7165
 9702TIP3   OH250520   0.213   2.897  15.642  0.1123 -0.3797  0.1524
 9702TIP3    H150521   0.272   2.863  15.574  0.7550 -0.4027  0.7178
 9702TIP3    H250522   0.254   2.978  15.670  1.1747 -1.6023  2.2551
 9703TIP3   OH250523   1.942   4.246   0.084  0.2418 -0.3020 -0.0361
 9703TIP3    H150524   1.915   4.302   0.157  0.2065  1.1939 -1.1705
 9703TIP3    H250525   1.865   4.192   0.065  0.6763 -1.6247  1.8629
 9704TIP3   OH250526   5.956   1.509  13.492  0.5842 -0.2448  0.2359
 9704TIP3    H150527   6.002   1.469  13.566 -0.0984 -1.0236  0.2479
 9704TIP3    H250528   5.875   1.543  13.529 -0.4025 -1.8575 -0.3933
 9705TIP3   OH250529   3.051   1.397   2.649  0.4827  0.2816  0.7132
 9705TIP3    H150530   3.008   1.454   2.586  2.3083  1.5037  0.5423
 9705TIP3    H250531   3.111   1.344   2.598  0.7151  0.0618  1.2059
 9706TIP3   OH250532   4.491   3.958  17.167 -0.1751 -0.2372 -0.0037
 9706TIP3    H150533   4.461   3.870  17.145 -0.1799 -0.6646  1.6245
 9706TIP3    H250534   4.556   3.979  17.100  1.8484 -2.5876  1.1308
 9707TIP3   OH250535   4.867   6.767  12.997  0.2907 -0.4455  0.7026
 9707TIP3    H150536   4.962   6.760  13.000  0.2836 -1.2815 -0.8288
 9707TIP3    H250537   4.847   6.837  13.059  1.7567 -1.4886  2.3964
 9708TIP3   OH250538   4.644   2.075   2.280  0.0816  0.2497  0.0005
 9708TIP3    H150539   4.561   2.086   2.234  1.0911  0.0786 -1.9139
 9708TIP3    H250540   4.702   2.139   2.240  0.7049  0.8278  1.7780
 9709TIP3   OH250541   3.474   4.855   0.397 -0.3032 -0.0410 -0.0296
 9709TIP3    H150542   3.380   4.850   0.414 -0.2392  2.5170  1.1945
 9709TIP3    H250543   3.481   4.869   0.303 -1.1373 -0.0320 -0.0886
 9710TIP3   OH250544   5.372   1.961  15.580 -0.5650 -0.5648  0.2756
 9710TIP3    H150545   5.432   1.892  15.551 -0.6757 -1.2416  1.6479
 9710TIP3    H250546   5.287   1.917  15.587 -0.5031 -0.4482  1.7919
 9711TIP3   OH250547   3.041   0.145  16.235 -0.2089 -0.7362  0.7646
 9711TIP3    H150548   3.098   0.167  16.308 -0.5646 -1.2984  1.2146
 9711TIP3    H250549   3.023   0.229  16.192  1.9693 -0.6994 -0.1278
 9712TIP3   OH250550   6.312   5.459   5.001 -0.4998  0.0316 -0.0843
 9712TIP3    H150551   6.340   5.369   4.989 -0.3479  0.0206  0.3542
 9712TIP3    H250552   6.382   5.512   4.962 -2.0628 -0.1000 -3.2635
 9713TIP3   OH250553   5.351   5.617   5.409  0.3436  0.6873  0.6425
 9713TIP3    H150554   5.320   5.562   5.481 -1.0666  2.5588  1.5123
 9713TIP3    H250555   5.404   5.684   5.452 -3.6389  4.1472  0.5341
 9714TIP3   OH250556   4.233   4.063  13.150 -0.4622  0.1075  0.6854
 9714TIP3    H150557   4.236   3.987  13.093  1.2975 -0.1332  1.0468
 9714TIP3    H250558   4.284   4.037  13.227 -0.1957  1.4994  0.9961
 9715TIP3   OH250559   2.149   0.918   3.849  0.2312  0.3629 -0.0424
 9715TIP3    H150560   2.244   0.924   3.848  0.2098  0.5622 -0.9243
 9715TIP3    H250561   2.119   1.006   3.829 -0.1326  0.0344 -0.9507
 9716TIP3   OH250562   2.326   2.874  15.124  0.4570  0.8119  0.0102
 9716TIP3    H150563   2.417   2.845  15.128  0.5533  0.9396 -1.0404
 9716TIP3    H250564   2.283   2.813  15.064  0.7784  3.0482 -2.6272
 9717TIP3   OH250565   2.521   4.806   1.297 -0.2540 -0.3888  0.2582
 9717TIP3    H150566   2.505   4.770   1.210  1.0580  0.3057 -0.2889
 9717TIP3    H250567   2.582   4.878   1.282  1.1845 -1.2232  1.9146
 9718TIP3   OH250568   2.697   5.391  15.250  0.3617 -0.0124 -0.6655
 9718TIP3    H150569   2.684   5.319  15.311  0.5818 -0.1513 -0.7821
 9718TIP3    H250570   2.791   5.407  15.252  0.4153 -0.2704 -1.2581
 9719TIP3   OH250571   0.940   1.286   3.594  0.5561 -0.6178  0.3788
 9719TIP3    H150572   1.033   1.306   3.599  0.0477  2.0422 -0.3684
 9719TIP3    H250573   0.914   1.269   3.684  1.1484  1.5898  0.9967
 9720TIP3   OH250574   6.576   5.625   0.856 -0.1917 -0.1605  0.3857
 9720TIP3    H150575   6.545   5.680   0.927  1.4263  1.0092  0.2198
 9720TIP3    H250576   6.563   5.678   0.777  1.4992  0.0664  0.2374
 9721TIP3   OH250577   4.180   6.156   1.960  0.7815  0.0058 -0.7250
 9721TIP3    H150578   4.261   6.192   1.926  0.6648  0.5669 -0.4278
 9721TIP3    H250579   4.140   6.229   2.009  0.1350 -0.2791 -0.8173
 9722TIP3   OH250580   6.576   3.830   4.917  0.1919 -0.3707 -0.1181
 9722TIP3    H150581   6.641   3.850   4.984  0.2895  0.0269 -0.3312
 9722TIP3    H250582   6.598   3.741   4.889  2.0630  0.5514 -1.7794
 9723TIP3   OH250583   3.031   6.513  12.957 -0.1658 -0.5876  0.0459
 9723TIP3    H150584   2.984   6.542  13.035 -0.4551  0.1289 -0.4042
 9723TIP3    H250585   2.964   6.506  12.889  0.2080 -0.5353 -0.3274
 9724TIP3   OH250586   3.536   4.933   4.633 -0.2835 -0.0819 -0.3570
 9724TIP3    H150587   3.631   4.931   4.645 -0.3668 -3.0436  0.0299
 9724TIP3    H250588   3.512   4.843   4.611 -3.2261  0.2258  1.3532
 9725TIP3   OH250589   6.577   3.907   6.202  0.1227  0.6704 -0.3764
 9725TIP3    H150590   6.585   3.814   6.222  0.6082  0.6912 -0.4812
 9725TIP3    H250591   6.485   3.918   6.177  0.1175  0.1788 -0.5774
 9726TIP3   OH250592   4.773   3.649   2.875 -0.4861  0.0260 -0.0265
 9726TIP3    H150593   4.847   3.646   2.936 -2.5606 -0.2411  2.5582
 9726TIP3    H250594   4.755   3.742   2.863  0.0501  0.0823 -0.4305
 9727TIP3   OH250595   3.866   4.634   0.084 -0.4786  0.0113 -0.1194
 9727TIP3    H150596   3.786   4.663   0.041 -0.1077 -1.0902 -1.5573
 9727TIP3    H250597   3.934   4.693   0.051 -0.6080  0.6894  0.7964
 9728TIP3   OH250598   0.943   0.834   2.895  0.4851  0.0729 -0.3641
 9728TIP3    H150599   0.912   0.776   2.964  0.2406 -0.6774 -1.0892
 9728TIP3    H250600   0.866   0.883   2.868  0.2746 -0.6196 -1.0414
 9729TIP3   OH250601   4.397   5.489   2.388  0.5025 -0.4669 -0.1949
 9729TIP3    H150602   4.370   5.406   2.427 -0.9598 -0.2286 -0.6556
 9729TIP3    H250603   4.323   5.515   2.333  0.8088  1.3043  0.1881
 9730TIP3   OH250604   5.488   1.971  13.114 -0.0681  0.0485  0.1542
 9730TIP3    H150605   5.540   2.023  13.052 -0.6639 -0.1064 -0.4850
 9730TIP3    H250606   5.424   1.926  13.059  0.3895 -1.3110  0.7176
 9731TIP3   OH250607   1.014   6.429  15.362 -0.0559 -0.3062  0.1886
 9731TIP3    H150608   0.969   6.505  15.324  0.2653 -0.4946 -0.5892
 9731TIP3    H250609   1.107   6.447  15.347 -0.0175 -1.2287 -0.7382
 9732TIP3   OH250610   2.525   5.425  10.745 -0.5709 -0.1771  0.6857
 9732TIP3    H150611   2.567   5.364  10.684 -0.8820 -0.8101  1.0998
 9732TIP3    H250612   2.573   5.414  10.827  0.2161  1.0849  0.4059
 9733TIP3   OH250613   0.203   1.943  12.398  0.9669  0.5412  0.1922
 9733TIP3    H150614   0.256   1.964  12.475  2.8471  0.8137 -1.1409
 9733TIP3    H250615   0.264   1.946  12.325 -0.3200 -1.9945 -1.0387
 9734TIP3   OH250616   4.110   2.660   2.881  0.1528  0.1129 -0.1250
 9734TIP3    H150617   4.178   2.626   2.823  0.3248  1.0446 -0.4775
 9734TIP3    H250618   4.155   2.678   2.963  0.2813  0.4739 -0.2726
 9735TIP3   OH250619   3.453   5.253   1.957 -0.0037  0.8088  0.0349
 9735TIP3    H150620   3.402   5.219   2.030  0.4620  0.2155  0.0946
 9735TIP3    H250621   3.466   5.346   1.977 -1.8431  1.1912 -0.4505
 9736TIP3   OH250622   6.510   1.042  12.508 -0.0218  0.1245  0.0068
 9736TIP3    H150623   6.525   1.019  12.599  0.1622  1.2821  0.2841
 9736TIP3    H250624   6.423   1.082  12.508 -0.9928 -1.9715 -0.7252
 9737TIP3   OH250625   4.527   3.464   3.391  0.0793 -0.7006 -0.3027
 9737TIP3    H150626   4.565   3.411   3.462 -0.6098 -0.0203  0.5932
 9737TIP3    H250627   4.603   3.493   3.341  0.5038 -2.1295 -0.5311
 9738TIP3   OH250628   4.941   0.059  17.084 -0.4168 -0.3543  0.1304
 9738TIP3    H150629   4.846   0.050  17.092 -0.5263  1.2137  0.8097
 9738TIP3    H250630   4.953   0.101  16.998 -0.2954 -1.0621 -0.2036
 9739TIP3   OH250631   1.062   6.252   5.880 -0.3085 -0.4992 -0.2989
 9739TIP3    H150632   1.103   6.327   5.923  1.6009 -0.2553 -2.4903
 9739TIP3    H250633   0.983   6.235   5.933 -0.4760  2.6674  0.5636
 9740TIP3   OH250634   1.165   5.679   4.744 -0.1062 -0.2357  0.0267
 9740TIP3    H150635   1.248   5.631   4.754 -0.6878 -1.3452 -0.4161
 9740TIP3    H250636   1.159   5.699   4.651  0.1817  0.8132  0.2214
 9741TIP3   OH250637   5.543   4.098   2.268 -0.1253 -1.3513  0.4854
 9741TIP3    H150638   5.563   4.164   2.335  0.7291 -1.7494  0.6386
 9741TIP3    H250639   5.628   4.082   2.226 -0.5357 -1.5900 -0.2420
 9742TIP3   OH250640   2.187   1.543  13.444 -0.9119 -0.6819 -0.3456
 9742TIP3    H150641   2.232   1.627  13.445 -0.4312 -0.9402  0.3987
 9742TIP3    H250642   2.185   1.518  13.352  0.2394 -0.5457 -0.4116
 9743TIP3   OH250643   0.073   2.237   2.559 -0.2279 -0.2403 -0.0592
 9743TIP3    H150644   0.003   2.264   2.618  0.0400 -0.1139  0.2049
 9743TIP3    H250645   0.145   2.212   2.617  0.3092  0.6170 -0.3316
 9744TIP3   OH250646   3.325   4.081  12.817 -0.4850  0.3898 -0.3693
 9744TIP3    H150647   3.304   3.997  12.857 -0.3509 -0.1857 -1.5285
 9744TIP3    H250648   3.338   4.140  12.892  1.9245 -1.1945  0.4903
 9745TIP3   OH250649   4.130   0.474   1.142 -0.2624  0.4423  0.0971
 9745TIP3    H150650   4.070   0.547   1.158  0.9298  1.4626 -0.0323
 9745TIP3    H250651   4.190   0.475   1.216 -1.1991 -1.4321  0.9372
 9746TIP3   OH250652   5.615   2.662   3.349  0.2517 -0.1094 -0.5304
 9746TIP3    H150653   5.619   2.664   3.253  2.1006 -0.5946 -0.4807
 9746TIP3    H250654   5.698   2.699   3.378 -0.3486  0.1638  0.8976
 9747TIP3   OH250655   1.850   6.483   1.077 -0.4020 -0.0484 -0.3672
 9747TIP3    H150656   1.772   6.485   1.021  0.5973 -0.3552 -1.8176
 9747TIP3    H250657   1.843   6.400   1.125 -0.1340 -0.9198 -1.7753
 9748TIP3   OH250658   0.530   0.689   6.015 -0.4360 -0.3406  0.1345
 9748TIP3    H150659   0.467   0.635   6.063 -2.2200  1.8633  0.3222
 9748TIP3    H250660   0.595   0.713   6.080  0.8134 -2.8241 -0.1129
 9749TIP3   OH250661   3.470   5.023   1.528  0.2490 -0.0211 -0.3565
 9749TIP3    H150662   3.484   5.079   1.604 -0.7050  1.4518 -1.2362
 9749TIP3    H250663   3.511   5.070   1.455  0.4068 -1.0005 -0.9053
 9750TIP3   OH250664   3.609   1.623   0.507  0.3691 -0.2291 -0.5927
 9750TIP3    H150665   3.688   1.675   0.522  1.3148 -0.9369 -2.8555
 9750TIP3    H250666   3.539   1.674   0.546  1.7051  1.2654 -0.0849
 9751TIP3   OH250667   2.503   2.494   1.545 -0.3011 -0.0505 -0.2905
 9751TIP3    H150668   2.514   2.401   1.564 -0.3291 -0.0379 -0.2116
 9751TIP3    H250669   2.572   2.538   1.594 -0.7904  0.0395  0.3189
 9752TIP3   OH250670   3.042   2.581   5.173 -0.6161  0.0010 -0.2588
 9752TIP3    H150671   3.045   2.668   5.132  0.2562  0.2849  0.3971
 9752TIP3    H250672   3.044   2.520   5.100 -3.6019  0.5396 -0.8641
 9753TIP3   OH250673   6.508   2.284  16.484  0.3531 -0.3843  0.0677
 9753TIP3    H150674   6.436   2.341  16.458  0.8178  0.8583  1.4194
 9753TIP3    H250675   6.537   2.243  16.403 -1.4374 -0.4123 -0.5814
 9754TIP3   OH250676   3.272   0.674  17.167 -0.1652  0.4392 -0.4510
 9754TIP3    H150677   3.255   0.590  17.210  0.6042 -0.2082 -1.3817
 9754TIP3    H250678   3.185   0.707  17.144 -0.5022  0.1565  0.3883
 9755TIP3   OH250679   6.437   4.591  15.081  0.2647 -0.1754 -0.4681
 9755TIP3    H150680   6.406   4.609  15.170  2.1134 -0.4542  0.2672
 9755TIP3    H250681   6.426   4.674  15.035  2.1100  0.8713  0.8930
 9756TIP3   OH250682   5.496   1.534   3.249 -0.0060  0.6127 -0.0298
 9756TIP3    H150683   5.527   1.625   3.251  0.8267  0.4038 -2.0526
 9756TIP3    H250684   5.411   1.539   3.205  0.4408  0.3057 -0.9286
 9757TIP3   OH250685   1.524   0.833   4.969  0.1136 -0.1243  0.2924
 9757TIP3    H150686   1.560   0.884   5.042 -1.2091  0.3618  0.6311
 9757TIP3    H250687   1.488   0.898   4.910 -0.8059 -0.6155  0.2983
 9758TIP3   OH250688   2.806   6.050   2.837 -0.5445  0.6552  0.2235
 9758TIP3    H150689   2.778   6.107   2.909 -1.4761  0.4713  0.0108
 9758TIP3    H250690   2.745   6.069   2.766 -0.7034 -0.4381  0.0666
 9759TIP3   OH250691   2.668   4.846   5.015 -0.6613 -0.3399 -0.3218
 9759TIP3    H150692   2.574   4.860   5.002 -0.4855  2.7458  1.2632
 9759TIP3    H250693   2.709   4.927   4.983  1.1984 -0.3972  1.8287
 9760TIP3   OH250694   1.265   4.029   4.428  0.3289 -0.9072  0.0364
 9760TIP3    H150695   1.233   3.978   4.354 -1.2493  0.4944 -0.2722
 9760TIP3    H250696   1.248   3.975   4.505 -1.7378 -0.6796 -0.2411
 9761TIP3   OH250697   2.003   5.247   5.140 -0.1294  0.3420 -0.1211
 9761TIP3    H150698   1.974   5.261   5.050 -0.5552 -0.0668 -0.0490
 9761TIP3    H250699   2.090   5.209   5.132 -0.6828 -0.9081 -0.3906
 9762TIP3   OH250700   2.711   6.260  13.407  0.1962  0.0405 -0.0740
 9762TIP3    H150701   2.630   6.310  13.420 -0.2218 -0.7256  0.3571
 9762TIP3    H250702   2.685   6.169  13.426  1.4020 -0.0698  1.0723
 9763TIP3   OH250703   5.632   3.402   3.508  0.1246  0.6778  0.0604
 9763TIP3    H150704   5.595   3.326   3.553  1.9794 -0.4603 -0.2876
 9763TIP3    H250705   5.586   3.406   3.425 -1.1437  0.9469  0.7640
 9764TIP3   OH250706   0.827   6.669   5.496 -0.1358  0.5574  0.1199
 9764TIP3    H150707   0.745   6.698   5.455 -0.7688 -0.6430  0.4986
 9764TIP3    H250708   0.875   6.750   5.514 -0.4102  1.1765 -1.7882
 9765TIP3   OH250709   2.766   1.912   5.104  0.5411 -0.0617 -0.1254
 9765TIP3    H150710   2.749   1.844   5.168  0.8021 -0.0295 -0.0245
 9765TIP3    H250711   2.680   1.952   5.089  0.3065 -0.7017 -0.5217
 9766TIP3   OH250712   5.066   0.349  14.712  0.0101 -0.4604 -0.8538
 9766TIP3    H150713   5.119   0.274  14.687  1.6996  0.7731 -1.0910
 9766TIP3    H250714   5.025   0.324  14.794 -0.7563 -2.2579 -1.7637
 9767TIP3   OH250715   1.343   3.336   2.928  0.1255 -0.5299 -0.6726
 9767TIP3    H150716   1.251   3.364   2.922 -0.5486 -2.4869  0.1399
 9767TIP3    H250717   1.385   3.403   2.982 -1.5058 -1.1883  1.4632
 9768TIP3   OH250718   6.211   6.522  13.336  0.4737  0.1876 -0.3247
 9768TIP3    H150719   6.185   6.466  13.408 -2.7565 -0.7447 -2.1168
 9768TIP3    H250720   6.147   6.594  13.338  2.3831  1.9144 -0.2378
 9769TIP3   OH250721   5.957   5.177   2.920  0.2059 -0.1659  0.2878
 9769TIP3    H150722   5.863   5.166   2.934 -0.6123  1.3956 -3.2681
 9769TIP3    H250723   5.978   5.261   2.960 -0.4499  0.6132 -0.9757
 9770TIP3   OH250724   2.743   4.166  16.770 -0.5235 -0.3590  0.3467
 9770TIP3    H150725   2.653   4.135  16.760 -0.6548 -0.4691  1.7051
 9770TIP3    H250726   2.744   4.208  16.856  0.3492  0.9685 -0.2880
 9771TIP3   OH250727   6.037   5.549   3.612 -0.4539 -0.0578  0.2197
 9771TIP3    H150728   6.108   5.519   3.669 -1.4280 -1.0041  0.9548
 9771TIP3    H250729   6.080   5.602   3.545  1.0119 -1.1139  0.3119
 9772TIP3   OH250730   6.598   4.406   3.536  0.1765  0.4365  0.0280
 9772TIP3    H150731   6.602   4.389   3.442  1.5690  0.5888  0.0405
 9772TIP3    H250732   6.524   4.465   3.547 -1.5664 -1.5882 -0.6370
 9773TIP3   OH250733   5.690   0.924  12.741 -0.5521  0.2847  0.3671
 9773TIP3    H150734   5.610   0.962  12.703  0.2407  0.1758 -1.4203
 9773TIP3    H250735   5.688   0.832  12.715  0.5949  0.4799 -0.4285
 9774TIP3   OH250736   4.033   1.899   2.978 -0.1190 -0.0790 -0.0508
 9774TIP3    H150737   4.073   1.863   2.899  0.7550  2.4577 -0.8506
 9774TIP3    H250738   3.958   1.843   2.995  0.6064 -1.6408 -1.7518
 9775TIP3   OH250739   4.384   3.354   0.225 -0.1349 -0.9744  0.0161
 9775TIP3    H150740   4.336   3.400   0.156  0.1692  0.8566  0.9796
 9775TIP3    H250741   4.455   3.414   0.248 -0.3507 -1.4607  2.0661
 9776TIP3   OH250742   1.608   4.121   1.188  0.2839 -0.7538  0.4721
 9776TIP3    H150743   1.616   4.048   1.127  0.5753 -0.6036  0.3289
 9776TIP3    H250744   1.550   4.089   1.256 -2.8027  0.2108 -1.6095
 9777TIP3   OH250745   5.562   3.355  14.827  0.3025 -0.3140 -0.2933
 9777TIP3    H150746   5.589   3.447  14.831  3.4518 -1.1968 -0.0445
 9777TIP3    H250747   5.562   3.326  14.918 -1.5295 -0.3892 -0.2819
 9778TIP3   OH250748   4.344   4.610   1.214 -0.6003  0.4083  0.2378
 9778TIP3    H150749   4.368   4.552   1.142 -0.6591 -2.2443  2.2565
 9778TIP3    H250750   4.427   4.637   1.252 -0.6057 -0.0920  0.6101
 9779TIP3   OH250751   1.143   4.769  12.815 -0.1865 -0.0396 -0.1452
 9779TIP3    H150752   1.073   4.776  12.880  0.3367 -0.9360  0.5194
 9779TIP3    H250753   1.178   4.681  12.826 -1.3956 -0.9379 -2.9702
 9780TIP3   OH250754   1.690   4.873  16.728 -0.5454 -0.4631 -0.5454
 9780TIP3    H150755   1.603   4.884  16.764 -0.6574  0.4516 -1.0943
 9780TIP3    H250756   1.749   4.903  16.797 -0.7712  1.6135 -1.2424
 9781TIP3   OH250757   4.863   4.175   2.762  0.1588 -0.2940  0.1802
 9781TIP3    H150758   4.938   4.116   2.759  0.7729  0.5172 -0.4265
 9781TIP3    H250759   4.896   4.254   2.804  0.0422  0.6237 -1.4319
 9782TIP3   OH250760   1.300   4.077   0.984  0.3213 -1.0267 -0.1166
 9782TIP3    H150761   1.352   4.014   1.033 -0.1965 -0.6368  0.9457
 9782TIP3    H250762   1.338   4.162   1.005 -2.1243 -0.5143  2.4809
 9783TIP3   OH250763   2.111   6.164   2.992 -0.4190 -0.5445 -0.0694
 9783TIP3    H150764   2.102   6.233   2.927  0.9813 -0.0018  0.2881
 9783TIP3    H250765   2.194   6.183   3.036 -0.5057 -1.8785  0.7099
 9784TIP3   OH250766   3.826   5.413   1.460 -0.1846  0.2945  0.0768
 9784TIP3    H150767   3.807   5.324   1.489 -0.1932  0.7287  1.4580
 9784TIP3    H250768   3.854   5.404   1.369  1.6310 -1.3176  0.7751
 9785TIP3   OH250769   5.892   4.359  12.043  0.3417  0.0645 -0.4109
 9785TIP3    H150770   5.951   4.307  11.988  0.4177  0.5448 -0.7874
 9785TIP3    H250771   5.837   4.295  12.087  1.4546 -0.4178  0.2917
 9786TIP3   OH250772   0.164   1.293  12.338 -0.0710 -0.2828 -0.4073
 9786TIP3    H150773   0.100   1.222  12.335 -0.6137  0.2423 -1.6078
 9786TIP3    H250774   0.136   1.347  12.412 -0.9402 -0.1451 -0.8236
 9787TIP3   OH250775   5.749   1.766   5.449 -0.9774 -0.4129  0.4319
 9787TIP3    H150776   5.776   1.826   5.518  0.7309 -0.1577 -0.4183
 9787TIP3    H250777   5.811   1.693   5.456 -0.2420  0.0175 -1.3574
 9788TIP3   OH250778   3.416   1.952   4.207  0.3723 -0.0809  0.7571
 9788TIP3    H150779   3.351   1.883   4.194  0.7194 -0.4415  0.9298
 9788TIP3    H250780   3.500   1.910   4.188  0.3604  1.1491 -2.3880
 9789TIP3   OH250781   6.544   3.944  11.396  0.1273 -0.1285 -0.1107
 9789TIP3    H150782   6.488   4.004  11.347 -1.0376 -1.7576 -0.8011
 9789TIP3    H250783   6.490   3.867  11.411  1.5545 -0.9580  0.8959
 9790TIP3   OH250784   1.892   2.324  10.705  0.2689  0.2381 -0.5365
 9790TIP3    H150785   1.815   2.378  10.720  1.9216  2.3583  0.6063
 9790TIP3    H250786   1.957   2.356  10.767  2.2142 -1.2147 -1.7357
 9791TIP3   OH250787   1.212   6.054   0.451 -0.5998 -0.1308 -0.6371
 9791TIP3    H150788   1.285   6.072   0.509 -1.2883 -0.7658  0.4312
 9791TIP3    H250789   1.143   6.114   0.480 -1.2696 -1.1106 -0.1784
 9792TIP3   OH250790   5.014   0.581  15.511 -0.0547  0.3363 -0.4722
 9792TIP3    H150791   4.973   0.565  15.596  2.8955  0.5917  1.0677
 9792TIP3    H250792   4.961   0.530  15.449 -0.6443 -2.1126  1.9248
 9793TIP3   OH250793   3.815   6.180  16.547  0.6020 -0.5443  0.5486
 9793TIP3    H150794   3.823   6.275  16.533 -1.1195 -0.5614 -0.6139
 9793TIP3    H250795   3.835   6.142  16.462 -0.5450 -1.1313  0.5364
 9794TIP3   OH250796   3.205   1.229   4.007  0.4656 -0.2084 -0.0575
 9794TIP3    H150797   3.136   1.295   4.017  1.7428  0.9770  1.3003
 9794TIP3    H250798   3.268   1.270   3.949 -0.1061 -1.4188 -1.5556
 9795TIP3   OH250799   5.589   6.532   2.137 -0.5364 -0.7395 -0.0620
 9795TIP3    H150800   5.528   6.493   2.200 -1.1976  1.9678  1.0471
 9795TIP3    H250801   5.675   6.501   2.165 -0.7502  0.9478  2.6241
 9796TIP3   OH250802   0.470   3.581  15.388  0.2692 -0.3486 -0.0087
 9796TIP3    H150803   0.482   3.506  15.447 -0.0993  0.2901  0.8992
 9796TIP3    H250804   0.501   3.656  15.439  0.6993  0.0983 -0.9409
 9797TIP3   OH250805   2.805   4.595  14.702 -0.1656  0.1315 -0.2274
 9797TIP3    H150806   2.811   4.530  14.771  0.1253 -0.2333 -0.5955
 9797TIP3    H250807   2.711   4.601  14.682 -0.2512  0.2603  0.2207
 9798TIP3   OH250808   4.656   5.568  14.309  0.3583  0.3529  0.4959
 9798TIP3    H150809   4.596   5.494  14.303  1.0642 -0.0918 -1.7413
 9798TIP3    H250810   4.635   5.623  14.233  1.5164  1.1480  0.7224
 9799TIP3   OH250811   4.965   3.224   2.576 -0.0041  0.4093  0.1111
 9799TIP3    H150812   5.060   3.228   2.562 -0.2075  2.1174 -0.9173
 9799TIP3    H250813   4.952   3.263   2.662  0.2409 -0.0857  0.3769
 9800TIP3   OH250814   0.718   0.998   0.682  0.3753  1.1571  0.2227
 9800TIP3    H150815   0.678   0.911   0.669  0.1705  0.9910  1.8583
 9800TIP3    H250816   0.749   1.023   0.595  0.2022 -0.4464 -0.3220
 9801TIP3   OH250817   3.861   5.442   2.784 -0.1974  0.2167 -0.7028
 9801TIP3    H150818   3.905   5.527   2.787 -0.2504  0.2183  0.3998
 9801TIP3    H250819   3.768   5.463   2.777 -0.2328  0.2594 -0.1344
 9802TIP3   OH250820   3.943   0.137   4.315  0.4515 -0.0607  0.0940
 9802TIP3    H150821   4.029   0.165   4.346  0.8308 -1.1645  0.0247
 9802TIP3    H250822   3.900   0.102   4.393  0.0127  0.5905  0.1539
 9803TIP3   OH250823   4.901   3.858   1.617 -0.2589  0.1988 -0.7752
 9803TIP3    H150824   4.872   3.838   1.528 -2.4381  1.5554 -0.4227
 9803TIP3    H250825   4.831   3.825   1.673  0.6909  0.1364  0.3970
 9804TIP3   OH250826   0.998   0.690   0.720 -0.1154 -0.6031 -0.2201
 9804TIP3    H150827   0.992   0.761   0.784 -1.8269 -0.9740  0.0629
 9804TIP3    H250828   1.090   0.688   0.695  0.0027  1.6045 -0.1019
 9805TIP3   OH250829   1.333   5.438   3.474 -0.2449  0.4254 -0.1492
 9805TIP3    H150830   1.306   5.505   3.536 -1.3985 -0.4927  0.3633
 9805TIP3    H250831   1.260   5.432   3.412  0.8740  1.3022 -1.5817
 9806TIP3   OH250832   0.127   1.845  11.024  0.2955 -0.0861  0.1986
 9806TIP3    H150833   0.098   1.910  10.960 -1.1423 -1.5474 -0.6715
 9806TIP3    H250834   0.214   1.818  10.993  0.1116  0.0771 -0.4660
 9807TIP3   OH250835   2.871   1.185   4.448 -0.3656 -0.2061  0.4497
 9807TIP3    H150836   2.931   1.122   4.407 -0.1952  1.0140 -1.2420
 9807TIP3    H250837   2.876   1.263   4.392 -0.3310  1.4458  2.6701
 9808TIP3   OH250838   0.528   2.990   0.629 -0.0364  0.2832  0.4064
 9808TIP3    H150839   0.482   3.011   0.548 -0.4845 -1.4300  0.1949
 9808TIP3    H250840   0.514   3.066   0.685 -0.3893  1.1447 -0.8276
 9809TIP3   OH250841   5.002   5.043  11.349 -0.4823  0.3598 -0.1664
 9809TIP3    H150842   4.914   5.040  11.314  0.2590  0.5722 -2.0851
 9809TIP3    H250843   5.058   5.014  11.277  1.0041  0.0859  1.0611
 9810TIP3   OH250844   0.957   6.070   5.661 -0.3205 -0.0168 -0.9315
 9810TIP3    H150845   0.928   6.070   5.569 -0.2791  0.6892 -0.9435
 9810TIP3    H250846   0.986   6.160   5.677  3.9019 -1.1414 -1.5677
 9811TIP3   OH250847   2.815   5.029   0.189  0.5626  0.4169  0.2878
 9811TIP3    H150848   2.720   5.019   0.190  0.5697  0.3238  0.0786
 9811TIP3    H250849   2.830   5.117   0.153  0.5417  0.6170  0.7727
 9812TIP3   OH250850   4.403   6.513   4.062 -0.2136  0.2256 -0.3792
 9812TIP3    H150851   4.466   6.474   4.002 -0.0699  0.9906 -0.7403
 9812TIP3    H250852   4.452   6.523   4.144  0.0769  0.6096 -0.5937
 9813TIP3   OH250853   1.512   5.623  16.890  0.1531  0.0133  0.0588
 9813TIP3    H150854   1.526   5.672  16.809  0.3841 -0.2040 -0.0301
 9813TIP3    H250855   1.599   5.597  16.918  0.0035 -0.6846 -0.1030
 9814TIP3   OH250856   6.517   6.739  15.877  0.5270 -0.0565  0.0847
 9814TIP3    H150857   6.507   6.828  15.843 -0.4852  0.2585  1.1855
 9814TIP3    H250858   6.609   6.718  15.862  0.3929  0.5178 -1.7642
 9815TIP3   OH250859   4.007   6.210   4.802 -0.8353 -0.0414 -0.1430
 9815TIP3    H150860   4.086   6.236   4.754  0.2487 -0.4394  1.3855
 9815TIP3    H250861   4.002   6.272   4.875 -0.6941 -1.3765  1.0193
 9816TIP3   OH250862   1.826   1.958  14.189  0.3100 -0.0971 -0.0097
 9816TIP3    H150863   1.765   2.005  14.246 -0.1557 -1.0394  0.2826
 9816TIP3    H250864   1.819   2.003  14.105 -1.3586 -0.6330 -0.1856
 9817TIP3   OH250865   0.099   2.244   6.080  0.5408  0.1892  0.6336
 9817TIP3    H150866   0.166   2.265   6.146 -0.8890  0.2957  2.0687
 9817TIP3    H250867   0.019   2.231   6.130  0.1239 -3.1423 -0.7631
 9818TIP3   OH250868   4.781   5.365   4.542  0.2057  0.2894 -0.1484
 9818TIP3    H150869   4.810   5.360   4.633 -2.7573  0.3116  0.8753
 9818TIP3    H250870   4.689   5.391   4.548 -0.0571  0.2334 -3.1562
 9819TIP3   OH250871   4.130   1.109  14.451  1.1026 -0.3631 -0.3354
 9819TIP3    H150872   4.219   1.077  14.464  0.5681 -1.0707  1.7827
 9819TIP3    H250873   4.085   1.090  14.534 -0.3210  2.2838 -0.4568
 9820TIP3   OH250874   0.500   0.473  16.620 -0.1173  0.2254 -0.0168
 9820TIP3    H150875   0.507   0.404  16.554 -0.8075 -1.4102  1.5806
 9820TIP3    H250876   0.580   0.524  16.609  0.9936 -1.5514 -0.4335
 9821TIP3   OH250877   2.591   4.166   0.651  0.4966  0.3647 -0.0831
 9821TIP3    H150878   2.610   4.082   0.691 -1.1176  0.4319  0.8917
 9821TIP3    H250879   2.509   4.152   0.603 -0.6698  1.7431  1.4002
 9822TIP3   OH250880   0.580   5.913   5.560  0.1319  0.1881  0.3468
 9822TIP3    H150881   0.537   5.850   5.618  0.4803 -0.1080  0.2874
 9822TIP3    H250882   0.639   5.859   5.507  1.2167  0.6982  1.0251
 9823TIP3   OH250883   4.971   1.325  14.717  0.2235 -0.0817 -0.2043
 9823TIP3    H150884   4.896   1.378  14.744  1.0084  1.5796 -1.1945
 9823TIP3    H250885   5.047   1.377  14.743  1.0051 -0.1150 -2.3076
 9824TIP3   OH250886   4.955   5.169  10.991 -0.3468  0.0523  0.3144
 9824TIP3    H150887   4.877   5.136  10.946  0.5038  1.9637 -2.7808
 9824TIP3    H250888   5.005   5.091  11.013 -1.4818 -1.0446 -0.8465
 9825TIP3   OH250889   2.811   2.018   1.889  0.1464 -0.6258  0.4221
 9825TIP3    H150890   2.836   2.063   1.970 -0.2215 -0.3952  0.4069
 9825TIP3    H250891   2.719   2.038   1.878  0.3353 -0.1741 -0.3622
 9826TIP3   OH250892   0.500   3.590  14.314  0.0441 -0.0637  0.0178
 9826TIP3    H150893   0.417   3.591  14.266  0.5864  1.0256 -0.9136
 9826TIP3    H250894   0.566   3.606  14.247  0.9340 -0.0497  0.8985
 9827TIP3   OH250895   1.126   4.570   6.084 -0.3596  0.2497  0.2233
 9827TIP3    H150896   1.184   4.594   6.156  1.2167 -0.7957 -0.6459
 9827TIP3    H250897   1.061   4.639   6.080  1.7353  2.2733  0.2694
 9828TIP3   OH250898   0.350   0.205   2.876 -0.1525 -0.3687 -0.3397
 9828TIP3    H150899   0.348   0.194   2.780  2.3084 -0.9738 -0.3514
 9828TIP3    H250900   0.314   0.293   2.890 -0.4667 -0.2370 -1.8261
 9829TIP3   OH250901   6.540   4.774  11.364  0.5292 -0.3307  0.1847
 9829TIP3    H150902   6.588   4.850  11.398  1.8279 -0.5745 -1.0316
 9829TIP3    H250903   6.583   4.755  11.281 -0.8360 -1.4123 -0.2825
 9830TIP3   OH250904   6.077   0.859  10.680  0.1068 -0.2521 -0.0669
 9830TIP3    H150905   6.166   0.822  10.681  1.1291  2.1683  1.9187
 9830TIP3    H250906   6.090   0.954  10.677 -2.3309  0.2771  3.0435
 9831TIP3   OH250907   4.918   5.501  12.242  0.5926 -0.2324 -0.2017
 9831TIP3    H150908   4.962   5.550  12.311  2.6917 -2.3429  0.0440
 9831TIP3    H250909   4.958   5.533  12.161  1.7357 -1.2632 -0.0631
 9832TIP3   OH250910   5.990   3.077   1.338 -0.2518 -0.6222 -0.0964
 9832TIP3    H150911   5.919   3.091   1.401  0.3439  1.8359  0.0543
 9832TIP3    H250912   6.006   2.982   1.341 -0.5361 -0.6211  3.1233
 9833TIP3   OH250913   1.168   6.465   6.027 -0.3254 -0.0463 -0.0752
 9833TIP3    H150914   1.251   6.460   6.073 -0.7216 -1.8615  0.4851
 9833TIP3    H250915   1.105   6.494   6.093  0.0865  2.7798 -0.8484
 9834TIP3   OH250916   3.104   4.364  12.424 -0.2290  0.5440 -0.7043
 9834TIP3    H150917   3.070   4.279  12.397 -1.2336  0.7043 -0.0013
 9834TIP3    H250918   3.054   4.386  12.503  0.8137  1.2703 -0.2352
 9835TIP3   OH250919   0.609   0.868  12.943 -0.5006  0.5579 -0.2595
 9835TIP3    H150920   0.531   0.835  12.988 -0.4644  1.9101  0.8439
 9835TIP3    H250921   0.681   0.846  13.002 -0.5482  3.1250  0.8224
 9836TIP3   OH250922   3.705   6.148  13.273 -0.1931  0.1985 -0.0359
 9836TIP3    H150923   3.718   6.165  13.366 -2.8509 -0.4378  0.5037
 9836TIP3    H250924   3.679   6.233  13.236 -0.6594  0.1173  0.1064
 9837TIP3   OH250925   1.135   5.424   2.200  0.0348 -0.1794  0.2253
 9837TIP3    H150926   1.215   5.431   2.149  1.0662 -1.7610  1.5970
 9837TIP3    H250927   1.096   5.341   2.174 -1.9416  1.2132 -1.4815
 9838TIP3   OH250928   2.192   2.901  16.516  0.6444  0.3887 -0.1270
 9838TIP3    H150929   2.166   2.809  16.520  1.9263  0.0454  0.4637
 9838TIP3    H250930   2.110   2.949  16.505 -0.0185 -0.8300 -0.5768
 9839TIP3   OH250931   0.122   6.038   1.322 -0.0148 -0.2960 -0.2578
 9839TIP3    H150932   0.097   6.065   1.411 -0.3621  2.6153 -1.1945
 9839TIP3    H250933   0.042   6.049   1.270  0.2195 -1.8707 -0.9584
 9840TIP3   OH250934   2.595   5.530   6.726 -0.3143  0.1152 -0.3363
 9840TIP3    H150935   2.587   5.501   6.635  3.0150 -0.2056 -0.6037
 9840TIP3    H250936   2.588   5.450   6.778  1.0326 -0.1665 -0.5608
 9841TIP3   OH250937   0.854   5.637   3.441 -0.1551  0.7525  0.1464
 9841TIP3    H150938   0.813   5.552   3.429 -0.2555  0.8379 -0.1225
 9841TIP3    H250939   0.923   5.640   3.374 -0.7410  1.2458 -0.4508
 9842TIP3   OH250940   0.718   1.632   4.272  0.2573 -0.3803 -0.6568
 9842TIP3    H150941   0.750   1.721   4.285 -1.3791 -0.0084  0.9549
 9842TIP3    H250942   0.703   1.625   4.178 -0.0549  1.1900 -0.7364
 9843TIP3   OH250943   2.861   1.952  11.011  0.1729  0.2819  0.4777
 9843TIP3    H150944   2.852   1.916  11.099  1.1296  1.0802  0.9077
 9843TIP3    H250945   2.817   1.888  10.955 -0.1367 -0.4073  1.4873
 9844TIP3   OH250946   0.682   5.513  17.130  0.2102  0.3852  0.2333
 9844TIP3    H150947   0.634   5.509  17.213  0.1384  0.7593  0.2128
 9844TIP3    H250948   0.625   5.468  17.068  0.0703  0.4636  0.3013
 9845TIP3   OH250949   5.560   3.977   3.762 -0.2652  0.4978  0.2228
 9845TIP3    H150950   5.637   3.939   3.803 -1.1420 -0.9498  0.5816
 9845TIP3    H250951   5.560   3.942   3.673 -0.1174  1.0597  0.0014
 9846TIP3   OH250952   4.167   5.271  16.549 -0.3714 -0.0331 -0.6321
 9846TIP3    H150953   4.149   5.227  16.632  2.1448  1.1164  0.6078
 9846TIP3    H250954   4.135   5.211  16.482  0.6576 -2.6130  1.0824
 9847TIP3   OH250955   3.966   2.929   6.843 -0.1214  0.0362 -0.0764
 9847TIP3    H150956   3.928   3.015   6.826 -0.7985 -0.5034 -1.4769
 9847TIP3    H250957   3.890   2.871   6.849  0.4210 -0.9679 -2.3443
 9848TIP3   OH250958   4.815   3.325  13.085  0.0787 -0.2525  0.6025
 9848TIP3    H150959   4.842   3.236  13.064  0.3587 -0.1561  0.5497
 9848TIP3    H250960   4.735   3.315  13.136 -1.7221 -0.4433 -2.1770
 9849TIP3   OH250961   5.574   4.029  16.746 -0.0757 -0.2288 -0.0271
 9849TIP3    H150962   5.648   4.083  16.775 -0.9784  1.3343 -0.5650
 9849TIP3    H250963   5.615   3.952  16.707  1.2902  0.7275 -0.5175
 9850TIP3   OH250964   2.472   5.610   5.523  0.2457  0.1288  0.5607
 9850TIP3    H150965   2.493   5.589   5.614  0.5315  2.2238  1.0127
 9850TIP3    H250966   2.403   5.676   5.529 -0.0996 -0.1023 -0.7483
 9851TIP3   OH250967   3.601   2.929   2.904  0.7641  0.1866  0.4090
 9851TIP3    H150968   3.592   3.001   2.967  1.8796 -0.5400  1.4217
 9851TIP3    H250969   3.654   2.966   2.834  0.9890  0.4804  0.7310
 9852TIP3   OH250970   1.785   5.883  17.142  0.6924 -0.2311 -0.1877
 9852TIP3    H150971   1.816   5.961  17.188 -0.9666  1.1662 -1.3633
 9852TIP3    H250972   1.751   5.826  17.211  0.1737  0.9211  0.5231
 9853TIP3   OH250973   1.977   6.137   3.939  0.0327 -0.2467  0.1035
 9853TIP3    H150974   1.894   6.140   3.985 -0.4628 -0.3628 -0.7751
 9853TIP3    H250975   1.965   6.194   3.863  0.8831  0.0432  0.1809
 9854TIP3   OH250976   2.577   5.595   3.945  0.4381 -0.0821 -0.1230
 9854TIP3    H150977   2.584   5.652   4.022  0.3073 -2.7943  1.9561
 9854TIP3    H250978   2.660   5.607   3.899  1.0960  0.5382  1.1778
 9855TIP3   OH250979   4.692   1.032  13.651  0.4437  0.1481  0.1112
 9855TIP3    H150980   4.613   1.079  13.681 -0.8656 -1.3550 -0.9012
 9855TIP3    H250981   4.663   0.941  13.642  2.6291 -0.6417  0.8791
 9856TIP3   OH250982   0.993   4.313  11.762 -0.1882 -0.0454 -0.4855
 9856TIP3    H150983   1.063   4.269  11.713  0.7737  2.1678 -1.2085
 9856TIP3    H250984   1.023   4.404  11.769 -0.4603 -0.1868  3.9749
 9857TIP3   OH250985   0.080   1.205   1.999  0.1011 -0.3136 -0.4065
 9857TIP3    H150986   0.166   1.205   1.956 -0.0313 -2.1240 -0.7238
 9857TIP3    H250987   0.099   1.193   2.092  0.2173 -0.3164 -0.4304
 9858TIP3   OH250988   4.140   1.885   0.170 -0.6148  0.4037 -0.0541
 9858TIP3    H150989   4.054   1.923   0.183  0.0483  1.3313  1.7941
 9858TIP3    H250990   4.143   1.810   0.229  0.3664  1.2710  1.0338
 9859TIP3   OH250991   5.369   2.080   0.052  0.0832  0.0825 -0.0143
 9859TIP3    H150992   5.386   2.103  -0.039 -1.8589 -0.7159 -0.5974
 9859TIP3    H250993   5.438   2.125   0.101  0.6439  1.2015 -1.7809
 9860TIP3   OH250994   6.249   3.453   1.154 -0.2081  0.3844 -0.2099
 9860TIP3    H150995   6.310   3.395   1.108 -1.6074 -1.6686  0.4739
 9860TIP3    H250996   6.281   3.453   1.244  1.6498  3.2232 -0.8127
 9861TIP3   OH250997   1.496   3.096  16.078 -0.2430 -0.3113 -0.0737
 9861TIP3    H150998   1.482   3.038  16.003  1.0993 -3.8081  2.2687
 9861TIP3    H250999   1.585   3.130  16.065 -0.3571 -0.1928 -0.5424
 9862TIP3   OH251000   4.969   0.493  13.631 -0.3434  0.1295 -0.4658
 9862TIP3    H151001   4.998   0.580  13.659 -0.3495 -0.0423  0.0711
 9862TIP3    H251002   4.892   0.511  13.576  0.0660  0.5053 -0.9246
 9863TIP3   OH251003   2.892   0.460  13.338  0.5137 -0.3994 -0.3336
 9863TIP3    H151004   2.839   0.386  13.369  0.2444 -0.7348 -1.5728
 9863TIP3    H251005   2.982   0.434  13.356  0.4046 -0.9260 -0.5156
 9864TIP3   OH251006   5.961   2.569  16.416  0.0564  0.2813 -0.5141
 9864TIP3    H151007   5.910   2.650  16.408 -0.2009  0.3176  1.1377
 9864TIP3    H251008   5.908   2.503  16.373 -1.2683  0.3898  0.8864
 9865TIP3   OH251009   5.976   2.951   6.667 -0.2565  0.7116 -0.0915
 9865TIP3    H151010   6.043   2.890   6.698 -0.1820  1.4094  1.1665
 9865TIP3    H251011   6.026   3.020   6.623 -0.2855  0.2481 -0.8466
 9866TIP3   OH251012   4.215   2.987   0.304  0.1253 -0.0363 -0.2434
 9866TIP3    H151013   4.193   3.035   0.224 -0.8745  1.5446  0.9505
 9866TIP3    H251014   4.294   3.030   0.337  1.6068 -1.8457 -1.2980
 9867TIP3   OH251015   1.534   0.970  14.404 -0.0432  0.2966  0.1519
 9867TIP3    H151016   1.524   0.881  14.439  0.5874 -0.0873 -0.6277
 9867TIP3    H251017   1.595   0.960  14.331  0.5254  1.4672  0.4522
 9868TIP3   OH251018   6.634   4.121   4.407  0.2996  0.3332 -0.8907
 9868TIP3    H151019   6.692   4.197   4.415  1.8634 -0.8854 -0.3394
 9868TIP3    H251020   6.556   4.144   4.457  2.6358 -0.2172  3.1727
 9869TIP3   OH251021   3.650   0.715  11.550  0.4075  0.5145 -0.4408
 9869TIP3    H151022   3.676   0.684  11.464 -1.2895 -0.9694 -0.4662
 9869TIP3    H251023   3.677   0.645  11.610 -0.2716  0.5900 -0.0415
 9870TIP3   OH251024   6.179   6.129   0.035  0.3609 -0.1375 -0.0082
 9870TIP3    H151025   6.177   6.036   0.015 -1.8691 -0.0555 -0.3761
 9870TIP3    H251026   6.088   6.158   0.023  1.1470  2.2277 -0.5947
 9871TIP3   OH251027   5.498   3.518   2.137 -0.4124  0.1310  0.2336
 9871TIP3    H151028   5.529   3.608   2.151 -0.0240 -0.1287  1.0830
 9871TIP3    H251029   5.484   3.512   2.043  2.6416  0.0780 -0.2572
 9872TIP3   OH251030   3.561   3.499  14.037 -0.0881 -0.2005  0.1976
 9872TIP3    H151031   3.636   3.533  13.988  0.1008  0.5214  0.9670
 9872TIP3    H251032   3.537   3.418  13.992  1.3301 -0.5838  0.1106
 9873TIP3   OH251033   1.308   2.480  14.348  0.3960  0.5028  0.1523
 9873TIP3    H151034   1.288   2.443  14.262  0.1600 -0.5203  0.6380
 9873TIP3    H251035   1.384   2.429  14.379  0.7394  1.1412  0.3769
 9874TIP3   OH251036   1.049   4.757  16.811  0.3671 -0.0097  0.1751
 9874TIP3    H151037   1.069   4.844  16.776 -1.0562 -0.4401 -1.7872
 9874TIP3    H251038   1.123   4.702  16.785  0.2556  0.1297 -0.4274
 9875TIP3   OH251039   3.643   1.145   3.805 -0.2834  0.1792 -0.3982
 9875TIP3    H151040   3.604   1.218   3.853  1.6165  1.5732 -0.9151
 9875TIP3    H251041   3.682   1.186   3.728  3.6729 -0.8980  0.9399
 9876TIP3   OH251042   2.091   6.311   1.478 -0.0107  0.8783 -0.2245
 9876TIP3    H151043   2.000   6.291   1.498  0.0507  0.5584 -0.2610
 9876TIP3    H251044   2.117   6.245   1.414 -0.3414  2.1829 -1.7316
 9877TIP3   OH251045   1.067   2.582  15.948 -0.1861  0.0174  0.1985
 9877TIP3    H151046   1.041   2.501  15.903  0.8912  0.4813 -1.2864
 9877TIP3    H251047   1.059   2.561  16.041 -2.1128 -1.0728 -0.1767
 9878TIP3   OH251048   5.429   4.864   4.599 -0.2222 -0.0105  0.4111
 9878TIP3    H151049   5.376   4.900   4.527 -1.1773  0.4655  1.3386
 9878TIP3    H251050   5.369   4.805   4.645 -0.2910  1.3420  2.1067
 9879TIP3   OH251051   1.492   2.978   3.757 -0.2168 -0.3168  0.6258
 9879TIP3    H151052   1.440   3.000   3.680 -0.0007  4.3115  1.6607
 9879TIP3    H251053   1.581   3.009   3.736  0.1112 -0.1216  2.2372
 9880TIP3   OH251054   0.669   4.864  12.999  0.3611  0.3278 -0.6327
 9880TIP3    H151055   0.590   4.878  13.053  0.6252  0.0590 -0.1724
 9880TIP3    H251056   0.636   4.853  12.910 -0.0626  1.0708 -0.5738
 9881TIP3   OH251057   4.538   6.407   2.493  0.3710  0.0181  0.0715
 9881TIP3    H151058   4.537   6.487   2.546  0.0197  0.5123 -0.6649
 9881TIP3    H251059   4.449   6.399   2.460  0.7083 -0.0028 -0.8570
 9882TIP3   OH251060   1.592   1.784  12.103 -0.5300  0.0681 -0.5377
 9882TIP3    H151061   1.511   1.745  12.071 -0.8569 -0.6751  1.1744
 9882TIP3    H251062   1.618   1.729  12.177 -0.4004  2.4152  1.2177
 9883TIP3   OH251063   3.809   2.471  12.293  0.5406  0.4871 -0.2050
 9883TIP3    H151064   3.880   2.411  12.313  1.0428  0.4870 -1.8625
 9883TIP3    H251065   3.824   2.547  12.349  1.9230  0.5337 -0.6170
 9884TIP3   OH251066   3.402   4.540   2.130  0.0854 -0.5219  0.6670
 9884TIP3    H151067   3.464   4.604   2.096  1.2399 -2.3117 -0.7138
 9884TIP3    H251068   3.372   4.492   2.053 -2.8917  0.1587  1.3398
 9885TIP3   OH251069   4.257   3.078  10.865  0.0813 -0.2487  0.3132
 9885TIP3    H151070   4.260   2.997  10.816 -2.2770  0.0587 -0.3587
 9885TIP3    H251071   4.205   3.058  10.943 -2.8090  1.2676 -1.1601
 9886TIP3   OH251072   1.719   3.257   5.090  0.1408 -0.0069  0.1533
 9886TIP3    H151073   1.640   3.302   5.119 -0.7579 -1.5462  0.1673
 9886TIP3    H251074   1.745   3.304   5.010 -0.1289  1.2106  0.7644
 9887TIP3   OH251075   4.956   5.573   3.514  0.5410  0.3187  0.2395
 9887TIP3    H151076   5.008   5.653   3.513 -1.2363  1.4899 -0.5309
 9887TIP3    H251077   4.891   5.587   3.583  1.3367 -1.2035  1.3270
 9888TIP3   OH251078   3.195   4.982   5.828  0.3207 -0.2480  0.2636
 9888TIP3    H151079   3.141   4.908   5.856 -1.5946  0.9563 -0.2013
 9888TIP3    H251080   3.237   5.012   5.909 -1.8159  0.4912  1.1337
 9889TIP3   OH251081   4.060   3.333  11.731  0.5231 -0.4128  0.3044
 9889TIP3    H151082   3.969   3.329  11.762  0.2123  1.8172 -0.2475
 9889TIP3    H251083   4.111   3.355  11.809  0.4774 -0.5806  0.3842
 9890TIP3   OH251084   4.970   2.064   3.440 -0.2396  0.2227  0.5739
 9890TIP3    H151085   4.948   2.130   3.506  3.7589  1.0691  1.1832
 9890TIP3    H251086   4.944   2.104   3.357  1.1022  2.1748  1.0523
 9891TIP3   OH251087   3.196   0.269   5.507  0.0303 -0.2427 -0.2264
 9891TIP3    H151088   3.178   0.213   5.582 -0.1723  0.1248  0.0013
 9891TIP3    H251089   3.231   0.350   5.545  0.0055 -0.0877 -0.5310
 9892TIP3   OH251090   5.039   2.071   5.127  0.2128 -0.2533  0.4834
 9892TIP3    H151091   5.028   2.136   5.058  0.5722 -0.4098  0.2737
 9892TIP3    H251092   5.134   2.061   5.135  0.1423 -1.8435 -0.5171
 9893TIP3   OH251093   4.998   0.650   3.422  0.3106  0.4128  0.0206
 9893TIP3    H151094   4.925   0.686   3.373 -1.0466 -0.2385  1.5369
 9893TIP3    H251095   4.972   0.560   3.443  2.0736 -0.2601 -0.5138
 9894TIP3   OH251096   4.861   2.783  12.240  0.4474 -0.0446 -0.6237
 9894TIP3    H151097   4.826   2.754  12.156 -1.1573 -1.1614  0.4014
 9894TIP3    H251098   4.908   2.707  12.274  2.6170  0.9655 -1.2896
 9895TIP3   OH251099   3.652   4.420  13.492 -0.0920  0.6141 -0.7175
 9895TIP3    H151100   3.629   4.419  13.585 -0.2081  1.3333 -0.7320
 9895TIP3    H251101   3.742   4.386  13.489  0.6577  2.4363 -0.1043
 9896TIP3   OH251102   3.048   5.223   5.942 -0.5904  0.3584 -0.0842
 9896TIP3    H151103   3.099   5.184   6.013 -2.6440 -0.8879  0.7197
 9896TIP3    H251104   3.045   5.316   5.964  1.3570  0.4800 -0.1782
 9897TIP3   OH251105   5.487   4.956  15.588  0.3767  0.6554  0.2800
 9897TIP3    H151106   5.574   4.964  15.550  1.2245  1.2303  2.2839
 9897TIP3    H251107   5.469   4.862  15.585  1.0619  0.5325 -0.1464
 9898TIP3   OH251108   2.361   0.307   5.394 -0.6171  0.0186 -0.1328
 9898TIP3    H151109   2.363   0.211   5.402 -0.4808 -0.0469 -0.8784
 9898TIP3    H251110   2.285   0.333   5.445 -0.5293 -0.4717  0.2583
 9899TIP3   OH251111   2.603   2.058   1.307 -0.2256  0.4038 -0.4073
 9899TIP3    H151112   2.519   2.067   1.353  0.0088  1.3619 -0.1546
 9899TIP3    H251113   2.667   2.047   1.377  0.0115  0.8651 -0.5542
 9900TIP3   OH251114   3.994   3.397   0.867 -0.2424  0.3051 -0.2487
 9900TIP3    H151115   3.967   3.321   0.815  1.6857 -0.5643 -0.0028
 9900TIP3    H251116   3.933   3.398   0.942  0.6428 -1.8777  0.5248
 9901TIP3   OH251117   0.159   2.593  12.380 -0.8666  0.5083 -0.2951
 9901TIP3    H151118   0.093   2.526  12.360 -0.2184 -0.2446  0.0539
 9901TIP3    H251119   0.221   2.587  12.308  1.3399 -2.0359  1.7240
 9902TIP3   OH251120   6.221   5.022  15.768  0.3640  0.5809 -0.8617
 9902TIP3    H151121   6.251   5.096  15.716  0.2329  2.0021  1.0410
 9902TIP3    H251122   6.126   5.027  15.766  0.3713  1.4130  0.5840
 9903TIP3   OH251123   5.252   3.821  16.219  0.3665  0.0545 -0.1149
 9903TIP3    H151124   5.309   3.851  16.149  2.2150 -2.3973  0.2498
 9903TIP3    H251125   5.258   3.889  16.286 -1.4042  2.3902 -2.2888
 9904TIP3   OH251126   2.583   0.833   0.911 -0.4172  0.3290 -0.2367
 9904TIP3    H151127   2.646   0.810   0.842 -0.5782 -0.1823 -0.2124
 9904TIP3    H251128   2.548   0.917   0.883  1.1555  1.2162  0.3544
 9905TIP3   OH251129   2.832   6.459  11.186  0.2568  0.5017 -0.6696
 9905TIP3    H151130   2.758   6.519  11.182 -0.3668 -0.0877  1.4333
 9905TIP3    H251131   2.864   6.454  11.096 -0.7342  2.6595 -1.1691
 9906TIP3   OH251132   4.337   5.735  14.855 -0.1841  0.2150 -0.2361
 9906TIP3    H151133   4.267   5.677  14.884 -0.2145  0.2000 -0.3401
 9906TIP3    H251134   4.300   5.782  14.780 -0.6145  1.3362  0.6762
 9907TIP3   OH251135   2.132   2.381  14.178 -0.4416 -0.3801 -0.1721
 9907TIP3    H151136   2.142   2.310  14.115 -0.1263  0.7030 -1.3732
 9907TIP3    H251137   2.038   2.382  14.198 -0.6258 -0.4076 -1.0197
 9908TIP3   OH251138   5.122   3.685   6.128 -0.7848 -0.2335 -0.4474
 9908TIP3    H151139   5.068   3.610   6.152 -1.0980  0.7926  2.2744
 9908TIP3    H251140   5.062   3.760   6.132  0.0889  0.4847 -0.5942
 9909TIP3   OH251141   3.123   6.730   0.567  0.5830  0.2237 -0.0804
 9909TIP3    H151142   3.150   6.760   0.654  0.2165 -1.1770  0.5421
 9909TIP3    H251143   3.076   6.804   0.529  1.5978  1.1846  0.5314
 9910TIP3   OH251144   2.682   4.551  16.551 -0.2240  0.0026 -0.2255
 9910TIP3    H151145   2.652   4.516  16.468 -0.8221  1.5146 -0.6745
 9910TIP3    H251146   2.614   4.526  16.614 -1.7712  2.1401 -0.9555
 9911TIP3   OH251147   2.521   3.927   5.537 -0.1251  0.2502  0.8602
 9911TIP3    H151148   2.508   3.835   5.513  0.9156  0.2973  0.0993
 9911TIP3    H251149   2.432   3.962   5.546 -0.5372 -0.1313 -1.5177
 9912TIP3   OH251150   5.296   0.681   4.832  0.1110 -0.8004  0.3976
 9912TIP3    H151151   5.216   0.640   4.866 -0.6749 -0.4054 -0.9250
 9912TIP3    H251152   5.365   0.618   4.851 -0.6724 -1.5939  0.6822
 9913TIP3   OH251153   1.518   3.364   2.695 -0.0626  0.5098 -0.1180
 9913TIP3    H151154   1.478   3.299   2.636  1.1800 -1.8296  1.5451
 9913TIP3    H251155   1.447   3.390   2.754 -0.3386 -0.0407 -0.2048
 9914TIP3   OH251156   2.631   4.745   0.825  0.2451 -0.2820  0.0592
 9914TIP3    H151157   2.611   4.757   0.732 -0.9130  0.8241  0.4329
 9914TIP3    H251158   2.705   4.684   0.826  1.8896  1.6281 -1.6864
 9915TIP3   OH251159   1.106   4.761  13.929  0.2589  0.3210 -0.1875
 9915TIP3    H151160   1.056   4.838  13.958  1.6454  0.3779  2.1605
 9915TIP3    H251161   1.084   4.753  13.836 -1.2271  2.5364 -0.0952
 9916TIP3   OH251162   6.514   3.170  11.106  0.1826  0.0396 -0.2259
 9916TIP3    H151163   6.546   3.255  11.076 -0.8201  0.7609  0.7016
 9916TIP3    H251164   6.432   3.158  11.058 -0.1342  0.0181  0.3146
 9917TIP3   OH251165   1.070   3.749  13.865 -0.3359  0.4924 -0.0282
 9917TIP3    H151166   1.129   3.726  13.936 -0.7087  1.7851  0.7057
 9917TIP3    H251167   0.988   3.702  13.885 -0.6397  1.3396  0.7226
 9918TIP3   OH251168   1.601   4.953  14.468  0.4390 -0.5415  0.1592
 9918TIP3    H151169   1.601   4.896  14.391 -0.0138  0.2233 -0.4150
 9918TIP3    H251170   1.577   5.039  14.434  0.1358 -0.2172  1.1703
 9919TIP3   OH251171   4.939   2.295   6.160  0.5709 -0.1639 -0.2562
 9919TIP3    H151172   4.915   2.239   6.234 -0.9431 -0.7071 -1.1644
 9919TIP3    H251173   5.005   2.354   6.197 -0.1799 -0.4104  1.5498
 9920TIP3   OH251174   0.487   2.298   6.057 -0.2481  0.2803 -0.6290
 9920TIP3    H151175   0.440   2.381   6.067 -0.3154  0.0339  1.2378
 9920TIP3    H251176   0.436   2.235   6.108  0.2868 -0.7301 -1.3160
 9921TIP3   OH251177   5.655   4.556   3.621  0.6527  0.3702  0.0512
 9921TIP3    H151178   5.691   4.505   3.694  0.8159 -0.7936 -0.8378
 9921TIP3    H251179   5.583   4.503   3.588  1.4402  0.2331 -1.5016
 9922TIP3   OH251180   4.558   2.504   5.352  0.4727  0.3455  0.6458
 9922TIP3    H151181   4.559   2.456   5.435  0.9656 -0.7368  0.0157
 9922TIP3    H251182   4.540   2.437   5.286  0.2690  1.1767 -0.1475
 9923TIP3   OH251183   3.898   5.147  13.869  0.3906 -0.0462  0.4827
 9923TIP3    H151184   3.985   5.179  13.895  0.6487 -0.8814  0.6933
 9923TIP3    H251185   3.877   5.196  13.790  0.9829  0.2888  0.5264
 9924TIP3   OH251186   1.712   6.252  11.156  0.1894  0.1283  0.0358
 9924TIP3    H151187   1.654   6.294  11.220 -0.1424 -0.4360  0.1077
 9924TIP3    H251188   1.687   6.289  11.072 -0.0988  0.0733  0.0995
 9925TIP3   OH251189   4.345   3.925   3.897 -0.4018 -0.1688  0.4269
 9925TIP3    H151190   4.305   4.011   3.913 -2.3236 -0.6296 -1.7888
 9925TIP3    H251191   4.434   3.946   3.868  0.2800  0.9318  3.1280
 9926TIP3   OH251192   0.067   0.110   0.818 -0.2183  0.0121 -0.6891
 9926TIP3    H151193   0.116   0.054   0.757  1.1559 -0.1942  0.5819
 9926TIP3    H251194   0.044   0.052   0.891 -0.3399  0.6755 -0.1978
 9927TIP3   OH251195   4.225   5.342   2.877  0.2383 -0.9320  0.0677
 9927TIP3    H151196   4.317   5.365   2.865  0.5274 -1.7453  0.6788
 9927TIP3    H251197   4.179   5.388   2.806  1.4558 -2.6586 -1.8838
 9928TIP3   OH251198   3.288   5.195   4.244 -0.2171  0.5843  0.7538
 9928TIP3    H151199   3.253   5.264   4.188  0.0090  0.1762  0.1098
 9928TIP3    H251200   3.348   5.146   4.188 -2.3098 -1.7092  0.4564
 9929TIP3   OH251201   2.378   6.222   5.313 -0.3152 -0.2311  0.2592
 9929TIP3    H151202   2.370   6.227   5.217  1.8970  0.3921  0.0895
 9929TIP3    H251203   2.327   6.296   5.345 -0.8177 -0.2615 -0.4371
 9930TIP3   OH251204   0.648   2.211   0.340 -0.3166  0.0450  0.2720
 9930TIP3    H151205   0.576   2.158   0.305 -0.4133  0.3884 -0.0525
 9930TIP3    H251206   0.697   2.151   0.396  0.9230 -1.0295 -1.8986
 9931TIP3   OH251207   1.774   0.788  10.888  0.3888 -0.2676  0.3637
 9931TIP3    H151208   1.759   0.859  10.826  0.4351 -1.4622 -1.0383
 9931TIP3    H251209   1.696   0.788  10.944 -0.9424 -0.9430 -1.4486
 9932TIP3   OH251210   6.505   5.478  15.713  0.3489 -0.0365 -0.5928
 9932TIP3    H151211   6.546   5.552  15.757  0.3955  0.5477 -1.6273
 9932TIP3    H251212   6.415   5.505  15.698 -0.3915 -1.2051  1.4009
 9933TIP3   OH251213   3.854   5.809  13.950 -0.4150 -0.4652  0.1705
 9933TIP3    H151214   3.782   5.762  13.990 -1.1528  0.0385 -0.5504
 9933TIP3    H251215   3.812   5.877  13.897  0.6215  0.9636  1.1400
 9934TIP3   OH251216   5.815   1.834   0.784 -0.1824  0.4628 -0.0457
 9934TIP3    H151217   5.844   1.917   0.821  0.8190 -0.3986  1.1657
 9934TIP3    H251218   5.799   1.778   0.860 -0.8838 -0.4461 -0.8400
 9935TIP3   OH251219   2.977   5.373  15.385 -0.0249 -0.4119 -0.2608
 9935TIP3    H151220   2.987   5.468  15.391  0.3874 -0.4724 -0.0113
 9935TIP3    H251221   3.023   5.349  15.305  1.9665 -0.7037  0.9455
 9936TIP3   OH251222   1.514   5.010  12.236  0.4523  0.2827  0.4033
 9936TIP3    H151223   1.602   5.045  12.248  0.6419  0.4162 -1.2971
 9936TIP3    H251224   1.517   4.922  12.273  1.7259 -0.2776 -0.9840
 9937TIP3   OH251225   3.339   0.298   0.780 -0.0704  0.7458 -0.1952
 9937TIP3    H151226   3.285   0.220   0.794 -1.1334  1.3422 -0.8006
 9937TIP3    H251227   3.337   0.310   0.685  0.8346  0.9954 -0.1829
 9938TIP3   OH251228   4.688   0.704  11.323  0.1090  0.2533  0.1095
 9938TIP3    H151229   4.722   0.690  11.234 -0.9046  2.8991 -0.7317
 9938TIP3    H251230   4.602   0.661  11.322  0.6910 -0.9436  0.2711
 9939TIP3   OH251231   3.039   2.064  15.442  0.3123  0.1559 -0.2421
 9939TIP3    H151232   3.069   2.015  15.518 -2.8325 -0.3771  0.7218
 9939TIP3    H251233   2.987   2.002  15.392 -2.8671  2.1614  0.4600
 9940TIP3   OH251234   2.205   5.308   1.982 -0.1461  0.0176 -0.0237
 9940TIP3    H151235   2.131   5.250   1.964 -1.1902  1.4222 -0.3162
 9940TIP3    H251236   2.196   5.330   2.075 -0.5255  0.7830 -0.2410
 9941TIP3   OH251237   4.823   4.096  12.148 -0.6333  0.1147  0.0647
 9941TIP3    H151238   4.880   4.022  12.125 -0.5709  0.2761 -0.3092
 9941TIP3    H251239   4.832   4.104  12.243 -0.2813 -0.0655  0.0506
 9942TIP3   OH251240   2.099   3.303  14.608  0.1139 -0.1704  0.9128
 9942TIP3    H151241   2.127   3.211  14.602  1.7509  0.3125  0.9262
 9942TIP3    H251242   2.095   3.321  14.702 -2.7871 -0.9758  0.9729
 9943TIP3   OH251243   3.011   3.674  15.417  0.0128 -0.0347 -0.3294
 9943TIP3    H151244   2.981   3.763  15.395 -1.0450 -0.4894 -0.7801
 9943TIP3    H251245   2.930   3.624  15.427  0.6375 -1.3919 -1.9530
 9944TIP3   OH251246   1.815   4.670   0.215 -0.0848  0.3065  0.7298
 9944TIP3    H151247   1.909   4.681   0.201 -0.0629  1.2238  1.5392
 9944TIP3    H251248   1.774   4.723   0.146 -0.0317 -0.8897 -0.2481
 9945TIP3   OH251249   1.387   2.346  12.904 -0.1102  0.5482  0.3344
 9945TIP3    H151250   1.423   2.360  12.817  0.8125 -1.3517  0.3919
 9945TIP3    H251251   1.425   2.416  12.957  0.4962  0.8145 -0.4481
 9946TIP3   OH251252   6.666   2.018  11.417  0.0415 -0.3806  0.7012
 9946TIP3    H151253   6.623   1.933  11.409 -0.6226 -0.0196  0.3999
 9946TIP3    H251254   6.687   2.043  11.327 -0.6919  0.2475  0.6994
 9947TIP3   OH251255   6.003   3.475  15.230  0.1318 -0.1192  0.4690
 9947TIP3    H151256   6.083   3.494  15.180  0.9484 -1.9690  1.0412
 9947TIP3    H251257   5.961   3.560  15.241  0.9358  0.5832 -1.6825
 9948TIP3   OH251258   0.909   1.444   0.423  0.1968 -0.2688 -0.1944
 9948TIP3    H151259   0.926   1.503   0.497  2.0918 -1.5712  0.4497
 9948TIP3    H251260   0.836   1.391   0.451  0.2495 -0.0640  0.3367
 9949TIP3   OH251261   0.355   2.562  12.179 -0.5955 -0.2151 -0.1482
 9949TIP3    H151262   0.413   2.636  12.195 -1.3664  0.0774  1.3275
 9949TIP3    H251263   0.374   2.536  12.088  0.8013  0.7745 -0.1484
 9950TIP3   OH251264   1.460   5.246   6.457  0.9730  0.4455 -0.4416
 9950TIP3    H151265   1.513   5.262   6.379  2.7220  0.1803  0.6664
 9950TIP3    H251266   1.462   5.329   6.504 -0.4141  0.7275 -0.8668
 9951TIP3   OH251267   2.408   0.240  11.624  0.8123 -0.1965 -0.4974
 9951TIP3    H151268   2.491   0.210  11.663 -0.1520  0.5567  2.2346
 9951TIP3    H251269   2.341   0.189  11.669 -0.5381  2.8233  1.0141
 9952TIP3   OH251270   3.917   4.496   1.428  0.2917  0.1281 -0.3510
 9952TIP3    H151271   3.903   4.472   1.337 -1.7966  0.8292 -0.2307
 9952TIP3    H251272   4.011   4.511   1.435  0.1240  2.6459 -3.0080
 9953TIP3   OH251273   2.266   0.093  13.761 -0.1115  0.3027 -0.1026
 9953TIP3    H151274   2.299   0.158  13.823  0.9674  0.8012 -1.1721
 9953TIP3    H251275   2.334   0.087  13.694 -1.2280 -0.2710 -1.2154
 9954TIP3   OH251276   3.500   1.779   3.075  0.4515 -0.0001  0.1201
 9954TIP3    H151277   3.579   1.830   3.090 -0.7633  2.6172 -1.9138
 9954TIP3    H251278   3.429   1.839   3.097 -1.0124 -2.0315  1.1081
 9955TIP3   OH251279   1.465   0.447  12.821  0.1261 -0.2504 -0.4501
 9955TIP3    H151280   1.559   0.460  12.806  0.1429  1.6343  1.0717
 9955TIP3    H251281   1.441   0.514  12.885 -2.3868 -0.3324 -1.2350
 9956TIP3   OH251282   1.402   2.937   4.589  0.0076 -0.4094  0.3472
 9956TIP3    H151283   1.336   2.950   4.657  0.2378  2.0074  0.1497
 9956TIP3    H251284   1.353   2.902   4.515 -0.9010  0.4968  0.5032
 9957TIP3   OH251285   4.265   1.901   4.282  0.3926  0.0927 -0.2180
 9957TIP3    H151286   4.278   1.822   4.334  1.4607  0.1725 -0.3469
 9957TIP3    H251287   4.291   1.972   4.339  2.9550  0.0833 -1.2926
 9958TIP3   OH251288   3.100   2.314  10.567 -0.0159 -0.5599 -0.1303
 9958TIP3    H151289   3.121   2.407  10.581  2.4203 -1.1993  0.5804
 9958TIP3    H251290   3.053   2.313  10.484 -2.3927  1.6159  1.1083
 9959TIP3   OH251291   1.554   5.571   3.359  0.2854 -0.3525 -0.0430
 9959TIP3    H151292   1.612   5.571   3.435 -0.1160  1.8027  0.2766
 9959TIP3    H251293   1.476   5.524   3.388  1.0591 -1.5635  0.1307
 9960TIP3   OH251294   4.703   3.061  16.355  0.5615 -0.6209  0.1002
 9960TIP3    H151295   4.707   3.153  16.378 -0.1771 -0.5512 -0.0429
 9960TIP3    H251296   4.638   3.056  16.285  1.0578 -1.1602 -0.3293
 9961TIP3   OH251297   0.695   0.694   3.773  0.6438 -0.1716 -0.5203
 9961TIP3    H151298   0.691   0.606   3.810  2.9658 -0.6961 -1.4302
 9961TIP3    H251299   0.788   0.710   3.758  0.1830  2.0883 -1.2283
 9962TIP3   OH251300   4.552   0.541   5.490  0.0320  0.3187  0.8740
 9962TIP3    H151301   4.618   0.475   5.468 -0.6487 -0.5765  1.5016
 9962TIP3    H251302   4.603   0.614   5.526  0.6951 -0.3508  1.3166
 9963TIP3   OH251303   2.395   3.339  13.582 -0.4134 -0.2586  0.2022
 9963TIP3    H151304   2.320   3.287  13.554  0.3753 -1.9657  1.1796
 9963TIP3    H251305   2.430   3.293  13.658  0.2215  1.8173  1.2159
 9964TIP3   OH251306   6.184   5.605   5.195 -0.6307  0.8836 -0.3246
 9964TIP3    H151307   6.099   5.592   5.151  0.5755 -0.4860 -2.3419
 9964TIP3    H251308   6.244   5.548   5.148  1.0210  0.3142  2.3630
 9965TIP3   OH251309   5.668   6.217   6.448  0.6585  0.1952  0.2465
 9965TIP3    H151310   5.702   6.172   6.371 -0.7921 -0.7253  0.1303
 9965TIP3    H251311   5.592   6.266   6.417  1.2695  1.4399  0.6979
 9966TIP3   OH251312   2.814   1.126  13.455  0.0547  0.0593 -0.1849
 9966TIP3    H151313   2.889   1.103  13.399  2.6934 -1.3243  3.6736
 9966TIP3    H251314   2.756   1.050  13.450  0.7806 -0.4960 -0.2273
 9967TIP3   OH251315   0.599   2.496   3.150 -0.5560  0.3134 -0.5720
 9967TIP3    H151316   0.647   2.442   3.088  0.2446 -0.7754  0.9624
 9967TIP3    H251317   0.553   2.560   3.096  0.1719 -0.5728 -2.2664
 9968TIP3   OH251318   0.817   6.285  14.743  0.1788  0.3492  0.1986
 9968TIP3    H151319   0.762   6.222  14.790  2.2852 -0.7759  1.2564
 9968TIP3    H251320   0.868   6.328  14.812  1.6332  0.3585 -0.8529
 9969TIP3   OH251321   4.074   5.040   5.675 -0.1389 -0.5739 -0.2669
 9969TIP3    H151322   4.015   5.107   5.710  0.0822  0.7489 -2.3151
 9969TIP3    H251323   4.086   4.978   5.747 -1.7760  0.6412  1.0893
 9970TIP3   OH251324   3.466   4.402   5.397  0.6443 -0.1209  0.1500
 9970TIP3    H151325   3.516   4.470   5.351  1.2394  0.2797  1.3931
 9970TIP3    H251326   3.532   4.353   5.447  0.2070 -1.5532 -0.6413
 9971TIP3   OH251327   5.708   6.138   6.719 -0.0888 -0.5270  0.2112
 9971TIP3    H151328   5.789   6.188   6.725 -0.9180  0.5925  2.7445
 9971TIP3    H251329   5.671   6.162   6.634  1.6122 -0.0988 -0.4242
 9972TIP3   OH251330   4.380   5.279   0.155  0.2761 -0.1963 -0.3507
 9972TIP3    H151331   4.291   5.308   0.137 -0.0112 -1.4311 -0.9872
 9972TIP3    H251332   4.377   5.185   0.142  1.1812 -0.5346  1.6876
 9973TIP3   OH251333   4.404   5.098  16.903 -0.1331 -0.2932 -0.1639
 9973TIP3    H151334   4.407   5.153  16.981 -0.2597  0.3509 -0.6056
 9973TIP3    H251335   4.480   5.124  16.852 -1.0296  0.5713 -1.0916
 9974TIP3   OH251336   0.423   4.672  16.761 -0.0126 -0.6876  0.3534
 9974TIP3    H151337   0.428   4.597  16.820  1.3167 -1.1986 -0.3795
 9974TIP3    H251338   0.404   4.633  16.675 -0.7012 -0.0629  0.2235
 9975TIP3   OH251339   0.825   3.471  14.624  0.1114  0.1901  0.2410
 9975TIP3    H151340   0.750   3.451  14.680 -1.4364  0.9784 -1.4748
 9975TIP3    H251341   0.809   3.561  14.594  0.0458 -0.7444 -2.6830
 9976TIP3   OH251342   2.476   6.365  13.513 -0.3425  0.4945  0.3071
 9976TIP3    H151343   2.451   6.276  13.536 -0.0240  0.2721 -0.1975
 9976TIP3    H251344   2.408   6.420  13.551 -0.0342  0.1089  1.4258
 9977TIP3   OH251345   5.945   2.234   4.248 -0.0713  0.3804  0.1409
 9977TIP3    H151346   5.879   2.189   4.301  0.6888 -0.3187  0.5118
 9977TIP3    H251347   6.026   2.226   4.299  0.4502  0.5967 -0.6499
 9978TIP3   OH251348   0.225   3.142   3.280 -0.4673 -0.1199  0.0004
 9978TIP3    H151349   0.133   3.123   3.297 -0.8140 -0.5354 -2.1891
 9978TIP3    H251350   0.271   3.060   3.300 -0.7011 -0.2329  0.0698
 9979TIP3   OH251351   6.467   4.521   2.513  0.2785  0.0015 -0.2222
 9979TIP3    H151352   6.481   4.461   2.587 -1.6231 -1.6800 -1.1561
 9979TIP3    H251353   6.487   4.608   2.548  1.0557 -0.9452  1.7797
 9980TIP3   OH251354   0.878   3.603  13.747  0.2558  0.1222 -0.1620
 9980TIP3    H151355   0.888   3.616  13.653 -0.7825 -1.7920 -0.5583
 9980TIP3    H251356   0.918   3.517  13.764  0.1591  0.3140  1.0880
 9981TIP3   OH251357   4.392   6.000  15.564  0.5767 -0.3971 -0.0155
 9981TIP3    H151358   4.426   5.965  15.647 -0.0417  0.4837  0.6217
 9981TIP3    H251359   4.357   5.923  15.518  0.4141 -0.8132  0.7890
 9982TIP3   OH251360   5.622   2.153  14.823 -0.0676  0.3397  0.2233
 9982TIP3    H151361   5.698   2.201  14.790 -0.7156  1.1909 -0.0540
 9982TIP3    H251362   5.569   2.220  14.867  0.5264 -0.6705  2.5535
 9983TIP3   OH251363   0.489   0.255   5.495 -0.2946 -0.1536 -0.3053
 9983TIP3    H151364   0.503   0.312   5.420 -0.1130 -0.5290 -0.5563
 9983TIP3    H251365   0.473   0.315   5.568 -0.3343  0.2117 -0.6151
 9984TIP3   OH251366   2.458   3.086   1.187 -0.2456  0.0801  0.3219
 9984TIP3    H151367   2.490   3.168   1.148 -1.3259  0.7024  0.7209
 9984TIP3    H251368   2.496   3.086   1.275 -1.6914  1.0511  0.9633
 9985TIP3   OH251369   2.761   1.903   1.484  0.0668  0.1798 -1.1626
 9985TIP3    H151370   2.689   1.918   1.545  0.6498 -0.6685 -0.2514
 9985TIP3    H251371   2.743   1.817   1.445  1.4853 -0.8776  0.3974
 9986TIP3   OH251372   5.727   6.628   5.275  0.4230 -0.0829  0.4012
 9986TIP3    H151373   5.645   6.663   5.310  1.9018  3.7673  0.1971
 9986TIP3    H251374   5.704   6.601   5.185 -0.6989  0.6167  0.4676
 9987TIP3   OH251375   0.804   5.240  12.707  0.0380 -0.5002  0.4051
 9987TIP3    H151376   0.887   5.221  12.662  0.8506  1.5401  1.0004
 9987TIP3    H251377   0.827   5.307  12.771 -2.2918  0.7674 -0.0575
 9988TIP3   OH251378   3.470   5.859  15.759 -0.1302  0.0174  0.5057
 9988TIP3    H151379   3.548   5.914  15.749 -0.4896  0.4777  0.2321
 9988TIP3    H251380   3.499   5.786  15.814  0.4652  0.2463  0.4969
 9989TIP3   OH251381   4.209   3.461  11.143 -0.1321 -0.3054 -0.4048
 9989TIP3    H151382   4.251   3.377  11.128 -0.5290 -0.2453 -1.8350
 9989TIP3    H251383   4.257   3.523  11.088  0.6904  0.5794  1.2478
 9990TIP3   OH251384   2.396   1.410   4.239  0.4007 -0.0827 -0.1332
 9990TIP3    H151385   2.429   1.462   4.312 -1.2733  0.2289  0.4333
 9990TIP3    H251386   2.367   1.474   4.175 -0.4872 -0.3171  0.0250
 9991TIP3   OH251387   0.479   4.024   1.750  0.0461 -0.1058  0.9251
 9991TIP3    H151388   0.572   4.000   1.743 -0.4576 -1.6399 -0.9662
 9991TIP3    H251389   0.459   4.014   1.843  1.4900 -0.9210  1.1752
 9992TIP3   OH251390   5.123   2.977   0.624  0.4646  0.4816  0.6549
 9992TIP3    H151391   5.215   2.953   0.635  0.3101  0.1812  1.3581
 9992TIP3    H251392   5.077   2.893   0.623  0.4068  0.5101 -1.9060
 9993TIP3   OH251393   3.895   0.263   3.294 -0.1911  0.2705  0.0507
 9993TIP3    H151394   3.856   0.303   3.217  0.3491  1.4850  0.4006
 9993TIP3    H251395   3.823   0.216   3.336 -0.9251  1.1954 -0.1522
 9994TIP3   OH251396   4.031   3.849  11.154 -0.4649 -0.2476 -0.2026
 9994TIP3    H151397   3.943   3.862  11.119 -0.3754 -0.0340 -0.3501
 9994TIP3    H251398   4.042   3.919  11.219 -2.1331 -2.9717  3.2236
 9995TIP3   OH251399   3.602   5.166   5.229 -0.4510 -0.3842  0.1261
 9995TIP3    H151400   3.621   5.245   5.280 -1.2815  1.3353 -2.1292
 9995TIP3    H251401   3.518   5.135   5.263 -0.0051 -0.4394  1.1887
 9996TIP3   OH251402   1.131   5.244  14.590 -0.1023 -0.7969 -0.5108
 9996TIP3    H151403   1.040   5.235  14.563  0.4374  0.5384 -2.9100
 9996TIP3    H251404   1.132   5.323  14.645 -0.5266 -1.3138  0.2493
 9997TIP3   OH251405   1.019   5.089  14.032 -0.3190  0.0291 -0.7582
 9997TIP3    H151406   1.077   5.128  14.097  0.2815 -1.7585 -0.1917
 9997TIP3    H251407   1.017   5.153  13.960 -0.4387  1.6954  0.6966
 9998TIP3   OH251408   5.901   4.426  14.604  0.3747  0.1506 -0.6735
 9998TIP3    H151409   5.826   4.474  14.569  1.3588  1.9258 -0.4293
 9998TIP3    H251410   5.924   4.364  14.536 -0.5674  0.4494 -1.2626
 9999TIP3   OH251411   6.126   0.616  15.995  1.0472  0.7203 -0.3248
 9999TIP3    H151412   6.031   0.621  15.982  1.2647  2.1614 -1.3852
 9999TIP3    H251413   6.139   0.534  16.043 -0.6117 -0.1098 -1.2694
10000TIP3   OH251414   5.527   0.606   2.625 -0.4766  0.2355 -0.6841
10000TIP3    H151415   5.533   0.610   2.720  0.9125 -0.8981 -0.7030
10000TIP3    H251416   5.477   0.526   2.608 -1.4034  0.8485 -0.9069
10001TIP3   OH251417   4.088   5.753  11.334  0.8247  0.0059 -0.6338
10001TIP3    H151418   4.058   5.791  11.252 -0.3932 -1.3318 -0.8262
10001TIP3    H251419   4.174   5.794  11.350  0.4130  1.3546 -1.8011
10002TIP3   OH251420   2.859   0.757   5.089 -0.5661  0.4887 -0.7750
10002TIP3    H151421   2.892   0.678   5.047  1.5418  1.7600 -1.5909
10002TIP3    H251422   2.865   0.739   5.183  3.1659  0.8838 -0.8510
10003TIP3   OH251423   0.677   3.839   3.082  0.0259  0.1096 -0.4543
10003TIP3    H151424   0.769   3.815   3.089  0.3654  1.6769  0.9659
10003TIP3    H251425   0.672   3.926   3.122 -1.7208  0.9235 -2.3119
10004TIP3   OH251426   5.190   3.685  14.615  0.1140 -0.0014 -0.1235
10004TIP3    H151427   5.159   3.612  14.560 -3.2300  1.2443 -0.0362
10004TIP3    H251428   5.194   3.648  14.703 -1.6933 -0.0729 -0.0562
10005TIP3   OH251429   5.509   4.136  14.708  0.3133  0.1211 -0.3495
10005TIP3    H151430   5.502   4.231  14.711  0.2911  0.1021  0.2147
10005TIP3    H251431   5.603   4.119  14.697  0.1581  0.2393 -2.0892
10006TIP3   OH251432   2.656   0.871  12.270  0.4846 -0.4333  0.3616
10006TIP3    H151433   2.724   0.915  12.320 -0.2440  0.3384  0.6852
10006TIP3    H251434   2.578   0.874  12.326 -0.1602 -0.1669 -0.5218
10007TIP3   OH251435   6.364   5.554  11.676 -0.0675 -0.3723  0.0107
10007TIP3    H151436   6.414   5.636  11.671 -0.4762 -0.2195 -1.7518
10007TIP3    H251437   6.307   5.566  11.752  1.8362 -0.1473  1.4507
10008TIP3   OH251438   3.570   4.448  13.745 -0.4719  0.0579 -0.0393
10008TIP3    H151439   3.600   4.441  13.835 -0.7248  2.7790  0.3166
10008TIP3    H251440   3.553   4.542  13.733 -1.5313 -0.4135 -2.5577
10009TIP3   OH251441   6.180   5.818  16.669  0.7504 -0.9862  0.2952
10009TIP3    H151442   6.102   5.835  16.617  1.4904  2.3388  0.1481
10009TIP3    H251443   6.147   5.782  16.752 -0.5833 -3.8788 -1.4139
10010TIP3   OH251444   4.782   3.534  13.473 -0.5157  0.9403 -0.7479
10010TIP3    H151445   4.731   3.454  13.457 -0.5629  1.0307 -1.0669
10010TIP3    H251446   4.866   3.503  13.507 -0.9850  0.8142  0.3097
10011TIP3   OH251447   0.583   5.217   0.487 -0.4708  0.3118 -0.0223
10011TIP3    H151448   0.640   5.286   0.522  0.0618 -0.4192  0.5781
10011TIP3    H251449   0.494   5.250   0.499 -0.1949  1.1388 -0.2612
10012TIP3   OH251450   3.238   6.295  13.336  0.0799 -0.2777  0.3743
10012TIP3    H151451   3.149   6.259  13.335 -1.5175  3.3897 -0.0638
10012TIP3    H251452   3.282   6.252  13.263 -2.1742 -0.2957 -1.0386
10013TIP3   OH251453   4.514   1.976   4.162  0.0916  0.0798 -0.0672
10013TIP3    H151454   4.421   1.961   4.181  0.0005  1.3716  0.5737
10013TIP3    H251455   4.519   2.068   4.137  0.9301 -0.4437 -1.8858
10014TIP3   OH251456   1.906   0.188  14.564  0.2832 -0.3534 -0.4748
10014TIP3    H151457   1.961   0.142  14.626  0.0924  0.8308  0.5994
10014TIP3    H251458   1.881   0.122  14.499  4.8807 -0.3906 -2.3418
10015TIP3   OH251459   5.909   6.406  14.673 -0.3515 -0.4475 -0.1182
10015TIP3    H151460   5.893   6.429  14.765 -0.3903  2.9090 -0.8808
10015TIP3    H251461   5.824   6.417  14.630  0.3892  1.4791 -1.1677
10016TIP3   OH251462   0.514   3.730   0.233  0.2437  0.1733 -0.0220
10016TIP3    H151463   0.428   3.694   0.255  0.6201 -0.4477  0.4613
10016TIP3    H251464   0.534   3.697   0.146  0.1784 -0.0345  0.0425
10017TIP3   OH251465   5.344   2.207  15.774 -0.4361  0.1701  0.1388
10017TIP3    H151466   5.395   2.278  15.737 -2.0200  1.6616  0.7531
10017TIP3    H251467   5.402   2.131  15.770  1.0559  1.3441 -1.0844
10018TIP3   OH251468   0.120   2.757   5.608  0.0612  0.3898  0.1982
10018TIP3    H151469   0.174   2.797   5.677 -1.8882  0.4386  1.7292
10018TIP3    H251470   0.042   2.725   5.653 -0.6356 -0.8409 -1.7806
10019TIP3   OH251471   1.066   1.181   1.122  0.2943 -0.6173 -0.1262
10019TIP3    H151472   1.032   1.141   1.202 -2.9829  2.8623  0.3512
10019TIP3    H251473   1.155   1.207   1.144  0.0576 -1.3632  1.7838
10020TIP3   OH251474   5.136   2.185   5.728  0.0761 -0.0567 -0.0866
10020TIP3    H151475   5.054   2.196   5.775  0.7917  2.4715  0.6522
10020TIP3    H251476   5.197   2.151   5.794 -0.1126 -0.9653 -0.3772
10021TIP3   OH251477   3.760   0.040   3.151 -0.3499 -0.3132  0.0029
10021TIP3    H151478   3.808  -0.004   3.221 -0.4642 -1.2547 -0.4883
10021TIP3    H251479   3.770  -0.019   3.076 -1.5736 -0.1127 -0.3232
10022TIP3   OH251480   4.008   4.447   2.356 -0.9509 -0.6626 -0.7951
10022TIP3    H151481   4.012   4.355   2.331  0.8919 -0.3627 -1.6679
10022TIP3    H251482   3.975   4.446   2.446  2.8942 -2.4895  0.7071
10023TIP3   OH251483   6.705   5.627   1.296 -0.3197 -0.3992  0.8560
10023TIP3    H151484   6.794   5.628   1.333 -0.6515 -0.8983  1.6822
10023TIP3    H251485   6.651   5.590   1.366 -1.1502 -0.2536  0.2874
10024TIP3   OH251486   2.548   1.868  12.299  0.4634  0.4447  0.1523
10024TIP3    H151487   2.453   1.873  12.303  0.5341  1.3301  0.7950
10024TIP3    H251488   2.572   1.817  12.377  0.5571  0.8162  0.3676
10025TIP3   OH251489   6.503   5.223   5.034  0.4240 -0.4836 -0.1363
10025TIP3    H151490   6.425   5.176   5.004 -1.2644  0.5676  2.3715
10025TIP3    H251491   6.533   5.271   4.958 -2.3775  0.3586 -0.7594
10026TIP3   OH251492   3.078   1.895   3.795 -0.0907 -0.0317 -0.1364
10026TIP3    H151493   3.109   1.925   3.710  0.5522  0.2499  0.1922
10026TIP3    H251494   3.028   1.969   3.830 -0.3403 -0.1411 -0.2598
10027TIP3   OH251495   6.425   6.696   0.857 -0.0357  0.4628 -0.8783
10027TIP3    H151496   6.515   6.665   0.847  0.1616  0.7432  0.0384
10027TIP3    H251497   6.391   6.647   0.932 -0.8579 -0.1029 -1.5994
10028TIP3   OH251498   4.311   4.348   3.375 -0.1541  0.2742 -0.3823
10028TIP3    H151499   4.309   4.253   3.385  2.6882  0.2127  0.0976
10028TIP3    H251500   4.328   4.380   3.464  1.9450  1.0317 -1.0299
10029TIP3   OH251501   3.075   4.921  11.955 -0.8384 -0.3364 -0.6350
10029TIP3    H151502   3.043   4.841  11.914  0.2982 -1.3289  0.3520
10029TIP3    H251503   3.003   4.984  11.946 -2.3414 -1.9439 -0.0502
10030TIP3   OH251504   5.508   4.789   4.261 -0.0472 -0.1522  0.0581
10030TIP3    H151505   5.551   4.819   4.341 -0.2915 -1.3139  0.6342
10030TIP3    H251506   5.575   4.740   4.215 -0.3187 -0.6961  0.2404
10031TIP3   OH251507   1.570   6.078  15.432 -0.1889  0.4358 -0.0293
10031TIP3    H151508   1.642   6.054  15.490  2.0115  4.3951 -0.9027
10031TIP3    H251509   1.517   6.139  15.483 -0.4069  0.9533 -0.8564
10032TIP3   OH251510   0.843   4.727   5.258 -0.3806 -0.7550 -0.3911
10032TIP3    H151511   0.861   4.637   5.285 -0.2462 -0.5258  0.2900
10032TIP3    H251512   0.810   4.769   5.337  0.2795 -0.0060 -0.5076
10033TIP3   OH251513   3.009   3.420   2.897  0.9698  0.7156  0.2764
10033TIP3    H151514   2.958   3.421   2.978  1.7362 -2.8446  0.8804
10033TIP3    H251515   3.071   3.493   2.907 -0.9627  2.2513  1.4900
10034TIP3   OH251516   0.046   6.629   0.248  0.0773 -0.7115 -0.0003
10034TIP3    H151517   0.111   6.573   0.290  0.8507 -0.0576 -0.3058
10034TIP3    H251518  -0.009   6.569   0.197  0.5430 -1.2507  0.1306
10035TIP3   OH251519   3.424   5.530   1.966  0.1138  0.1585 -0.1070
10035TIP3    H151520   3.432   5.621   1.996 -0.1009  0.3834 -0.7337
10035TIP3    H251521   3.330   5.516   1.957  0.1303 -0.2213  0.2680
10036TIP3   OH251522   3.567   5.918  13.386  0.9154 -0.3420  0.2767
10036TIP3    H151523   3.620   5.975  13.331  0.9270 -2.5612 -2.1352
10036TIP3    H251524   3.476   5.944  13.368  0.9292 -0.9196 -0.6726
10037TIP3   OH251525   1.101   5.228  12.138  0.2672 -0.5075 -0.9857
10037TIP3    H151526   1.051   5.192  12.211 -1.4585 -0.3097 -2.0435
10037TIP3    H251527   1.172   5.165  12.125  0.5659 -0.5653  0.8090
10038TIP3   OH251528   0.013   3.458   3.755 -0.0846 -0.3733  0.2609
10038TIP3    H151529  -0.055   3.491   3.696  0.9577  0.0608 -0.7331
10038TIP3    H251530   0.037   3.373   3.718  1.3267  0.3768 -0.5812
10039TIP3   OH251531   0.948   4.535   2.133  0.2627  0.2238  0.1377
10039TIP3    H151532   0.872   4.541   2.190 -0.2912 -0.5767 -0.4961
10039TIP3    H251533   1.012   4.594   2.172 -0.4993  0.5219  0.9617
10040TIP3   OH251534   6.166   1.569   2.661  0.2652  0.4342  0.4717
10040TIP3    H151535   6.207   1.506   2.603 -0.1380 -0.3345  1.0080
10040TIP3    H251536   6.153   1.521   2.743 -0.4805  1.0616  0.7294
10041TIP3   OH251537   2.531   5.003   0.902 -0.2215 -0.0335 -0.0340
10041TIP3    H151538   2.586   5.053   0.841 -0.8254  0.4323 -0.2023
10041TIP3    H251539   2.551   4.911   0.882  0.6667  0.1306  0.0714
10042TIP3   OH251540   2.445   1.965  13.196 -0.2293  0.1669 -0.6877
10042TIP3    H151541   2.407   2.020  13.265 -1.6723 -0.4234 -1.0080
10042TIP3    H251542   2.481   2.028  13.134 -1.9054  0.7715 -1.0698
10043TIP3   OH251543   6.216   0.482   4.336  0.5193 -0.4857  0.0876
10043TIP3    H151544   6.211   0.411   4.271  1.2840 -0.7877  0.3539
10043TIP3    H251545   6.143   0.540   4.314  0.4584 -0.8637 -0.7146
10044TIP3   OH251546   2.964   5.108   3.079 -0.3205  0.3206 -0.0051
10044TIP3    H151547   2.964   5.068   2.992 -1.5128 -0.8739  0.5288
10044TIP3    H251548   3.040   5.070   3.123 -0.5239 -0.1423 -0.0486
10045TIP3   OH251549   1.520   5.230  14.962  0.3572 -0.2035 -0.3735
10045TIP3    H151550   1.443   5.214  14.908 -0.6645  0.0145  0.9833
10045TIP3    H251551   1.557   5.311  14.928  1.2089 -1.3944 -2.3776
10046TIP3   OH251552   5.420   5.399  12.282  0.6392  0.2327 -0.3692
10046TIP3    H151553   5.388   5.479  12.241  2.7316  0.1180 -2.2906
10046TIP3    H251554   5.491   5.369  12.225 -0.4171 -3.2490  0.0504
10047TIP3   OH251555   2.690   3.175  16.930  0.4564  0.2141  0.3754
10047TIP3    H151556   2.744   3.096  16.940  1.5457  0.5393 -2.4651
10047TIP3    H251557   2.751   3.247  16.944 -0.3016  0.5733  1.8836
10048TIP3   OH251558   6.450   4.939   2.298 -0.5747  0.5656  0.5330
10048TIP3    H151559   6.414   4.852   2.278 -3.4622  2.0688 -1.0258
10048TIP3    H251560   6.545   4.927   2.293 -0.9414 -2.2589 -0.7382
10049TIP3   OH251561   1.464   3.543  16.678 -0.3933 -0.2582  0.5159
10049TIP3    H151562   1.507   3.458  16.685 -0.7644 -0.3726  1.4783
10049TIP3    H251563   1.536   3.606  16.679  0.1090 -0.6348 -3.0012
10050TIP3   OH251564   3.999   4.830   3.454  0.1886 -0.2389 -0.4974
10050TIP3    H151565   4.091   4.843   3.477 -0.2974  0.8174  0.9207
10050TIP3    H251566   3.962   4.780   3.527 -0.0006 -2.1255 -1.8404
10051TIP3   OH251567   1.280   1.538   0.348 -0.5854  0.1597 -0.5096
10051TIP3    H151568   1.263   1.566   0.258 -1.4630  0.6896 -0.1874
10051TIP3    H251569   1.220   1.590   0.401 -2.1965 -2.2808  0.1268
10052TIP3   OH251570   2.695   5.499  14.569 -0.4313 -0.0580 -0.9401
10052TIP3    H151571   2.735   5.470  14.487 -0.7060 -1.9228 -0.4417
10052TIP3    H251572   2.638   5.426  14.595 -1.3049  1.0377  0.2583
10053TIP3   OH251573   1.264   6.586   0.571 -0.7057  0.8181  0.5940
10053TIP3    H151574   1.268   6.659   0.510 -0.4009 -0.5947 -1.1324
10053TIP3    H251575   1.300   6.512   0.522 -0.1869 -0.2942  2.5984
10054TIP3   OH251576   6.019   6.694   6.671  0.2086 -0.3512  0.2224
10054TIP3    H151577   6.070   6.730   6.598 -0.1116 -0.4735 -0.0617
10054TIP3    H251578   6.074   6.708   6.748  0.8100 -0.7699 -0.1280
10055TIP3   OH251579   4.189   6.641   1.474  0.2931 -0.3948  0.7927
10055TIP3    H151580   4.224   6.644   1.385  0.2051  0.6825  0.7861
10055TIP3    H251581   4.205   6.551   1.503  1.3810 -0.4276  0.1158
10056TIP3   OH251582   2.167   0.891  16.178  0.1172 -0.5039 -0.2511
10056TIP3    H151583   2.081   0.903  16.218 -0.0719 -0.7880 -0.5722
10056TIP3    H251584   2.228   0.933  16.239 -0.4755  1.7199 -1.1657
10057TIP3   OH251585   1.450   1.515  12.805  0.0704 -1.0429  0.6225
10057TIP3    H151586   1.499   1.438  12.833 -0.4582 -1.1986  1.1323
10057TIP3    H251587   1.366   1.507  12.849  0.0862 -0.0713  0.8445
10058TIP3   OH251588   5.313   6.584  15.877 -0.1919 -0.1060 -0.4235
10058TIP3    H151589   5.290   6.557  15.787  1.9142 -0.5327 -0.8544
10058TIP3    H251590   5.321   6.501  15.924 -1.1385  0.1143  0.1383
10059TIP3   OH251591   3.916   1.223   0.097  0.5773 -0.1421  0.0288
10059TIP3    H151592   3.915   1.237   0.191 -0.3393  2.7770 -0.3554
10059TIP3    H251593   4.007   1.234   0.071  1.0881 -2.5238  0.7643
10060TIP3   OH251594   5.440   5.396   0.593 -0.1682 -0.2500  0.2110
10060TIP3    H151595   5.528   5.416   0.624 -0.5084  0.5216  0.6877
10060TIP3    H251596   5.408   5.330   0.655  0.1747 -0.7487 -0.1350
10061TIP3   OH251597   3.592   1.291  15.536 -0.2712 -0.5824 -0.0982
10061TIP3    H151598   3.659   1.353  15.564 -1.7756  0.9933  0.0869
10061TIP3    H251599   3.630   1.205  15.555  1.6416  0.2664  0.0945
10062TIP3   OH251600   1.105   5.583  16.870 -0.3551 -0.0392  0.0513
10062TIP3    H151601   1.140   5.615  16.953 -0.1607 -0.7447  0.2429
10062TIP3    H251602   1.014   5.612  16.870 -0.1862  0.4921  0.2359
10063TIP3   OH251603   2.983   6.222   4.134 -0.5038  0.2843 -0.1737
10063TIP3    H151604   2.925   6.233   4.059  0.0081  0.3823 -0.5572
10063TIP3    H251605   3.058   6.279   4.115 -0.0717 -0.1829  0.1014
10064TIP3   OH251606   4.040   1.134  15.143  0.1030 -0.5336 -0.6901
10064TIP3    H151607   4.111   1.128  15.079 -0.4675  1.8276 -1.5725
10064TIP3    H251608   4.018   1.227  15.147 -0.5681 -0.7571  2.2084
10065TIP3   OH251609   5.006   4.014   1.309 -0.3035 -0.4367  1.1068
10065TIP3    H151610   4.951   3.938   1.289 -1.3835  1.0565 -1.9995
10065TIP3    H251611   4.945   4.087   1.313  1.1187  0.7989  0.5412
10066TIP3   OH251612   3.975   2.023   4.084  0.3452 -0.3859 -0.4495
10066TIP3    H151613   3.917   1.969   4.031 -0.4875 -0.9046  0.9580
10066TIP3    H251614   4.055   1.973   4.092 -1.3662 -2.7757  3.1500
10067TIP3   OH251615   4.183   2.193   0.094 -0.5702  0.8189 -0.1003
10067TIP3    H151616   4.231   2.125   0.142 -0.5092  0.4093 -0.7211
10067TIP3    H251617   4.094   2.186   0.126 -1.3941 -2.0725 -2.7596
10068TIP3   OH251618   0.495   0.575   5.128 -0.0687  0.1255  0.5739
10068TIP3    H151619   0.556   0.535   5.190  0.6683 -3.1644 -2.1497
10068TIP3    H251620   0.450   0.502   5.087 -1.1926  2.2235 -2.1165
10069TIP3   OH251621   3.812   4.622  12.971 -0.0985 -0.0713 -0.2493
10069TIP3    H151622   3.809   4.704  13.021 -0.1652 -0.2880  0.1034
10069TIP3    H251623   3.867   4.642  12.895 -0.2137  0.3366 -0.2276
10070TIP3   OH251624   3.194   6.133  12.170  0.3326 -0.4743  0.2181
10070TIP3    H151625   3.254   6.183  12.114 -0.5168  1.1060  0.6919
10070TIP3    H251626   3.173   6.055  12.118 -0.1382  0.7821 -1.5239
10071TIP3   OH251627   1.583   2.046   0.596  0.3596  0.3332  0.4116
10071TIP3    H151628   1.633   1.966   0.581  0.6305  0.3359  1.2391
10071TIP3    H251629   1.543   2.033   0.682 -0.1260  0.8160  0.2635
10072TIP3   OH251630   0.500   4.531   3.619  0.4881 -0.2647  0.2072
10072TIP3    H151631   0.557   4.472   3.570  0.4701 -0.0468 -0.0821
10072TIP3    H251632   0.417   4.485   3.627 -0.4458  0.8312 -2.4608
10073TIP3   OH251633   2.324   0.618  13.565 -1.2021 -0.2032 -0.1570
10073TIP3    H151634   2.410   0.598  13.602 -1.5013  0.9695  1.2221
10073TIP3    H251635   2.339   0.623  13.470  0.5269  1.2944  0.1690
10074TIP3   OH251636   5.062   1.679   5.095  0.3915  0.2088  0.0490
10074TIP3    H151637   5.119   1.751   5.070  0.3736 -0.6184 -2.5410
10074TIP3    H251638   4.974   1.710   5.077  0.2217  0.3588  1.1089
10075TIP3   OH251639   2.835   1.079   6.662 -0.0843  0.1085 -0.0402
10075TIP3    H151640   2.750   1.122   6.667  0.1765  0.6949 -0.6292
10075TIP3    H251641   2.823   0.997   6.711  0.3575  2.3775  4.0939
10076TIP3   OH251642   5.782   0.290   2.649 -0.1844  0.3665 -0.3119
10076TIP3    H151643   5.842   0.218   2.666 -0.9781 -0.1982  0.0898
10076TIP3    H251644   5.839   0.367   2.642  0.5385 -0.0689  0.6309
10077TIP3   OH251645   4.220   3.452   4.296 -0.2014  0.0225  0.5547
10077TIP3    H151646   4.261   3.524   4.343 -1.0363 -0.1311  1.5501
10077TIP3    H251647   4.268   3.374   4.325 -0.5886 -0.0493  1.0054
10078TIP3   OH251648   2.308   2.155  15.745  0.1694 -0.3621  0.1239
10078TIP3    H151649   2.343   2.073  15.779 -0.3010 -1.1538 -1.2657
10078TIP3    H251650   2.316   2.217  15.817  1.8741 -1.2578  0.7183
10079TIP3   OH251651   4.010   3.397  12.611  0.1618 -0.6030  0.2243
10079TIP3    H151652   4.034   3.469  12.552 -0.7200 -1.3217 -1.0397
10079TIP3    H251653   3.990   3.440  12.694 -0.4446  0.6376 -0.5449
10080TIP3   OH251654   5.702   5.672  13.283 -0.1629  0.1131 -0.0565
10080TIP3    H151655   5.761   5.613  13.329 -0.1213 -0.5343 -0.9250
10080TIP3    H251656   5.620   5.623  13.277 -0.5376  0.6823  0.4157
10081TIP3   OH251657   5.302   5.575  15.758  0.1080  0.2726  0.2722
10081TIP3    H151658   5.275   5.485  15.739  0.8643 -0.0414  0.6985
10081TIP3    H251659   5.266   5.593  15.845  2.0530 -0.4655  1.2414
10082TIP3   OH251660   1.387   2.845  10.961 -0.2004  0.4855 -0.1007
10082TIP3    H151661   1.318   2.782  10.938 -0.5201  1.0426 -0.7079
10082TIP3    H251662   1.455   2.793  11.002 -1.1536 -0.0175  0.8564
10083TIP3   OH251663   5.773   0.924   1.240 -0.1797  0.2377  0.4116
10083TIP3    H151664   5.742   1.015   1.235  1.9699  0.9460 -0.3679
10083TIP3    H251665   5.694   0.874   1.261 -1.2823  2.3444  1.5442
10084TIP3   OH251666   0.690   2.007   0.841 -0.3568 -0.2085  0.1362
10084TIP3    H151667   0.721   2.058   0.916 -2.8595  3.7666 -1.3566
10084TIP3    H251668   0.608   1.967   0.871 -0.1333 -0.6034  0.2321
10085TIP3   OH251669   3.130   3.798   4.112 -0.0711 -0.3297 -0.0633
10085TIP3    H151670   3.177   3.772   4.033  0.6783  0.8742 -0.0258
10085TIP3    H251671   3.064   3.860   4.082 -0.2542 -0.4072  0.1718
10086TIP3   OH251672   4.098   5.872  13.815  0.1495 -0.3773  0.2387
10086TIP3    H151673   4.081   5.894  13.724  0.5331 -0.4119  0.1571
10086TIP3    H251674   4.011   5.866  13.855  0.0654  2.3634  0.5335
10087TIP3   OH251675   3.171   1.184  14.086  0.2803 -0.6501 -0.4532
10087TIP3    H151676   3.261   1.207  14.060  0.6300 -0.6445  0.7337
10087TIP3    H251677   3.179   1.156  14.177 -0.9522 -0.5301 -0.3023
10088TIP3   OH251678   4.998   3.886   1.967 -0.1784 -0.6858  0.6883
10088TIP3    H151679   4.936   3.957   1.950  1.6529  0.6551 -0.6714
10088TIP3    H251680   4.952   3.828   2.028 -1.8444  1.5105  1.6141
10089TIP3   OH251681   2.462   6.424   2.373  0.5544  0.0801 -0.2032
10089TIP3    H151682   2.442   6.357   2.307  0.5948 -0.8731  0.7469
10089TIP3    H251683   2.536   6.388   2.422 -1.6160 -0.7822  2.5581
10090TIP3   OH251684   4.345   4.976  16.069 -0.8315 -0.9980 -0.0817
10090TIP3    H151685   4.330   5.055  16.018  0.7612 -0.6091  0.0293
10090TIP3    H251686   4.418   4.932  16.026  2.9004  1.0584  3.6955
10091TIP3   OH251687   2.544   0.322  16.856 -0.4180 -0.5897 -0.2219
10091TIP3    H151688   2.610   0.284  16.914 -0.4646  1.7389  1.4120
10091TIP3    H251689   2.562   0.283  16.771  1.6044 -1.7179  0.6817
10092TIP3   OH251690   1.335   0.859   4.537 -0.0422  0.1257  0.0986
10092TIP3    H151691   1.374   0.938   4.500 -0.0903 -0.6717 -1.6915
10092TIP3    H251692   1.409   0.808   4.568 -0.0455  1.1106  1.7760
10093TIP3   OH251693   6.480   3.459   0.723  0.5041  0.1306  0.4726
10093TIP3    H151694   6.474   3.488   0.632 -1.0401 -1.1106  0.1664
10093TIP3    H251695   6.510   3.368   0.718 -0.0652 -0.0971  1.1881
10094TIP3   OH251696   3.790   1.580  14.968 -0.2272 -0.4836 -0.0731
10094TIP3    H151697   3.786   1.662  15.018 -0.0698 -0.2741 -0.4056
10094TIP3    H251698   3.719   1.586  14.905 -0.2783 -0.6473 -0.0315
10095TIP3   OH251699   4.650   4.976   5.107  0.0286  0.1606  0.6173
10095TIP3    H151700   4.702   4.970   5.187  0.1740 -0.6609  0.4697
10095TIP3    H251701   4.685   4.906   5.051 -1.3317 -0.4885  0.5729
10096TIP3   OH251702   5.975   3.063  11.594 -0.0563  0.2632  0.0827
10096TIP3    H151703   5.999   3.020  11.512  0.5511 -0.6527  0.7314
10096TIP3    H251704   6.038   3.030  11.658  0.2370  1.8846  0.6639
10097TIP3   OH251705   3.117   3.270   4.601  0.1026  0.2230  0.1887
10097TIP3    H151706   3.104   3.192   4.547  3.6575 -0.6795  0.5233
10097TIP3    H251707   3.092   3.242   4.689 -1.3072  0.3091 -0.1803
10098TIP3   OH251708   5.507   0.820  11.668  0.4147 -0.1261 -0.7009
10098TIP3    H151709   5.469   0.897  11.625 -0.2340  0.0683  0.1922
10098TIP3    H251710   5.530   0.761  11.597  1.3025  1.0653 -1.4250
10099TIP3   OH251711   5.523   5.924   4.518 -0.2787 -0.6770  0.2208
10099TIP3    H151712   5.518   5.948   4.426  0.4427 -0.6234  0.1943
10099TIP3    H251713   5.534   5.829   4.518 -1.7696 -0.8613  0.2932
10100TIP3   OH251714   6.655   6.436  14.387 -0.0049  0.0670  0.1000
10100TIP3    H151715   6.677   6.343  14.378  1.1877  0.2301  1.1395
10100TIP3    H251716   6.560   6.437  14.399  0.2945 -1.2878  3.1347
10101TIP3   OH251717   3.563   3.840  16.051  0.3682  0.0534 -0.2547
10101TIP3    H151718   3.580   3.931  16.077 -2.4487  0.2060  1.3120
10101TIP3    H251719   3.650   3.800  16.046  1.7036  2.9621 -1.5579
10102TIP3   OH251720   3.728   1.824   4.905 -0.2146 -0.3106 -0.0640
10102TIP3    H151721   3.819   1.834   4.877  0.6353 -1.0134  2.3727
10102TIP3    H251722   3.702   1.738   4.873 -0.5021  0.4355 -1.9427
10103TIP3   OH251723   3.615   1.230   6.284 -0.0016 -0.5593 -1.0888
10103TIP3    H151724   3.672   1.196   6.353  1.7557 -1.3474 -2.8745
10103TIP3    H251725   3.607   1.157   6.221 -0.8602  0.4264 -2.1508
10104TIP3   OH251726   3.130   2.687   2.478 -0.0800  0.2651 -0.0457
10104TIP3    H151727   3.041   2.719   2.491  0.2910  1.0030  0.7405
10104TIP3    H251728   3.167   2.744   2.411 -0.0677  0.2181 -0.0789
10105TIP3   OH251729   6.277   0.005   3.982 -0.3675 -0.2318 -0.5894
10105TIP3    H151730   6.183  -0.015   3.992 -0.7658  1.5274 -0.6778
10105TIP3    H251731   6.308  -0.059   3.918 -1.6340 -0.4740 -0.9764
10106TIP3   OH251732   5.487   6.239   0.164 -0.0061  0.7000  0.0020
10106TIP3    H151733   5.553   6.170   0.159 -0.0138  0.6168  0.8303
10106TIP3    H251734   5.536   6.321   0.159  0.0142  0.6381 -0.8607
10107TIP3   OH251735   1.632   3.819   4.512  0.6821  0.3714  0.5765
10107TIP3    H151736   1.616   3.893   4.454  0.0383  0.8093  1.3042
10107TIP3    H251737   1.598   3.847   4.597  2.5822  0.1618  1.4503
10108TIP3   OH251738   0.300   4.298  17.013 -0.5284 -0.3420  0.3050
10108TIP3    H151739   0.305   4.388  16.981  0.2405 -0.1838  0.8711
10108TIP3    H251740   0.391   4.269  17.019 -0.7967 -1.3989 -0.5429
10109TIP3   OH251741   1.103   4.040  11.918  0.1613  0.7368 -0.5428
10109TIP3    H151742   1.032   4.092  11.957  0.9844 -1.3756  4.2058
10109TIP3    H251743   1.059   3.977  11.862 -1.5057  1.3869  0.0070
10110TIP3   OH251744   1.086   2.032   0.691  0.1468  0.7806 -0.2078
10110TIP3    H151745   1.152   1.998   0.751  0.6166 -1.0767 -1.7190
10110TIP3    H251746   1.124   2.113   0.657  0.5893  0.9832  0.7656
10111TIP3   OH251747   2.015   4.168   4.043 -0.0462  0.7476  0.4478
10111TIP3    H151748   2.107   4.153   4.063 -0.1774 -0.8701 -0.0954
10111TIP3    H251749   2.016   4.223   3.965  0.4588  0.4525  0.2430
10112TIP3   OH251750   6.079   6.157   1.918  0.4422  0.1182 -0.1515
10112TIP3    H151751   6.002   6.109   1.889 -0.2758  1.3823 -0.3453
10112TIP3    H251752   6.090   6.131   2.010 -0.5612  0.4003  0.0540
10113TIP3   OH251753   4.667   3.907  11.326 -0.0968  0.0900  0.6027
10113TIP3    H151754   4.614   3.854  11.268 -0.1674 -0.4443  1.1466
10113TIP3    H251755   4.615   3.987  11.339 -0.5470 -0.2151  0.7273
10114TIP3   OH251756   6.705   0.303  14.574 -0.2561  0.0322 -0.8227
10114TIP3    H151757   6.791   0.341  14.557 -0.4016  0.1827 -1.2280
10114TIP3    H251758   6.709   0.216  14.535  0.3347 -0.6676  0.7707
10115TIP3   OH251759   1.595   1.320   4.522  0.2371  0.3061 -0.0980
10115TIP3    H151760   1.565   1.396   4.571 -0.7568  0.4326 -0.8769
10115TIP3    H251761   1.619   1.356   4.436 -0.9095 -0.3357 -0.7097
10116TIP3   OH251762   0.159   3.754   5.393  0.2999 -0.5487  0.6344
10116TIP3    H151763   0.119   3.686   5.338  1.4798  0.9093 -2.1526
10116TIP3    H251764   0.219   3.800   5.334  0.5870  1.9993  2.8181
10117TIP3   OH251765   5.726   5.472  11.519  0.0292 -0.3419 -0.6244
10117TIP3    H151766   5.652   5.505  11.570 -1.2455 -2.3050 -1.1366
10117TIP3    H251767   5.760   5.399  11.570  0.5412 -0.5175 -1.2104
10118TIP3   OH251768   5.076   2.026   2.352  0.0285 -0.7358 -0.2019
10118TIP3    H151769   5.154   2.064   2.312  1.3624 -1.6164  1.4666
10118TIP3    H251770   5.006   2.042   2.289  1.5887 -0.0846 -1.8167
10119TIP3   OH251771   2.175   5.849  12.631 -0.4361  0.1563  0.0926
10119TIP3    H151772   2.138   5.879  12.548  2.5559 -1.3065 -1.8487
10119TIP3    H251773   2.253   5.904  12.644 -0.1897 -0.4522  1.3228
10120TIP3   OH251774   1.207   3.602   0.460  0.4316 -0.3098  0.4739
10120TIP3    H151775   1.169   3.632   0.543 -0.6731 -0.3438 -0.0152
10120TIP3    H251776   1.139   3.547   0.421  1.5751 -1.6225  0.3022
10121TIP3   OH251777   0.591   2.160  12.343  0.2026  0.4787 -1.0833
10121TIP3    H151778   0.593   2.251  12.313  0.4188  0.7247 -0.3327
10121TIP3    H251779   0.505   2.128  12.315  0.3164  0.7568 -1.7838
10122TIP3   OH251780   6.066   6.128  14.863  0.2321  0.2793 -0.8529
10122TIP3    H151781   6.134   6.178  14.817  0.3459  0.8416 -0.0928
10122TIP3    H251782   6.001   6.194  14.888  0.4017  0.0554  0.1945
10123TIP3   OH251783   3.207   2.529  10.972 -0.0989 -0.4764  0.0801
10123TIP3    H151784   3.261   2.501  10.899 -1.1587 -0.9620 -0.5359
10123TIP3    H251785   3.200   2.624  10.962 -0.1843 -0.5322 -0.4232
10124TIP3   OH251786   1.499   3.405   0.197 -0.4908  0.1583 -0.3600
10124TIP3    H151787   1.451   3.482   0.167 -0.6534 -0.3479 -1.4125
10124TIP3    H251788   1.430   3.341   0.218 -0.3518  0.2328  0.3555
10125TIP3   OH251789   1.438   6.224  16.637 -0.1977  0.2023 -0.0871
10125TIP3    H151790   1.474   6.136  16.633 -0.7040  0.0408 -1.3094
10125TIP3    H251791   1.375   6.222  16.710  1.4039  0.1754  1.3096
10126TIP3   OH251792   0.982   0.413  11.332  0.2144 -0.4594 -0.4058
10126TIP3    H151793   1.037   0.492  11.335 -0.0820 -0.2483 -0.5614
10126TIP3    H251794   1.043   0.342  11.353 -0.0895  0.0810  2.4747
10127TIP3   OH251795   1.176   5.106   5.205 -0.0916  0.1353 -0.3902
10127TIP3    H151796   1.147   5.129   5.293 -0.5354 -0.3630 -0.3997
10127TIP3    H251797   1.159   5.012   5.199  2.7916 -0.4621  0.0815
10128TIP3   OH251798   5.749   6.267   5.493  0.1500  0.1287 -0.5189
10128TIP3    H151799   5.795   6.351   5.497 -1.2139  0.8027  1.8962
10128TIP3    H251800   5.656   6.290   5.498 -0.3277 -1.4403 -1.6780
10129TIP3   OH251801   6.706   0.956   5.350 -0.1732  0.3620  0.1104
10129TIP3    H151802   6.719   0.997   5.264 -0.7089  1.6119  0.6161
10129TIP3    H251803   6.625   0.994   5.383 -0.3446 -0.6422  0.8817
10130TIP3   OH251804   2.312   3.281  13.992  0.7673 -0.0743 -0.9256
10130TIP3    H151805   2.350   3.368  13.982  1.0891 -0.1540 -0.4154
10130TIP3    H251806   2.334   3.235  13.912  0.8859  0.2065 -1.0532
10131TIP3   OH251807   1.699   6.244   4.769  0.1594  0.1778 -0.3058
10131TIP3    H151808   1.604   6.243   4.784  0.4133  0.5856  1.3433
10131TIP3    H251809   1.724   6.152   4.763  0.2570 -0.0725  3.1577
10132TIP3   OH251810   3.665   1.636  11.659 -0.3845  0.0422  0.1282
10132TIP3    H151811   3.575   1.660  11.681  0.1289  1.7159  0.4404
10132TIP3    H251812   3.719   1.698  11.706  0.9163 -0.2975 -0.8782
10133TIP3   OH251813   5.952   0.673  13.367  0.1918 -0.5488 -0.4076
10133TIP3    H151814   5.909   0.742  13.417  0.9988 -0.3567  0.0235
10133TIP3    H251815   5.906   0.672  13.283 -0.0872  0.2427 -0.2650
10134TIP3   OH251816   1.411   6.757   0.103  0.5755 -0.1676  0.2605
10134TIP3    H151817   1.382   6.828   0.045 -0.1097  1.4116  2.4427
10134TIP3    H251818   1.506   6.762   0.101  0.5380  1.2843  0.8859
10135TIP3   OH251819   4.256   5.024  11.676 -0.1802 -1.0841 -0.5704
10135TIP3    H151820   4.263   5.095  11.740 -0.3137 -2.0208  0.5019
10135TIP3    H251821   4.325   5.042  11.612 -0.1529 -0.0473 -0.2591
10136TIP3   OH251822   1.169   0.686   1.005  0.5314  0.0655  0.2223
10136TIP3    H151823   1.109   0.753   0.972 -0.9981 -0.7767  1.2740
10136TIP3    H251824   1.195   0.717   1.091  1.2364  0.1775 -0.0251
10137TIP3   OH251825   6.117   4.923   3.289 -0.0386 -0.7086 -0.5167
10137TIP3    H151826   6.100   4.834   3.258  0.2390 -0.1604 -2.2803
10137TIP3    H251827   6.183   4.912   3.357  1.9538 -1.6551 -2.5213
10138TIP3   OH251828   3.011   1.557   1.373  0.8024  0.6245 -0.5361
10138TIP3    H151829   3.039   1.623   1.309  2.3177 -0.5991 -1.1891
10138TIP3    H251830   3.087   1.547   1.431 -0.1810  0.9604  0.8186
10139TIP3   OH251831   4.260   2.869   5.215 -0.1215 -0.0865  0.1947
10139TIP3    H151832   4.320   2.861   5.289 -0.8624 -0.3641  0.7704
10139TIP3    H251833   4.183   2.819   5.241 -0.9121  0.8964 -0.2129
10140TIP3   OH251834   4.437   1.586  12.367  0.3859  0.8571 -0.3865
10140TIP3    H151835   4.401   1.571  12.455  0.0822 -0.1053 -0.6702
10140TIP3    H251836   4.361   1.604  12.313  0.3205 -1.0688 -0.9644
10141TIP3   OH251837   0.804   3.335   2.855 -0.7600 -0.2642  0.3074
10141TIP3    H151838   0.814   3.239   2.854 -1.5734 -0.3537 -0.6869
10141TIP3    H251839   0.725   3.350   2.908  0.1279 -0.0510  1.5913
10142TIP3   OH251840   3.615   0.893   4.523 -0.3153 -0.3539 -0.2179
10142TIP3    H151841   3.665   0.915   4.444  0.4990 -0.9643  0.1199
10142TIP3    H251842   3.657   0.814   4.557 -0.3184  0.1979  1.1135
10143TIP3   OH251843   5.734   2.035  11.809  0.5486 -0.2463 -0.1713
10143TIP3    H151844   5.703   2.067  11.894  2.8773  0.1062  0.6021
10143TIP3    H251845   5.768   1.947  11.827  0.8475 -0.2577 -0.7643
10144TIP3   OH251846   2.221   3.221   5.508 -0.5719  0.3845 -0.0282
10144TIP3    H151847   2.130   3.192   5.498 -0.8460  0.5665  1.6600
10144TIP3    H251848   2.217   3.286   5.578  0.9844 -0.2320  0.6547
10145TIP3   OH251849   4.660   5.536  14.719  0.0947 -0.2168  0.3003
10145TIP3    H151850   4.672   5.487  14.801  1.2518 -0.3140  0.0811
10145TIP3    H251851   4.612   5.476  14.662 -1.7549  0.2706  1.2884
10146TIP3   OH251852   1.309   2.803   5.389 -0.4625 -0.1999  0.2124
10146TIP3    H151853   1.239   2.867   5.400 -0.1565 -0.5318  4.8352
10146TIP3    H251854   1.390   2.853   5.398 -0.1133 -0.4409 -1.3762
10147TIP3   OH251855   3.960   2.060   5.844 -0.7512 -0.0135  0.1504
10147TIP3    H151856   3.865   2.066   5.831 -1.0333 -2.3555  0.8397
10147TIP3    H251857   3.978   1.966   5.844  1.6864  0.4247 -0.6296
10148TIP3   OH251858   0.148   5.883   4.804  0.4914 -0.2472  0.0187
10148TIP3    H151859   0.057   5.869   4.777  0.6955 -1.7330  0.0415
10148TIP3    H251860   0.174   5.800   4.843  1.5748  0.4763  0.8643
10149TIP3   OH251861   6.308   4.661  14.397 -0.0809  0.1367  0.3264
10149TIP3    H151862   6.387   4.610  14.417  0.2903 -0.0066 -1.4996
10149TIP3    H251863   6.337   4.730  14.338 -1.4224 -0.3134 -0.8944
10150TIP3   OH251864   3.175   4.344   5.002 -0.4605 -0.1182 -0.5922
10150TIP3    H151865   3.262   4.322   4.967 -0.4847  0.2452 -0.8861
10150TIP3    H251866   3.161   4.435   4.975  0.1581  0.6625  1.6700
10151TIP3   OH251867   0.647   2.598   2.756 -0.4802  0.0059 -0.0756
10151TIP3    H151868   0.615   2.552   2.833  0.2665 -0.0199  0.2199
10151TIP3    H251869   0.742   2.600   2.766 -0.5143  2.0325  0.1728
10152TIP3   OH251870   3.816   4.814   5.292 -0.2376 -0.1060 -0.3735
10152TIP3    H151871   3.785   4.731   5.255  1.3238 -1.7165  1.8188
10152TIP3    H251872   3.745   4.842   5.350 -0.1914 -0.6722 -0.0309
10153TIP3   OH251873   0.009   5.569   4.527 -0.1590  0.2757  0.0696
10153TIP3    H151874  -0.042   5.492   4.502 -0.3193  0.3523  0.1645
10153TIP3    H251875   0.070   5.537   4.593  0.9631 -0.1590 -1.1485
10154TIP3   OH251876   2.243   5.454  14.258 -0.2099 -0.2313  0.1616
10154TIP3    H151877   2.198   5.496  14.331 -0.6916 -0.0676 -0.2254
10154TIP3    H251878   2.216   5.362  14.264  1.2513 -0.6018  1.3129
10155TIP3   OH251879   2.180   3.127   3.317 -0.9181  0.1483 -0.2258
10155TIP3    H151880   2.134   3.062   3.370 -0.6171 -0.6741 -0.9855
10155TIP3    H251881   2.260   3.084   3.289 -0.3380  1.1100 -0.0835
10156TIP3   OH251882   4.152   0.452  16.266 -0.5111 -0.1158  0.0668
10156TIP3    H151883   4.219   0.501  16.219  1.9553 -1.7025  1.7867
10156TIP3    H251884   4.117   0.515  16.330  1.9088 -0.2591  1.5801
10157TIP3   OH251885   2.278   2.062   1.897  0.0235 -0.0118  0.6961
10157TIP3    H151886   2.208   2.128   1.899  0.9810  1.1587 -1.9036
10157TIP3    H251887   2.235   1.982   1.868 -0.2414  0.7477 -1.0784
10158TIP3   OH251888   0.854   4.739  15.847 -0.4734 -0.1049 -0.1672
10158TIP3    H151889   0.815   4.761  15.932  1.2428 -0.7361  0.8234
10158TIP3    H251890   0.789   4.685  15.803 -1.1793 -0.2011  0.9788
10159TIP3   OH251891   0.220   1.969  15.693  0.1984  0.5708  0.1491
10159TIP3    H151892   0.261   1.976  15.779 -1.7700  0.6938  1.1068
10159TIP3    H251893   0.150   2.035  15.694 -0.2593  0.1346 -1.3126
10160TIP3   OH251894   4.888   5.074   4.619  0.1042 -0.7109 -0.4670
10160TIP3    H151895   4.830   5.086   4.694  1.8715 -0.8154  0.9757
10160TIP3    H251896   4.847   5.122   4.548  0.3952  2.8847  1.6529
10161TIP3   OH251897   1.742   0.592   5.354 -0.0422  0.7570  0.1749
10161TIP3    H151898   1.655   0.575   5.319  0.1240  1.5545 -0.6446
10161TIP3    H251899   1.727   0.625   5.443 -0.3945 -3.3695  1.7757
10162TIP3   OH251900   4.962   5.974  14.680 -0.1238  0.9557  0.3982
10162TIP3    H151901   4.921   5.967  14.594  0.3747  2.3753  0.0299
10162TIP3    H251902   5.038   5.916  14.675  0.4116  1.7214 -0.4330
10163TIP3   OH251903   2.848   5.709  14.424 -0.5085  0.3274 -0.9801
10163TIP3    H151904   2.764   5.725  14.380 -0.6500 -0.4346 -0.9891
10163TIP3    H251905   2.832   5.734  14.515 -0.1278  2.1982 -1.4176
10164TIP3   OH251906   2.827   0.388  11.551 -0.5991  0.6776  0.4662
10164TIP3    H151907   2.873   0.472  11.551  1.4450 -0.4223  2.0753
10164TIP3    H251908   2.867   0.339  11.480  0.0603  0.0672  1.2580
10165TIP3   OH251909   3.402   4.722   6.123 -0.3155 -0.2349 -0.0905
10165TIP3    H151910   3.367   4.715   6.211 -0.0562 -0.9188 -0.0431
10165TIP3    H251911   3.337   4.679   6.067 -0.1056 -0.4893 -0.1397
10166TIP3   OH251912   3.044   1.486   4.570 -0.1202  0.1858 -0.2494
10166TIP3    H151913   2.950   1.479   4.588 -0.3167 -1.4499 -1.6959
10166TIP3    H251914   3.056   1.574   4.536 -1.0329  0.6125  0.5124
10167TIP3   OH251915   4.633   1.634   1.933  0.2324 -0.0047 -0.0859
10167TIP3    H151916   4.578   1.664   2.006  0.7384 -1.7606  1.0531
10167TIP3    H251917   4.588   1.555   1.900  0.1530  0.6258 -1.5134
10168TIP3   OH251918   2.897   3.957   5.810 -0.4158  0.6267  0.6160
10168TIP3    H151919   2.867   3.875   5.770 -0.5589  0.2266  1.5257
10168TIP3    H251920   2.847   3.963   5.892  0.9871  0.6461  1.4897
10169TIP3   OH251921   3.629   5.839   0.031  0.2740  0.1661 -0.0282
10169TIP3    H151922   3.541   5.800   0.028  0.3795 -0.0539 -0.2974
10169TIP3    H251923   3.618   5.927  -0.004  0.2878 -0.1057 -0.7248
10170TIP3   OH251924   0.128   4.529   1.146 -0.1998  0.2144 -0.3559
10170TIP3    H151925   0.092   4.587   1.079 -0.1221  0.3878 -0.2495
10170TIP3    H251926   0.068   4.537   1.220 -0.0086  0.4196 -0.2186
10171TIP3   OH251927   5.877   0.259   1.492 -0.1150  0.3049 -0.9292
10171TIP3    H151928   5.897   0.195   1.560 -2.1589  0.1133 -0.4735
10171TIP3    H251929   5.948   0.251   1.429  1.4576  0.0215  0.8483
10172TIP3   OH251930   0.848   6.038   4.074  0.4367  0.8345 -0.3325
10172TIP3    H151931   0.905   5.967   4.103  0.7283  0.7939 -0.9847
10172TIP3    H251932   0.830   6.018   3.982  1.8693  2.4736 -0.9968
10173TIP3   OH251933   5.683   2.879  13.874  0.5198  0.0100  0.2274
10173TIP3    H151934   5.667   2.897  13.782 -0.4687  2.2405  0.7780
10173TIP3    H251935   5.728   2.957  13.906 -3.3104  1.4338  2.6353
10174TIP3   OH251936   6.574   5.604   0.019  0.0370  0.2171 -0.3243
10174TIP3    H151937   6.509   5.660   0.061 -0.1835 -1.0040  0.9789
10174TIP3    H251938   6.646   5.663  -0.004 -0.3935  1.1050  0.5987
10175TIP3   OH251939   4.755   2.595  13.041  0.3242 -0.1011 -0.2820
10175TIP3    H151940   4.710   2.601  12.956 -1.8182  0.9697  0.8870
10175TIP3    H251941   4.744   2.504  13.068 -3.3918  0.6734  1.1202
10176TIP3   OH251942   5.743   4.997   0.462  0.1805 -0.7961 -0.5803
10176TIP3    H151943   5.652   4.995   0.489  0.2739 -0.7092 -0.2585
10176TIP3    H251944   5.749   5.074   0.405  0.1871 -0.4517 -0.1175
10177TIP3   OH251945   0.567   2.243  15.246 -1.0104  0.2023 -0.4610
10177TIP3    H151946   0.611   2.302  15.307 -2.2080  2.2370 -1.5218
10177TIP3    H251947   0.482   2.283  15.231 -2.0982 -2.1339 -0.7532
10178TIP3   OH251948   4.783   1.128   2.173 -0.0547  0.3007  0.1770
10178TIP3    H151949   4.696   1.095   2.148  1.0503 -1.2399 -1.7538
10178TIP3    H251950   4.804   1.193   2.105  0.4138  0.4881  0.4973
10179TIP3   OH251951   5.871   1.025  13.159  0.0891  0.4770 -0.3109
10179TIP3    H151952   5.799   1.002  13.217  1.2763  0.8545  1.3549
10179TIP3    H251953   5.949   1.013  13.212  1.1857  1.0756 -1.7636
10180TIP3   OH251954   1.127   4.332   4.974  0.2188 -0.3985 -0.2326
10180TIP3    H151955   1.058   4.287   5.023 -0.3017 -0.2237 -0.7967
10180TIP3    H251956   1.080   4.395   4.918  0.7803 -0.7624 -1.1283
10181TIP3   OH251957   0.744   1.425   3.442 -0.1469  0.0916  0.6123
10181TIP3    H151958   0.796   1.423   3.361 -0.2324  1.5375  0.5012
10181TIP3    H251959   0.794   1.372   3.504 -0.7399 -2.1269 -0.7565
10182TIP3   OH251960   6.431   0.513   4.986 -0.2554 -0.8261  0.1600
10182TIP3    H151961   6.522   0.542   4.987  0.6281 -3.3387 -1.1920
10182TIP3    H251962   6.417   0.476   5.073 -0.1925  0.1703  0.5953
10183TIP3   OH251963   5.746   0.447  12.937 -0.1021  0.3823 -0.6034
10183TIP3    H151964   5.691   0.422  13.012  1.4844 -0.7358  0.2258
10183TIP3    H251965   5.817   0.497  12.976  0.3714  0.3765 -1.4492
10184TIP3   OH251966   4.745   0.089  13.874 -0.0205 -0.1849 -0.0834
10184TIP3    H151967   4.805   0.098  13.948 -0.9997 -0.8965  0.8023
10184TIP3    H251968   4.740  -0.006  13.859  0.9789 -0.0158 -1.7472
10185TIP3   OH251969   3.715   0.506  13.065  0.3395  0.1037  0.3399
10185TIP3    H151970   3.701   0.431  13.007  0.2088  0.1228  0.3466
10185TIP3    H251971   3.727   0.580  13.006  1.6395 -0.1223  0.3137
10186TIP3   OH251972   0.607   3.618  13.813 -0.1477 -0.3736 -0.1562
10186TIP3    H151973   0.698   3.603  13.786  0.2279  0.4639  0.5992
10186TIP3    H251974   0.597   3.713  13.809 -1.0981 -0.4908 -0.5501
10187TIP3   OH251975   6.755   6.508  14.638  0.2853  0.1585 -0.4446
10187TIP3    H151976   6.690   6.446  14.672  1.0235 -0.3354  0.0888
10187TIP3    H251977   6.761   6.486  14.544 -0.2127  0.1177 -0.4714
10188TIP3   OH251978   3.779   2.885  12.576 -0.4843  0.2022 -0.6815
10188TIP3    H151979   3.780   2.963  12.630 -1.1606 -0.4408  0.2849
10188TIP3    H251980   3.688   2.855  12.578 -0.2609 -0.5452 -1.1363
10189TIP3   OH251981   3.980   0.629   0.072 -0.3432 -0.2179  0.3119
10189TIP3    H151982   3.902   0.637   0.127 -0.1596 -0.0157  0.5459
10189TIP3    H251983   4.038   0.569   0.119 -0.0826  0.1463  0.4619
10190TIP3   OH251984   3.552   5.846  13.986 -0.7886  0.9837 -0.1280
10190TIP3    H151985   3.520   5.893  14.064 -1.9251  0.4711 -0.2891
10190TIP3    H251986   3.510   5.890  13.913 -0.8921  0.4992 -0.3600
10191TIP3   OH251987   2.542   4.564  14.649  0.1671  0.4609  0.2698
10191TIP3    H151988   2.525   4.647  14.604 -0.1901  0.2643  0.0478
10191TIP3    H251989   2.468   4.554  14.708 -0.6986 -0.6021 -0.9906
10192TIP3   OH251990   3.868   4.232  13.315  0.3628  0.0032 -0.2199
10192TIP3    H151991   3.838   4.314  13.274 -0.8292 -0.4304 -0.2216
10192TIP3    H251992   3.873   4.169  13.243 -0.1249 -0.3132  0.0212
10193TIP3   OH251993   2.147   6.678  13.203  0.1420  0.3804 -0.0190
10193TIP3    H151994   2.077   6.686  13.268  0.0428  1.5795 -0.2633
10193TIP3    H251995   2.170   6.585  13.204  1.1397  0.6184  2.7564
10194TIP3   OH251996   0.191   5.115   0.730  0.0882 -0.4694 -0.7569
10194TIP3    H151997   0.231   5.189   0.683  0.1432 -0.2068 -0.2999
10194TIP3    H251998   0.265   5.069   0.770  0.0242 -0.5662 -0.7522
10195TIP3   OH251999   3.474   0.473   5.430  0.1195 -0.0803 -0.3912
10195TIP3    H152000   3.380   0.490   5.432 -0.1066 -1.0734 -1.7498
10195TIP3    H252001   3.505   0.517   5.351  0.2897 -2.1129 -1.5030
10196TIP3   OH252002   1.622   5.406  14.128 -0.1867 -0.1902 -0.2595
10196TIP3    H152003   1.540   5.357  14.133 -1.6377  2.1252 -0.1345
10196TIP3    H252004   1.637   5.418  14.034 -0.1764 -0.3499 -0.2766
10197TIP3   OH252005   1.629   1.132   0.978  0.1804  0.4541 -0.6807
10197TIP3    H152006   1.561   1.069   0.954 -0.9315  1.6404 -0.7082
10197TIP3    H252007   1.702   1.111   0.921 -0.7129  0.1374 -1.7296
10198TIP3   OH252008   2.107   3.171   4.051 -0.5714 -0.3466  0.0255
10198TIP3    H152009   2.045   3.175   4.124  1.9048 -2.2848  2.3432
10198TIP3    H252010   2.170   3.241   4.069  1.1734 -2.1044  0.8647
10199TIP3   OH252011   5.910   5.786  16.551  0.1015  0.5833  0.5332
10199TIP3    H152012   5.916   5.698  16.513  0.6123  1.0642 -0.5250
10199TIP3    H252013   5.867   5.773  16.635 -2.5641 -0.3136 -0.8862
10200TIP3   OH252014   1.997   1.447  11.369 -0.2509 -0.3624 -0.2019
10200TIP3    H152015   1.991   1.533  11.327 -0.3549  0.5145  1.5386
10200TIP3    H252016   1.917   1.441  11.422  0.9911 -0.4166  1.6968
10201TIP3   OH252017   4.519   5.919  13.052 -0.1321 -0.4078  0.1708
10201TIP3    H152018   4.514   5.851  13.120  1.2998 -0.1237  0.5834
10201TIP3    H252019   4.443   5.903  12.996 -2.0420  0.1203  2.5351
10202TIP3   OH252020   6.464   2.890   5.522  0.3129  0.1650  0.0156
10202TIP3    H152021   6.449   2.984   5.521  1.3355  0.3669  1.9662
10202TIP3    H252022   6.397   2.856   5.582  0.1274 -0.3273 -0.4672
10203TIP3   OH252023   2.218   2.044   3.004  0.2679 -0.0452 -0.2820
10203TIP3    H152024   2.212   1.988   3.081 -0.6009  0.2931 -0.0948
10203TIP3    H252025   2.180   2.127   3.033 -0.9084 -0.2070 -1.3469
10204TIP3   OH252026   3.864   3.328   2.240  0.5804  1.0294 -0.0256
10204TIP3    H152027   3.863   3.305   2.147  1.2037 -1.0386  0.4444
10204TIP3    H252028   3.950   3.369   2.254  1.2758 -0.3896 -0.0008
10205TIP3   OH252029   3.597   6.088  17.136  0.6643 -0.8489  0.0248
10205TIP3    H152030   3.599   6.141  17.057 -0.6361 -1.1154 -0.2073
10205TIP3    H252031   3.636   6.144  17.204 -1.6088  0.8274  0.0252
10206TIP3   OH252032   4.698   0.109   6.356  0.5904  0.1464  0.0211
10206TIP3    H152033   4.731   0.083   6.270  1.0586  0.7392  0.0207
10206TIP3    H252034   4.748   0.056   6.418  0.0010 -0.5455 -0.0780
10207TIP3   OH252035   2.831   2.014   4.080  0.6538  0.0514  0.1426
10207TIP3    H152036   2.842   1.925   4.047 -0.1887 -0.0124  0.0166
10207TIP3    H252037   2.782   2.059   4.012  1.9188  0.8920 -0.2334
10208TIP3   OH252038   4.023   6.379   6.091  0.5337  0.0877  0.3318
10208TIP3    H152039   3.955   6.409   6.151  1.8154 -0.4725  2.1353
10208TIP3    H252040   4.105   6.392   6.140  1.4957 -1.7191 -0.7378
10209TIP3   OH252041   1.855   0.485   5.123 -0.2707  0.8863 -0.0490
10209TIP3    H152042   1.950   0.484   5.117 -0.2815 -0.4555 -0.1969
10209TIP3    H252043   1.836   0.524   5.209  0.4465 -0.1006  0.5682
10210TIP3   OH252044   4.764   0.976  14.516  0.0147  0.1627 -0.1274
10210TIP3    H152045   4.694   1.037  14.540  0.1782  0.9811 -1.6628
10210TIP3    H252046   4.720   0.893  14.500 -0.0749 -0.4649  3.1099
10211TIP3   OH252047   0.560   5.925   2.757  0.0600 -0.3389  0.2160
10211TIP3    H152048   0.494   5.917   2.688  0.1016 -0.9918  0.2445
10211TIP3    H252049   0.642   5.940   2.710 -0.1366  0.6451  0.1891
10212TIP3   OH252050   0.647   0.790   2.897  0.3116  1.3180  0.7959
10212TIP3    H152051   0.681   0.779   2.986 -0.0153 -0.8012  0.6878
10212TIP3    H252052   0.553   0.780   2.906  0.5586 -3.5852 -0.3377
10213TIP3   OH252053   4.335   5.972   0.152  0.1212 -0.7277  0.1931
10213TIP3    H152054   4.365   6.024   0.077 -1.0838 -1.8502 -1.0687
10213TIP3    H252055   4.416   5.947   0.197  1.0747 -2.6377 -2.4728
10214TIP3   OH252056   0.759   0.067   4.244 -0.7366 -0.2754  0.2331
10214TIP3    H152057   0.676   0.112   4.230  0.5123  2.9361  2.6305
10214TIP3    H252058   0.761   0.048   4.338  1.1247 -0.5667  0.1652
10215TIP3   OH252059   6.236   5.176  12.405 -0.1186  0.5518 -0.8450
10215TIP3    H152060   6.318   5.134  12.381  0.4605  0.1063  1.7494
10215TIP3    H252061   6.252   5.212  12.492 -1.9615  2.4608 -1.2649
10216TIP3   OH252062   0.593   2.662   0.435  0.1222 -0.8272  0.6860
10216TIP3    H152063   0.567   2.703   0.517 -0.6844 -0.1227  0.0862
10216TIP3    H252064   0.626   2.734   0.381  1.1729 -1.3730  0.6061
10217TIP3   OH252065   0.654   3.515   0.715 -0.1762  0.2478 -0.2557
10217TIP3    H152066   0.622   3.577   0.650  2.2143  0.5020 -1.2443
10217TIP3    H252067   0.629   3.429   0.680 -0.8002  0.4866 -0.4115
10218TIP3   OH252068   6.105   0.960  13.266  0.0927 -0.2650 -0.5173
10218TIP3    H152069   6.200   0.959  13.274  0.2156 -3.2357 -1.6635
10218TIP3    H252070   6.073   0.910  13.341 -0.4683 -0.5572 -0.9427
10219TIP3   OH252071   5.422   4.696  14.530 -0.1707 -0.2395 -0.1995
10219TIP3    H152072   5.368   4.762  14.574  1.5155  0.2930  1.1445
10219TIP3    H252073   5.447   4.737  14.447  0.0683  0.4484  0.2019
10220TIP3   OH252074   0.205   2.951  15.350  0.1125 -0.1831  0.1167
10220TIP3    H152075   0.189   3.034  15.396 -0.1885  0.3171 -0.8590
10220TIP3    H252076   0.298   2.952  15.331  0.3425 -0.6456  1.1808
10221TIP3   OH252077   4.226   4.651   0.248  0.2012  0.0614 -0.2984
10221TIP3    H152078   4.200   4.561   0.229  1.8955 -0.4323 -0.3606
10221TIP3    H252079   4.251   4.687   0.163 -0.7651  0.6920 -0.3192
10222TIP3   OH252080   5.101   4.149  17.021  0.3039  0.9115 -0.7201
10222TIP3    H152081   5.032   4.102  16.974 -0.1225 -1.2529  1.9311
10222TIP3    H252082   5.056   4.219  17.067 -0.1193 -0.1704  0.5727
10223TIP3   OH252083   1.025   2.639   2.629 -0.4119  0.0509 -0.6389
10223TIP3    H152084   1.003   2.548   2.649  1.9442 -0.2660  0.6961
10223TIP3    H252085   0.965   2.663   2.559 -1.6519 -2.2496 -0.4312
10224TIP3   OH252086   3.795   0.598   3.632 -0.0760  0.9835 -0.6374
10224TIP3    H152087   3.770   0.599   3.725 -1.6696 -2.0836 -0.9896
10224TIP3    H252088   3.886   0.571   3.632 -0.7577 -1.4630 -0.0440
10225TIP3   OH252089   5.027   2.888  10.984  0.0036  0.1560  0.9211
10225TIP3    H152090   4.931   2.888  10.994  0.1408 -0.3917  2.3506
10225TIP3    H252091   5.050   2.795  10.977  0.1823  0.3883 -2.1848
10226TIP3   OH252092   4.419   1.340  14.470 -0.1600  0.2706  0.0094
10226TIP3    H152093   4.367   1.389  14.405 -0.6159 -1.4619 -0.9603
10226TIP3    H252094   4.497   1.395  14.484 -1.5309  2.1709  0.3574
10227TIP3   OH252095   6.122   0.998   3.407 -0.1348  0.5573 -0.3721
10227TIP3    H152096   6.032   0.966   3.394  0.0779 -0.0024 -0.4777
10227TIP3    H252097   6.130   1.004   3.502 -0.3534  0.8098 -0.3676
10228TIP3   OH252098   5.031   5.607  11.573  0.0387 -0.4023 -0.2584
10228TIP3    H152099   4.972   5.657  11.517 -1.0119 -2.2022 -0.8201
10228TIP3    H252100   4.975   5.572  11.642  1.2438  1.3967  1.6879
10229TIP3   OH252101   5.138   3.506   5.614 -0.2903  0.6392  0.2893
10229TIP3    H152102   5.056   3.483   5.658  0.9698 -1.5457  1.5536
10229TIP3    H252103   5.198   3.527   5.686 -0.0668  3.4609 -0.6716
10230TIP3   OH252104   2.657   2.732  13.716  0.2533  0.1212  0.4400
10230TIP3    H152105   2.742   2.776  13.717  0.1312  0.3516  2.1406
10230TIP3    H252106   2.665   2.662  13.780 -0.9621  0.4239  0.9457
10231TIP3   OH252107   3.666   0.708  10.873  0.4748  0.1176  0.6806
10231TIP3    H152108   3.694   0.618  10.855 -1.0528  0.1778 -2.2572
10231TIP3    H252109   3.578   0.714  10.836 -0.2457  2.2579  2.6448
10232TIP3   OH252110   3.653   4.817   1.705 -0.4304  0.3977 -0.0089
10232TIP3    H152111   3.741   4.848   1.684 -0.4180  0.7466  0.5542
10232TIP3    H252112   3.654   4.724   1.683  0.1126  0.3800  0.0942
10233TIP3   OH252113   6.530   4.829  14.935 -0.7126 -0.2942 -0.6047
10233TIP3    H152114   6.619   4.821  14.900 -0.9768  0.3429 -1.4373
10233TIP3    H252115   6.473   4.828  14.858 -1.2643  1.7012 -0.2535
10234TIP3   OH252116   5.183   5.076   3.791  0.0401 -0.5202 -0.2963
10234TIP3    H152117   5.159   5.127   3.713 -1.1064 -1.0804 -0.3249
10234TIP3    H252118   5.241   5.008   3.758  1.5391  0.7110 -0.2708
10235TIP3   OH252119   2.708   3.648  16.749  0.1379 -0.2317 -0.6461
10235TIP3    H152120   2.646   3.705  16.703  0.5953  0.0476 -0.9166
10235TIP3    H252121   2.655   3.574  16.779 -0.3652  0.1034 -0.7104
10236TIP3   OH252122   2.208   5.862  13.929  0.6733  0.3220 -0.3005
10236TIP3    H152123   2.295   5.880  13.965 -0.2116  1.3870  1.3683
10236TIP3    H252124   2.188   5.774  13.959  1.4545 -0.1948 -1.2671
10237TIP3   OH252125   6.449   1.928  12.276  0.4509 -0.3042  0.0493
10237TIP3    H152126   6.444   2.023  12.286 -0.4492 -0.2772 -0.6280
10237TIP3    H252127   6.370   1.894  12.319  0.6122 -0.7243  0.0239
10238TIP3   OH252128   2.108   4.516  14.420  0.6158 -0.5341  0.0143
10238TIP3    H152129   2.103   4.532  14.326  0.3724 -0.7933 -0.0137
10238TIP3    H252130   2.038   4.569  14.457  1.7751  0.9118  0.2167
10239TIP3   OH252131   5.542   2.257   5.980  0.7893 -0.3074 -0.0697
10239TIP3    H152132   5.542   2.320   5.908  1.4236  1.7271  1.6560
10239TIP3    H252133   5.498   2.180   5.944 -1.1192  1.5470 -1.8748
10240TIP3   OH252134   4.511   2.518   0.816 -0.3333  0.1561 -0.4596
10240TIP3    H152135   4.541   2.580   0.750  1.7306 -0.3464 -0.0181
10240TIP3    H252136   4.422   2.547   0.838 -0.1402  1.7386 -1.7068
10241TIP3   OH252137   5.076   5.801  12.671  0.2708 -0.5167  0.0124
10241TIP3    H152138   5.046   5.841  12.753  0.7296  0.3927 -0.2466
10241TIP3    H252139   5.148   5.858  12.642  1.8064 -2.2908  0.2881
10242TIP3   OH252140   2.977   5.915  15.821 -0.0874 -0.3802 -0.1542
10242TIP3    H152141   2.966   6.008  15.802 -1.6427  0.0047  2.4312
10242TIP3    H252142   3.069   5.906  15.845 -0.0063  0.5484 -0.1094
10243TIP3   OH252143   2.907   4.095   6.235  0.3469  0.3269  0.4856
10243TIP3    H152144   2.902   4.177   6.187 -1.3034  0.1971  0.3878
10243TIP3    H252145   2.995   4.062   6.218 -0.0466  0.4949 -2.1301
10244TIP3   OH252146   2.920   5.109  11.570 -1.1973 -0.0142  0.1482
10244TIP3    H152147   2.856   5.108  11.499 -1.1789 -2.5021  0.1248
10244TIP3    H252148   2.968   5.027  11.560  0.4484  0.7461  1.5744
10245TIP3   OH252149   0.667   1.767   1.615  0.3549 -0.2371 -0.1367
10245TIP3    H152150   0.581   1.770   1.572  0.5447  1.3237 -0.4602
10245TIP3    H252151   0.657   1.701   1.684 -0.9523 -0.4490 -0.5104
10246TIP3   OH252152   4.254   1.416   4.305 -0.2204  0.4395  0.2990
10246TIP3    H152153   4.252   1.322   4.288  1.1787  0.4245  0.1303
10246TIP3    H252154   4.212   1.456   4.229 -0.0495  0.0009 -0.0208
10247TIP3   OH252155   4.355   2.884   0.955  0.0619 -0.2142  0.4948
10247TIP3    H152156   4.281   2.941   0.936 -1.1151 -1.5289  1.1162
10247TIP3    H252157   4.409   2.888   0.875 -0.7813  0.5789 -0.0389
10248TIP3   OH252158   3.252   1.965  10.954 -0.2999  0.0146  0.3326
10248TIP3    H152159   3.312   1.968  10.880 -0.6166  0.1098  0.0782
10248TIP3    H252160   3.299   1.916  11.021 -0.1384 -0.3419 -0.0410
10249TIP3   OH252161   5.806   6.674   4.154 -0.2613  0.4084  0.5506
10249TIP3    H152162   5.745   6.660   4.227  1.4024  1.3323  2.1672
10249TIP3    H252163   5.756   6.725   4.091 -1.3834  0.5883  1.5595
10250TIP3   OH252164   6.760   2.495   5.415  0.7671  0.3886 -0.0032
10250TIP3    H152165   6.823   2.425   5.395  0.2347  0.4853 -2.1493
10250TIP3    H252166   6.804   2.575   5.385  1.0672  0.9052  1.7682
10251TIP3   OH252167   5.499   5.731  13.735 -0.8234 -0.2688 -0.4900
10251TIP3    H152168   5.436   5.659  13.734  0.6559 -1.6027  0.0236
10251TIP3    H252169   5.457   5.800  13.684 -3.0158 -0.8415  0.4656
10252TIP3   OH252170   6.213   0.270   4.063 -0.4118  0.7686 -0.2642
10252TIP3    H152171   6.256   0.188   4.038 -0.5475  1.6344 -3.5896
10252TIP3    H252172   6.131   0.243   4.105  0.5102 -0.7892  0.5840
10253TIP3   OH252173   3.612   2.997  15.503  0.0226  0.4411  0.3478
10253TIP3    H152174   3.591   2.961  15.588 -0.3939  1.0139  0.4866
10253TIP3    H252175   3.551   2.955  15.442  0.2769  0.0827  0.3359
10254TIP3   OH252176   6.113   2.906  13.762 -0.1654  0.2105  0.6127
10254TIP3    H152177   6.104   2.922  13.856 -1.9057  0.3468  0.4423
10254TIP3    H252178   6.080   2.985  13.721 -0.8835 -0.4595 -0.1278
10255TIP3   OH252179   3.932   3.180   3.580  0.0415  0.3076 -0.1256
10255TIP3    H152180   3.908   3.199   3.489 -1.0269  1.5550  0.3886
10255TIP3    H252181   3.999   3.245   3.601  0.4608 -0.1368 -0.1050
10256TIP3   OH252182   4.701   2.509  13.422 -0.1719  0.8369 -0.3599
10256TIP3    H152183   4.673   2.490  13.333  1.5256 -2.8837 -0.1781
10256TIP3    H252184   4.685   2.428  13.470  2.8488  1.3977  1.7072
10257TIP3   OH252185   0.284   6.052  13.834  0.1764 -0.4370 -0.6619
10257TIP3    H152186   0.348   6.091  13.894 -0.1952 -0.2226 -0.4085
10257TIP3    H252187   0.199   6.082  13.865  0.0597  0.8185 -2.1153
10258TIP3   OH252188   3.886   3.898   3.161  0.5864  0.5546 -0.1404
10258TIP3    H152189   3.904   3.961   3.231  0.1126 -0.5169  0.9702
10258TIP3    H252190   3.919   3.815   3.194  0.3503  0.0259 -1.1913
10259TIP3   OH252191   6.083   1.075  13.666  0.8797 -0.3559  0.1120
10259TIP3    H152192   6.099   1.015  13.593 -0.0175 -1.3091  0.6789
10259TIP3    H252193   6.078   1.018  13.743  1.3924  0.5914  0.8614
10260TIP3   OH252194   2.533   3.143   5.109  0.0072 -0.8212 -0.1094
10260TIP3    H152195   2.564   3.075   5.169 -0.1196 -1.0534 -0.3052
10260TIP3    H252196   2.473   3.196   5.163  1.2848  0.0567  0.4577
10261TIP3   OH252197   1.168   4.579   5.525 -0.2804 -0.6654  0.7695
10261TIP3    H152198   1.259   4.583   5.553 -0.2832 -0.5598  0.7623
10261TIP3    H252199   1.118   4.564   5.605 -0.2805 -0.4532  0.8097
10262TIP3   OH252200   3.487   1.569   1.829  0.1950 -0.3211 -1.2880
10262TIP3    H152201   3.450   1.503   1.770  2.0479 -0.8336 -1.8970
10262TIP3    H252202   3.524   1.519   1.901 -1.0436  0.2411 -0.2471
10263TIP3   OH252203   0.699   5.637  16.010  0.4042  0.7248  0.1947
10263TIP3    H152204   0.771   5.628  15.948 -0.4504  1.4842 -0.9349
10263TIP3    H252205   0.736   5.687  16.083  0.6870  2.3027 -0.9851
10264TIP3   OH252206   4.957   5.428   5.129 -0.2424 -0.1142  0.1648
10264TIP3    H152207   4.880   5.381   5.162 -0.8769 -0.2128 -1.4124
10264TIP3    H252208   4.982   5.380   5.051 -0.5155  1.7897 -1.1107
10265TIP3   OH252209   1.908   4.758  14.438 -0.4738  0.0034  0.1213
10265TIP3    H152210   1.833   4.782  14.383  0.3739 -1.0989 -1.5632
10265TIP3    H252211   1.910   4.824  14.507 -1.8350  1.1618 -0.9365
10266TIP3   OH252212   4.158   4.360  15.135 -0.0783 -0.2443  0.1899
10266TIP3    H152213   4.092   4.425  15.161 -1.2172  0.0344 -3.1647
10266TIP3    H252214   4.231   4.412  15.102  1.2899 -0.6056  2.4949
10267TIP3   OH252215   2.776   5.378  15.809 -0.3651 -0.8542 -0.0026
10267TIP3    H152216   2.740   5.388  15.897 -0.7845  4.0933 -0.5955
10267TIP3    H252217   2.865   5.411  15.815 -0.5628  0.0014 -1.5277
10268TIP3   OH252218   3.476   6.341  11.143 -0.1798  0.3415  0.2783
10268TIP3    H152219   3.445   6.417  11.093  0.4716  1.3603  1.3717
10268TIP3    H252220   3.505   6.378  11.227  1.4219 -0.9243  0.3234
10269TIP3   OH252221   3.520   4.914   1.145 -0.3608 -0.5871  0.0141
10269TIP3    H152222   3.498   5.003   1.117 -2.2496 -1.2131 -0.5482
10269TIP3    H252223   3.590   4.886   1.087 -1.2372 -0.2489 -1.2158
10270TIP3   OH252224   5.292   0.225   1.729  0.1950 -0.3648  0.7455
10270TIP3    H152225   5.281   0.319   1.741  0.1830 -0.2017 -0.4724
10270TIP3    H252226   5.370   0.203   1.780  1.3481  0.6579 -0.5333
10271TIP3   OH252227   3.894   2.235  14.013  0.2520  0.3694  0.0823
10271TIP3    H152228   3.826   2.293  14.046  0.4506  0.4689  0.3104
10271TIP3    H252229   3.940   2.204  14.091 -0.0342 -0.3192 -0.0165
10272TIP3   OH252230   0.062   6.304   1.863 -0.0939  0.2922 -0.3806
10272TIP3    H152231   0.016   6.289   1.946 -1.9509 -0.2395 -1.4721
10272TIP3    H252232   0.003   6.269   1.797  1.3435  0.7767 -1.9416
10273TIP3   OH252233   5.759   3.754  12.957  0.3369  0.9204  0.2019
10273TIP3    H152234   5.810   3.804  12.892  1.4111 -0.8559 -0.3544
10273TIP3    H252235   5.738   3.818  13.024 -0.5735  2.7627 -1.7699
10274TIP3   OH252236   0.757   5.526   1.286 -0.4343 -0.3636  0.0666
10274TIP3    H152237   0.744   5.498   1.376  0.4490  2.9488  1.2724
10274TIP3    H252238   0.701   5.603   1.276  1.8129  1.1514 -1.2572
10275TIP3   OH252239   3.029   3.680  13.924 -0.8832 -0.6058  0.1494
10275TIP3    H152240   3.113   3.668  13.968 -1.5298  0.1521  1.6647
10275TIP3    H252241   3.032   3.621  13.849  1.7169  0.7198 -0.8645
10276TIP3   OH252242   1.899   4.206  14.728 -0.3927  0.8387  0.3491
10276TIP3    H152243   1.895   4.118  14.691  0.1501  0.8123  0.3527
10276TIP3    H252244   1.919   4.262  14.653  1.3185  0.7160  0.6990
10277TIP3   OH252245   4.071   4.618  12.115 -0.1133  0.1248 -0.0941
10277TIP3    H152246   4.035   4.552  12.056  1.5358  0.4630 -1.5235
10277TIP3    H252247   4.166   4.612  12.102  0.3315 -0.3312  3.1223
10278TIP3   OH252248   4.216   1.918  10.960  0.7646  0.1496  0.3405
10278TIP3    H152249   4.121   1.928  10.953  0.8816  1.4926  0.5324
10278TIP3    H252250   4.251   1.966  10.884  1.3514  1.0209  1.1555
10279TIP3   OH252251   5.777   2.387   1.985 -0.2308  0.0578  0.3463
10279TIP3    H152252   5.744   2.448   1.920 -1.6429 -0.2865  0.7189
10279TIP3    H252253   5.872   2.386   1.971 -0.4056  0.7829 -0.9905
10280TIP3   OH252254   4.325   3.680  16.774  0.9973  0.1560 -0.6284
10280TIP3    H152255   4.384   3.741  16.732  0.3470  0.0716 -1.6734
10280TIP3    H252256   4.342   3.595  16.732  2.0525 -0.4407  0.9654
10281TIP3   OH252257   2.697   5.933   1.514 -0.3084  0.2631 -0.2418
10281TIP3    H152258   2.728   5.989   1.442 -0.3686  0.4357 -0.1319
10281TIP3    H252259   2.747   5.851   1.503 -0.5760  0.1619 -0.6892
10282TIP3   OH252260   0.335   2.283  15.623 -0.6791 -0.3610 -0.0803
10282TIP3    H152261   0.390   2.237  15.559 -0.5277  0.6597 -0.7157
10282TIP3    H252262   0.247   2.280  15.585 -0.6621 -0.1200 -0.1461
10283TIP3   OH252263   5.575   2.572   6.652  0.0322  0.7660 -0.1201
10283TIP3    H152264   5.578   2.622   6.570  1.7240 -1.1778 -1.2855
10283TIP3    H252265   5.664   2.581   6.688 -0.1626  0.0376  0.5483
10284TIP3   OH252266   5.786   3.630  16.932  0.2596  0.5081  0.2071
10284TIP3    H152267   5.702   3.631  16.979 -0.3992  0.2880 -0.9297
10284TIP3    H252268   5.848   3.594  16.995 -0.4407  0.9195  1.1603
10285TIP3   OH252269   3.216   3.857  13.188 -0.3033  0.1626  0.2891
10285TIP3    H152270   3.153   3.929  13.189  0.0064  0.4571 -1.1051
10285TIP3    H252271   3.228   3.836  13.096 -2.2312 -3.3336  0.7425
10286TIP3   OH252272   0.072   4.966   3.528  0.2391 -0.0217  0.1228
10286TIP3    H152273   0.079   4.933   3.439 -0.3567 -1.4228  0.5812
10286TIP3    H252274  -0.005   5.023   3.527 -1.4160 -2.1948  0.3754
10287TIP3   OH252275   4.607   4.727  17.223  0.2513  0.0836 -0.4245
10287TIP3    H152276   4.579   4.642  17.258  1.1564 -0.1729 -0.3195
10287TIP3    H252277   4.565   4.732  17.137 -1.8878  0.6554  0.6226
10288TIP3   OH252278   0.906   5.860  17.149  0.2429 -0.1451  0.6466
10288TIP3    H152279   0.931   5.918  17.077 -0.9589  0.7509  0.9420
10288TIP3    H252280   0.825   5.898  17.184 -0.6956 -2.1401  0.6887
10289TIP3   OH252281   3.348   6.097  15.295 -0.1241  0.2908 -0.1492
10289TIP3    H152282   3.328   6.071  15.205 -1.0792 -0.2841  0.2173
10289TIP3    H252283   3.428   6.050  15.317  0.2741  0.6602 -0.7902
10290TIP3   OH252284   1.740   0.929  11.167  0.3587 -0.2389  0.0369
10290TIP3    H152285   1.678   0.871  11.122  0.4593  0.3333 -0.8364
10290TIP3    H252286   1.807   0.948  11.101 -0.2646  1.7911 -0.0474
10291TIP3   OH252287   2.025   3.628  14.802  0.0097  0.4676  0.1891
10291TIP3    H152288   2.099   3.673  14.761 -0.8214  0.7456 -1.0413
10291TIP3    H252289   1.954   3.692  14.799 -0.4011  0.0515  0.9809
10292TIP3   OH252290   2.348   0.897  16.963 -0.3920 -0.6776 -0.0454
10292TIP3    H152291   2.442   0.895  16.944 -0.4190  1.1203 -0.4508
10292TIP3    H252292   2.309   0.837  16.900  0.5155 -1.6393  0.2988
10293TIP3   OH252293   0.048   0.132  11.520 -0.3927 -0.1570 -0.0691
10293TIP3    H152294   0.103   0.200  11.558  0.1209 -0.1439 -0.8229
10293TIP3    H252295  -0.041   0.165  11.528 -0.2994 -0.1669  1.1324
10294TIP3   OH252296   5.617   3.561   3.834 -0.8638  0.3211 -0.3618
10294TIP3    H152297   5.592   3.570   3.925 -0.3748 -0.4444 -0.1401
10294TIP3    H252298   5.544   3.597   3.784 -1.0505  0.9058  0.3339
10295TIP3   OH252299   0.222   6.112  14.457  1.1565 -0.1110 -0.0470
10295TIP3    H152300   0.273   6.105  14.538 -0.2958  0.2647  0.9188
10295TIP3    H252301   0.190   6.202  14.456 -2.8528 -1.4180  1.4501
10296TIP3   OH252302   3.432   0.452  16.669  0.2738  0.8581  0.1207
10296TIP3    H152303   3.501   0.518  16.679  0.3482  0.6800  0.7949
10296TIP3    H252304   3.476   0.368  16.684  0.1265  0.6716 -0.4795
10297TIP3   OH252305   1.860   3.133  12.132 -0.3887 -0.0286 -0.1885
10297TIP3    H152306   1.810   3.052  12.145 -1.5162  0.5847 -0.5896
10297TIP3    H252307   1.951   3.104  12.122 -0.8153 -1.2687 -0.5702
10298TIP3   OH252308   3.472   3.446   0.422 -0.0605 -0.2794  0.4919
10298TIP3    H152309   3.512   3.474   0.505  0.6825 -1.4326  0.5436
10298TIP3    H252310   3.470   3.526   0.368  2.6328 -0.2314  0.3871
10299TIP3   OH252311   2.837   0.151  16.400 -0.0623  0.5341  0.5127
10299TIP3    H152312   2.861   0.234  16.440  3.4933 -0.1578  0.0025
10299TIP3    H252313   2.892   0.145  16.321 -2.6626 -0.8011 -1.2824
10300TIP3   OH252314   1.511   4.953  13.035  0.2063 -0.1053 -0.8474
10300TIP3    H152315   1.458   5.008  12.978 -0.8132 -2.1927 -1.9949
10300TIP3    H252316   1.447   4.906  13.089  1.0807  0.2904  0.5538
10301TIP3   OH252317   4.593   4.736   4.154  0.0094  0.8005 -0.3171
10301TIP3    H152318   4.560   4.711   4.068 -2.2962 -2.0291  1.2833
10301TIP3    H252319   4.515   4.744   4.209  1.5531 -0.2885  2.1760
10302TIP3   OH252320   2.140   4.520  15.738  0.3656 -0.2873 -0.3407
10302TIP3    H152321   2.072   4.574  15.778 -0.8082 -2.2726  0.3922
10302TIP3    H252322   2.146   4.554  15.648 -1.0268  0.4419 -0.1870
10303TIP3   OH252323   6.367   2.425   5.670 -0.2764  0.9907 -0.2531
10303TIP3    H152324   6.386   2.419   5.763  1.8815 -0.5698 -0.7556
10303TIP3    H252325   6.400   2.511   5.644  0.7226  0.7297  0.1039
10304TIP3   OH252326   5.423   4.844  14.891 -0.9972  0.1851  0.1581
10304TIP3    H152327   5.342   4.849  14.840 -0.9179 -0.9801 -0.0833
10304TIP3    H252328   5.486   4.803  14.832 -0.6052 -0.1783  0.8271
10305TIP3   OH252329   0.335   3.374  14.736  0.0886 -0.2925  0.2138
10305TIP3    H152330   0.309   3.315  14.665  0.0648  0.7051 -0.6149
10305TIP3    H252331   0.266   3.365  14.801 -1.0263  0.4275 -0.8548
10306TIP3   OH252332   1.766   1.386   2.072 -0.0044 -0.3548 -0.3725
10306TIP3    H152333   1.775   1.294   2.098 -2.1464 -0.5651 -0.2339
10306TIP3    H252334   1.854   1.413   2.048  1.1391 -1.6509  2.1742
10307TIP3   OH252335   0.954   3.379  15.794 -0.4294 -0.0471 -0.1656
10307TIP3    H152336   1.046   3.400  15.811  0.6215 -3.0172 -1.9148
10307TIP3    H252337   0.914   3.376  15.881  1.3351  0.2963  0.6887
10308TIP3   OH252338   5.868   6.739  14.812  0.2114  0.2305 -0.3254
10308TIP3    H152339   5.818   6.754  14.731  3.1602 -0.7346 -2.4052
10308TIP3    H252340   5.959   6.744  14.784  1.2970  0.8737  3.1783
10309TIP3   OH252341   4.508   1.927  16.800 -0.5437  0.1648 -0.3676
10309TIP3    H152342   4.500   1.979  16.880  1.0930  0.4112 -0.3330
10309TIP3    H252343   4.463   1.977  16.733  0.5718  1.3794 -0.2206
10310TIP3   OH252344   6.644   6.759   5.328  0.6367  0.1791 -0.4467
10310TIP3    H152345   6.562   6.764   5.279 -1.2365  0.4783  2.5956
10310TIP3    H252346   6.682   6.847   5.321  0.3402  0.2423 -1.2712
10311TIP3   OH252347   1.187   3.163  13.402  0.3607  0.2883 -0.2347
10311TIP3    H152348   1.210   3.168  13.310  0.8714  1.9064 -0.0228
10311TIP3    H252349   1.254   3.106  13.441 -0.2716 -0.9853 -0.9786
10312TIP3   OH252350   0.509   5.426  16.939 -0.5588 -0.1119  0.3216
10312TIP3    H152351   0.432   5.381  16.904 -0.8414  0.7618 -0.2012
10312TIP3    H252352   0.499   5.517  16.909  0.6213  0.0281  0.3531
10313TIP3   OH252353   6.111   0.152   0.097 -0.0674 -0.6083 -0.3908
10313TIP3    H152354   6.160   0.070   0.094 -2.4492 -2.1276  0.6317
10313TIP3    H252355   6.110   0.177   0.189  0.5147  0.5185 -0.6785
10314TIP3   OH252356   6.485   2.204  12.372  0.4351  0.1501 -0.6893
10314TIP3    H152357   6.460   2.295  12.356 -0.4768 -0.1224 -0.8146
10314TIP3    H252358   6.532   2.206  12.456 -1.3751  0.4202  0.3338
10315TIP3   OH252359   5.745   5.515   0.359 -0.1239 -0.6413  0.3797
10315TIP3    H152360   5.669   5.525   0.303  0.6813  0.3774 -0.5384
10315TIP3    H252361   5.775   5.425   0.343  0.1104 -0.3483 -0.8264
10316TIP3   OH252362   4.607   2.704  14.893 -0.2231 -0.4060 -0.6977
10316TIP3    H152363   4.542   2.656  14.944  0.5446  0.2974  0.9950
10316TIP3    H252364   4.641   2.770  14.954  0.7897  0.3998 -2.1005
10317TIP3   OH252365   2.354   5.352   4.195  0.0849 -0.2887 -0.3885
10317TIP3    H152366   2.307   5.433   4.214 -0.8214 -1.2085  1.3406
10317TIP3    H252367   2.315   5.286   4.252  1.3191 -1.7975 -1.2168
10318TIP3   OH252368   4.164   6.338   1.261  0.7052 -0.3615  0.5505
10318TIP3    H152369   4.216   6.406   1.218  2.9132 -0.6278  2.7032
10318TIP3    H252370   4.111   6.385   1.325  1.1114 -0.4730  0.9771
10319TIP3   OH252371   0.103   4.339   1.550 -0.5300 -0.1979  0.3841
10319TIP3    H152372   0.180   4.286   1.570  0.5957  0.7430 -1.3611
10319TIP3    H252373   0.059   4.292   1.480 -1.7365 -0.8799  1.5661
10320TIP3   OH252374   5.831   0.331   3.540 -0.2523 -0.2377  0.0547
10320TIP3    H152375   5.912   0.293   3.507 -0.7034 -0.9503 -0.2622
10320TIP3    H252376   5.762   0.286   3.491 -0.7762  1.5234 -0.8454
10321TIP3   OH252377   3.566   3.608  14.590 -0.1409 -0.6092  0.0823
10321TIP3    H152378   3.522   3.594  14.506 -2.4993  0.5622  1.0668
10321TIP3    H252379   3.579   3.703  14.595 -0.8010 -0.5678  1.3956
10322TIP3   OH252380   5.255   5.741   1.432  0.1097  0.0535 -0.6076
10322TIP3    H152381   5.313   5.815   1.417  0.9554 -0.5019 -0.1059
10322TIP3    H252382   5.197   5.768   1.503 -0.3999  0.6868 -1.2536
10323TIP3   OH252383   0.063   5.301   2.478 -0.3640  0.3892  0.0101
10323TIP3    H152384  -0.020   5.345   2.498 -0.5382 -0.1271  0.4585
10323TIP3    H252385   0.037   5.222   2.430 -0.0407  0.8722 -0.9549
10324TIP3   OH252386   3.295   5.977  13.378  0.2472  0.0386  0.2440
10324TIP3    H152387   3.269   5.888  13.399  1.1490 -0.2165  0.2835
10324TIP3    H252388   3.301   6.021  13.462  0.6515 -0.1003  0.2882
10325TIP3   OH252389   4.001   0.617   0.518  0.1804  0.2278  0.1153
10325TIP3    H152390   3.907   0.621   0.539  0.0455 -0.9864 -0.2296
10325TIP3    H252391   4.003   0.594   0.425  0.8120  2.3894 -0.4387
10326TIP3   OH252392   2.672   3.899   3.359  0.3985 -0.6192 -0.2368
10326TIP3    H152393   2.583   3.872   3.337  0.7243 -2.4689  0.6057
10326TIP3    H252394   2.665   3.936   3.447  0.4009 -0.4601 -0.3041
10327TIP3   OH252395   3.396   2.595   6.205 -0.1855  0.4684  0.5789
10327TIP3    H152396   3.303   2.595   6.226  0.1829 -0.8381  2.3575
10327TIP3    H252397   3.437   2.552   6.280  1.8496  1.0315 -0.1825
10328TIP3   OH252398   6.561   5.219  14.280  0.5683 -0.2312 -0.1133
10328TIP3    H152399   6.610   5.146  14.243  0.6478  0.6197 -1.7032
10328TIP3    H252400   6.510   5.254  14.207 -0.5217  0.4478  0.9568
10329TIP3   OH252401   2.854   1.244  14.899  0.2469 -0.5935  0.0420
10329TIP3    H152402   2.775   1.230  14.952  0.2059 -0.7256 -0.0529
10329TIP3    H252403   2.888   1.156  14.883  2.6118 -0.3719  3.3644
10330TIP3   OH252404   3.754   5.718   2.762 -0.0807 -0.2491 -0.1548
10330TIP3    H152405   3.802   5.797   2.785 -0.5236  0.1582 -0.6357
10330TIP3    H252406   3.683   5.748   2.706 -0.2663 -0.9815 -0.3173
10331TIP3   OH252407   4.266   1.818   4.863  0.3639 -0.3103 -0.2393
10331TIP3    H152408   4.230   1.890   4.811  0.3857 -0.6427 -0.7192
10331TIP3    H252409   4.360   1.817   4.842  0.1211 -1.3968 -1.3668
10332TIP3   OH252410   2.784   4.703  16.229 -0.3021  0.1064  0.0464
10332TIP3    H152411   2.704   4.755  16.237 -0.2137  0.1060  0.9969
10332TIP3    H252412   2.820   4.700  16.318  0.2604 -0.6764 -0.1994
10333TIP3   OH252413   4.157   3.319  10.774 -0.0736 -0.3640  0.2963
10333TIP3    H152414   4.071   3.289  10.801  0.0132 -0.6979  0.2046
10333TIP3    H252415   4.216   3.248  10.799 -0.0886 -0.9827 -1.3967
10334TIP3   OH252416   5.623   3.382  14.484  0.0410  0.2364 -0.4147
10334TIP3    H152417   5.557   3.419  14.426 -1.2214  0.2392  0.9933
10334TIP3    H252418   5.651   3.455  14.538 -0.9266 -0.3835  0.9501
10335TIP3   OH252419   0.250   6.712   0.711  0.1005 -0.3355  0.6994
10335TIP3    H152420   0.196   6.637   0.736  1.6163 -1.6484  0.0897
10335TIP3    H252421   0.322   6.711   0.774  0.3433  0.3626  0.4305
10336TIP3   OH252422   2.525   2.444  16.310  0.4840  0.4547 -0.1396
10336TIP3    H152423   2.461   2.514  16.296  1.1425  1.0294 -0.3157
10336TIP3    H252424   2.476   2.376  16.355  0.1297  1.5058  1.1158
10337TIP3   OH252425   3.236   2.637   1.908 -0.1590  0.9367 -0.4090
10337TIP3    H152426   3.312   2.617   1.854  0.2764 -2.0886  1.2658
10337TIP3    H252427   3.161   2.621   1.850  0.3573 -0.8058 -0.6252
10338TIP3   OH252428   3.976   2.459   4.693 -0.4890 -0.3565 -0.1569
10338TIP3    H152429   4.012   2.372   4.675 -0.3775 -0.4214  0.3767
10338TIP3    H252430   4.042   2.502   4.746  0.2099  0.6812 -1.8447
10339TIP3   OH252431   1.942   3.939   2.786  0.2045  0.1809  0.2637
10339TIP3    H152432   2.019   3.967   2.834 -0.0938 -0.6141  1.2164
10339TIP3    H252433   1.868   3.959   2.844 -0.3813  1.5106 -0.8830
10340TIP3   OH252434   0.962   4.946   4.840  0.1572 -0.2165 -0.5491
10340TIP3    H152435   0.948   4.945   4.745 -0.6265  0.6610 -0.4466
10340TIP3    H252436   1.047   4.990   4.851 -0.6571  1.4423 -0.7445
10341TIP3   OH252437   2.666   0.303  16.617  0.1274 -0.3695 -0.4782
10341TIP3    H152438   2.677   0.335  16.528  2.7829  2.1362  0.6630
10341TIP3    H252439   2.720   0.225  16.622  0.3685 -0.2299 -0.9278
10342TIP3   OH252440   2.304   0.092   0.819 -0.2254 -0.1257 -0.3167
10342TIP3    H152441   2.274   0.053   0.737  1.2450 -0.8371 -0.5258
10342TIP3    H252442   2.287   0.186   0.808  0.7660 -0.1050 -1.7884
10343TIP3   OH252443   0.611   6.346  12.985 -0.1321 -0.0114 -0.0410
10343TIP3    H152444   0.654   6.374  12.904 -0.4381  0.0173 -0.1943
10343TIP3    H252445   0.597   6.252  12.974 -0.4994  0.0579 -0.1740
10344TIP3   OH252446   1.489   5.819  10.819  0.0362 -0.2064 -0.3682
10344TIP3    H152447   1.481   5.910  10.790 -0.3675 -0.5970 -1.4955
10344TIP3    H252448   1.497   5.769  10.738  0.9512 -1.1082  0.2699
10345TIP3   OH252449   2.475   4.829  16.530  0.3773  0.1067  0.8570
10345TIP3    H152450   2.410   4.766  16.560  0.2992  0.4781  1.4801
10345TIP3    H252451   2.558   4.797  16.566  0.5234 -0.2868  0.1822
10346TIP3   OH252452   0.917   4.718  12.971 -0.1034 -0.3055 -0.0048
10346TIP3    H152453   0.870   4.638  12.994  1.8576 -1.3112  0.5167
10346TIP3    H252454   0.871   4.750  12.893 -2.4343 -0.5841  1.1929
10347TIP3   OH252455   1.832   4.383   3.577  0.0087  0.0989  0.2110
10347TIP3    H152456   1.750   4.384   3.527  0.7349 -0.1869 -1.0268
10347TIP3    H252457   1.867   4.472   3.570  1.8059 -0.7441 -2.7527
10348TIP3   OH252458   5.388   1.788   3.739 -0.0289  0.0442  0.4231
10348TIP3    H152459   5.369   1.880   3.719  0.1796 -0.3921 -1.8974
10348TIP3    H252460   5.483   1.785   3.747  0.0119 -0.0719 -0.0863
10349TIP3   OH252461   1.632   1.717  11.478  0.4267  0.2487 -0.4175
10349TIP3    H152462   1.622   1.764  11.395  1.9075 -2.5570 -2.2399
10349TIP3    H252463   1.551   1.668  11.488 -0.0092  1.0608  0.1525
10350TIP3   OH252464   3.064   6.450   2.431 -0.3168  0.9528  0.4764
10350TIP3    H152465   2.975   6.431   2.401  0.0672  2.1162 -1.5235
10350TIP3    H252466   3.106   6.364   2.439 -1.0515  0.5065 -0.4293
10351TIP3   OH252467   3.522   2.579  10.781  0.2578 -0.1180  0.1321
10351TIP3    H152468   3.595   2.541  10.829  1.9702  2.5524 -0.3063
10351TIP3    H252469   3.465   2.616  10.849  0.5064 -0.1194  0.3432
10352TIP3   OH252470   1.670   2.414  12.176 -0.4069 -0.0736  0.3550
10352TIP3    H152471   1.751   2.441  12.219  0.0041  0.5854 -0.7966
10352TIP3    H252472   1.698   2.353  12.108 -1.0880 -1.4151  1.2678
10353TIP3   OH252473   2.637   2.707   1.321 -0.0231  0.2962  0.2710
10353TIP3    H152474   2.718   2.688   1.273  0.4213 -0.8201  1.4436
10353TIP3    H252475   2.585   2.758   1.259  1.4415  0.7684 -0.6088
10354TIP3   OH252476   0.213   1.685   6.349  0.6284  0.1994  0.1747
10354TIP3    H152477   0.249   1.754   6.293  0.5533 -0.1439 -0.2999
10354TIP3    H252478   0.120   1.708   6.357  0.0585 -1.1538 -1.9784
10355TIP3   OH252479   2.104   3.513   2.263 -0.2818 -0.0581  0.4833
10355TIP3    H152480   2.015   3.499   2.294  0.0400 -1.6369  0.7729
10355TIP3    H252481   2.159   3.468   2.327  0.6071 -0.4890 -0.5624
10356TIP3   OH252482   0.769   2.240  13.178  0.3945  0.4011 -0.1834
10356TIP3    H152483   0.792   2.304  13.111 -1.2311  0.9695 -0.2107
10356TIP3    H252484   0.853   2.203  13.206  1.2305  1.5747 -1.1174
10357TIP3   OH252485   2.142   0.296   1.505 -0.2069 -0.0950 -0.2183
10357TIP3    H152486   2.157   0.269   1.414 -0.1713 -0.8185 -0.0033
10357TIP3    H252487   2.060   0.345   1.502  0.3911  0.8800 -0.8267
10358TIP3   OH252488   2.452   3.503  14.670  0.1566 -0.2237 -0.1602
10358TIP3    H152489   2.448   3.417  14.628  0.7407 -0.6508  0.6444
10358TIP3    H252490   2.378   3.551  14.633 -1.3533 -1.7297  0.8228
10359TIP3   OH252491   0.800   6.747  13.246 -0.3964  0.2778 -0.0457
10359TIP3    H152492   0.722   6.800  13.263 -1.1136 -0.3123 -1.4198
10359TIP3    H252493   0.776   6.693  13.171  0.5972 -1.4561  0.8760
10360TIP3   OH252494   2.914   2.710   0.468  0.0043  0.3600  0.1010
10360TIP3    H152495   2.925   2.658   0.388  0.5364  0.4169  0.1352
10360TIP3    H252496   2.942   2.651   0.538 -0.2040  0.4024  0.2195
10361TIP3   OH252497   3.939   1.218   4.636 -0.5014  0.4593 -0.2154
10361TIP3    H152498   4.002   1.202   4.706 -1.0751 -0.0011  0.1990
10361TIP3    H252499   3.881   1.142   4.638  0.2274 -0.1770 -2.0140
10362TIP3   OH252500   3.078   0.969   4.726  0.2395  0.2966  0.2136
10362TIP3    H152501   3.089   1.062   4.706 -0.2682  0.1913 -0.6123
10362TIP3    H252502   2.995   0.945   4.684 -0.2975 -0.2184  1.5552
10363TIP3   OH252503   6.668   0.517   3.529 -0.2766  0.4570 -0.0089
10363TIP3    H152504   6.667   0.495   3.622  4.1777 -0.2374 -0.0472
10363TIP3    H252505   6.651   0.611   3.526  1.5953  0.8693  1.6845
10364TIP3   OH252506   6.611   4.700  13.479 -0.5173  0.5979  0.1000
10364TIP3    H152507   6.520   4.685  13.454 -0.4412 -2.1558  1.3544
10364TIP3    H252508   6.617   4.667  13.569  1.5421  1.4709  0.3092
10365TIP3   OH252509   3.216   6.679   1.834  0.1257  0.1909 -0.1527
10365TIP3    H152510   3.213   6.648   1.744 -0.1929 -0.4331  0.0749
10365TIP3    H252511   3.151   6.749   1.838 -0.7886 -0.6662 -0.0675
10366TIP3   OH252512   5.076   5.467   4.078  0.6790  0.2501  0.0777
10366TIP3    H152513   5.002   5.518   4.110  2.0058  1.4181  1.3482
10366TIP3    H252514   5.107   5.516   4.002  0.8910  0.3910  0.2574
10367TIP3   OH252515   0.851   3.257  16.912 -0.7390 -0.0804 -0.1601
10367TIP3    H152516   0.880   3.223  16.997  1.2705  1.6466 -0.1262
10367TIP3    H252517   0.786   3.323  16.934  0.2320  0.8088  0.0846
10368TIP3   OH252518   5.924   5.452  16.533  0.3427 -0.4411 -0.0656
10368TIP3    H152519   5.835   5.417  16.527  0.0774  0.1931  0.1398
10368TIP3    H252520   5.953   5.428  16.621 -0.2830  0.8898  0.5145
10369TIP3   OH252521   1.908   0.542  14.908 -0.1090 -0.3198 -0.6462
10369TIP3    H152522   1.843   0.483  14.947  0.2266  0.1692  0.7053
10369TIP3    H252523   1.861   0.586  14.837 -0.4656 -1.9149 -1.4259
10370TIP3   OH252524   5.465   6.777  14.386 -0.0014  0.2057  0.1066
10370TIP3    H152525   5.492   6.747  14.299 -1.0880  1.7297 -0.7737
10370TIP3    H252526   5.370   6.789  14.379 -0.0825  0.4540  1.4757
10371TIP3   OH252527   1.770   0.970  16.786 -0.1268 -0.5469  0.1170
10371TIP3    H152528   1.743   1.029  16.856 -0.1140  0.5975 -0.8169
10371TIP3    H252529   1.691   0.960  16.732  0.0522 -0.8590 -0.0861
10372TIP3   OH252530   1.625   2.278   3.220  0.1747 -0.2956 -0.2776
10372TIP3    H152531   1.720   2.287   3.210  0.5503 -2.0578  1.3642
10372TIP3    H252532   1.613   2.250   3.311 -1.9240 -0.2076 -0.4972
10373TIP3   OH252533   3.175   4.783  14.190 -0.3274 -0.0044 -0.0608
10373TIP3    H152534   3.100   4.839  14.169 -0.6513  0.6954  2.7790
10373TIP3    H252535   3.144   4.694  14.172 -1.9345  0.2619  1.2734
10374TIP3   OH252536   6.462   1.345  14.470  0.5187  0.3261 -0.0958
10374TIP3    H152537   6.439   1.257  14.500 -0.5488  0.5759 -0.1602
10374TIP3    H252538   6.395   1.367  14.405  0.7865  1.1795 -0.0948
10375TIP3   OH252539   4.797   1.723  12.384  0.4030  0.3511  0.5273
10375TIP3    H152540   4.845   1.770  12.452  1.9507  0.5960 -0.7203
10375TIP3    H252541   4.788   1.634  12.419 -0.1940  0.8637  1.7238
10376TIP3   OH252542   2.206   1.250  13.862  0.6453  0.2615 -0.1457
10376TIP3    H152543   2.177   1.160  13.850 -0.1660  0.3029  1.3188
10376TIP3    H252544   2.243   1.275  13.778  1.7201 -1.7501 -0.3129
10377TIP3   OH252545   5.539   5.579   1.407  0.0475 -0.4669  0.1542
10377TIP3    H152546   5.518   5.510   1.345  0.7775 -1.7566  1.3031
10377TIP3    H252547   5.457   5.626   1.420 -0.4917 -1.2082 -0.5332
10378TIP3   OH252548   5.682   6.268   1.489  0.2304 -0.2609 -0.0272
10378TIP3    H152549   5.716   6.186   1.453  0.1317  0.0186 -0.7814
10378TIP3    H252550   5.725   6.336   1.437 -0.2694  0.1356  0.0738
10379TIP3   OH252551   5.453   6.016  10.998 -0.1101 -0.1926 -0.5527
10379TIP3    H152552   5.410   5.956  11.059  0.5572  1.1190  1.2462
10379TIP3    H252553   5.418   6.102  11.021  2.4922  0.7296  0.1075
10380TIP3   OH252554   3.441   2.653  12.358  0.1866 -0.0636  0.2515
10380TIP3    H152555   3.373   2.637  12.424  0.2996  0.5930  0.5295
10380TIP3    H252556   3.440   2.575  12.303 -0.4008 -0.3038  0.6033
10381TIP3   OH252557   2.773   5.942  13.374 -0.0631 -0.0039  0.2621
10381TIP3    H152558   2.762   5.967  13.283 -1.2714 -1.9374 -0.1613
10381TIP3    H252559   2.687   5.906  13.399  1.1445 -2.2844  1.2318
10382TIP3   OH252560   3.880   3.187  15.354 -0.2419  0.1867 -0.0150
10382TIP3    H152561   3.808   3.229  15.400  0.0335  0.8421 -0.1697
10382TIP3    H252562   3.923   3.133  15.420 -0.5950  0.1612  0.1926
10383TIP3   OH252563   5.131   0.038  12.984  0.1916 -0.5000  0.5339
10383TIP3    H152564   5.161   0.127  12.966  0.3286 -0.7538 -0.5254
10383TIP3    H252565   5.176   0.013  13.064 -1.0790  0.9713  1.7558
10384TIP3   OH252566   2.953   1.927  16.807 -0.4508  0.2602 -0.1898
10384TIP3    H152567   3.000   2.006  16.835  2.0107 -1.0875 -0.3495
10384TIP3    H252568   2.861   1.946  16.824  0.1090  3.0996 -0.0826
10385TIP3   OH252569   4.451   3.587  15.549 -0.1886 -0.2975  0.1036
10385TIP3    H152570   4.517   3.518  15.541 -1.0680 -1.3443  1.6649
10385TIP3    H252571   4.430   3.590  15.642 -0.4137  1.8741  0.0104
10386TIP3   OH252572   4.961   0.841   0.939  0.1461  0.8761 -0.7596
10386TIP3    H152573   5.014   0.766   0.912 -1.5654 -0.7683  0.3616
10386TIP3    H252574   5.014   0.917   0.915  1.7810 -0.6691 -2.1824
10387TIP3   OH252575   4.579   0.805  16.800  0.1809 -0.0558  0.8862
10387TIP3    H152576   4.522   0.811  16.876 -1.7441  1.8491 -0.6418
10387TIP3    H252577   4.626   0.888  16.798 -1.7704  1.0666 -1.4538
10388TIP3   OH252578   3.487   5.911  16.103  0.6999  0.0719 -0.1091
10388TIP3    H152579   3.457   5.831  16.145  0.6011 -0.9041 -2.0079
10388TIP3    H252580   3.523   5.963  16.174  0.5041 -1.5345  1.1849
10389TIP3   OH252581   5.172   2.314  15.529 -0.1474  0.0134  0.2496
10389TIP3    H152582   5.091   2.266  15.546  0.8298 -0.9157  2.5089
10389TIP3    H252583   5.226   2.254  15.478 -1.3629  1.1519 -2.4922
10390TIP3   OH252584   1.746   2.901   1.209 -0.2155  0.5536 -0.5330
10390TIP3    H152585   1.755   2.949   1.127 -0.7258  0.2911 -0.7454
10390TIP3    H252586   1.797   2.821   1.197 -0.7179  0.2653 -0.7976
10391TIP3   OH252587   1.297   2.617   5.192  0.8298  0.1520  0.2493
10391TIP3    H152588   1.385   2.619   5.155  0.0079  2.1384 -1.7044
10391TIP3    H252589   1.296   2.688   5.256  0.5884  0.2700  0.1157
10392TIP3   OH252590   6.393   2.532  11.337 -0.2132 -0.0787 -0.0360
10392TIP3    H152591   6.446   2.602  11.377 -1.7718 -0.2527  2.4523
10392TIP3    H252592   6.431   2.451  11.372 -1.7957 -0.2232  1.3641
10393TIP3   OH252593   3.255   5.247   1.220 -0.6843 -0.3338  0.1351
10393TIP3    H152594   3.164   5.273   1.204  0.2237  1.9291 -1.7712
10393TIP3    H252595   3.282   5.301   1.294 -0.3359  0.3934 -0.5182
10394TIP3   OH252596   0.408   2.774   4.181  0.5770  0.7464  0.2393
10394TIP3    H152597   0.337   2.726   4.224  0.0052  1.1264 -0.2935
10394TIP3    H252598   0.487   2.723   4.203 -0.2039 -1.3609 -1.6477
10395TIP3   OH252599   6.772   3.113  10.930 -0.4001 -0.3053  0.4173
10395TIP3    H152600   6.698   3.169  10.953 -0.6823 -1.1193  1.5674
10395TIP3    H252601   6.733   3.030  10.906  0.0739 -0.3406 -0.2371
10396TIP3   OH252602   6.354   5.723  12.279 -0.3648 -0.1496  0.5207
10396TIP3    H152603   6.346   5.646  12.334 -1.3588  0.4263  1.2011
10396TIP3    H252604   6.264   5.744  12.252  0.0069  0.1114 -0.5760
10397TIP3   OH252605   1.872   1.502  15.471  0.7683 -0.1953  0.0814
10397TIP3    H152606   1.938   1.497  15.540  0.9301 -1.8717 -0.1695
10397TIP3    H252607   1.895   1.431  15.411  0.3370  0.9276 -1.4427
10398TIP3   OH252608   0.448   1.698   5.951  0.3297 -0.0795  0.0403
10398TIP3    H152609   0.441   1.603   5.948  1.1987 -0.1372 -0.3215
10398TIP3    H252610   0.536   1.717   5.918  0.2052  0.8409  0.2151
10399TIP3   OH252611   1.354   3.171   5.838  0.4343 -0.8718  0.0937
10399TIP3    H152612   1.323   3.247   5.790  0.9008  0.1821  1.4466
10399TIP3    H252613   1.352   3.100   5.773  0.4457  0.3680 -1.2986
10400TIP3   OH252614   5.917   2.435   4.714  0.0787 -0.4996 -0.1970
10400TIP3    H152615   5.878   2.411   4.629 -0.5681  0.1747 -0.0907
10400TIP3    H252616   5.923   2.352   4.761 -0.7251 -0.6929 -0.4221
10401TIP3   OH252617   6.401   4.326  16.863 -0.2818  0.2719 -0.4289
10401TIP3    H152618   6.321   4.283  16.833 -0.5429  1.0228 -0.8329
10401TIP3    H252619   6.466   4.256  16.865  0.2212  0.4790 -4.5715
10402TIP3   OH252620   2.184   0.096   0.545  0.3637 -0.2617  0.5420
10402TIP3    H152621   2.255   0.144   0.503  0.1479 -0.9627 -0.6155
10402TIP3    H252622   2.105   0.147   0.524  0.4281  0.1435  1.2604
10403TIP3   OH252623   0.640   3.011  16.570  0.2087 -0.1097  0.1643
10403TIP3    H152624   0.610   2.952  16.501  1.0584  1.2173 -1.3655
10403TIP3    H252625   0.560   3.036  16.616 -0.6354  0.5321 -1.5882
10404TIP3   OH252626   0.732   1.345  11.553 -0.0964  0.0347 -0.2542
10404TIP3    H152627   0.826   1.349  11.570 -0.2202 -2.6503  1.3826
10404TIP3    H252628   0.724   1.357  11.459  1.9722 -0.8483 -0.5723
10405TIP3   OH252629   0.291   1.382   4.993  0.2699  0.2858  0.0494
10405TIP3    H152630   0.197   1.399   4.984  0.1705 -0.3427 -0.1338
10405TIP3    H252631   0.325   1.389   4.904  0.4789  0.9836  0.1840
10406TIP3   OH252632   0.330   3.038  12.178 -0.0106  0.2606 -0.4241
10406TIP3    H152633   0.395   3.100  12.146 -0.9432  1.8390  0.6843
10406TIP3    H252634   0.252   3.054  12.125 -0.1218 -0.2666 -0.4232
10407TIP3   OH252635   0.537   4.861   1.224  0.1637 -0.3396  0.4228
10407TIP3    H152636   0.604   4.799   1.195 -2.6949 -3.5944  0.3401
10407TIP3    H252637   0.498   4.819   1.301 -2.0307  1.2442  0.2286
10408TIP3   OH252638   3.783   4.338  16.083 -0.2457 -0.6118  0.7319
10408TIP3    H152639   3.796   4.360  16.176  0.6409 -1.3032  0.7803
10408TIP3    H252640   3.854   4.384  16.038  0.7103 -2.1364  0.6660
10409TIP3   OH252641   6.383   4.905  11.044  0.0642  0.1140  0.3219
10409TIP3    H152642   6.472   4.874  11.054 -0.1156 -0.5717 -0.2001
10409TIP3    H252643   6.349   4.859  10.968 -0.5404  0.8246  0.1511
10410TIP3   OH252644   4.068   0.043  16.728 -0.1123  0.5019  0.3868
10410TIP3    H152645   4.126   0.096  16.783 -1.7492 -1.1784  3.9562
10410TIP3    H252646   3.982   0.084  16.738 -0.6277 -0.4443 -0.0793
10411TIP3   OH252647   5.422   6.668   1.125  0.9570  0.2132 -0.4548
10411TIP3    H152648   5.405   6.579   1.156 -0.7878  0.1821 -1.4754
10411TIP3    H252649   5.457   6.657   1.037  0.6387  0.5500 -0.6240
10412TIP3   OH252650   4.988   3.046  13.790  0.5801 -0.1460  0.1423
10412TIP3    H152651   5.036   3.093  13.721 -0.1988 -1.1121 -1.0880
10412TIP3    H252652   5.056   3.011  13.847  1.1728  3.5522  1.8747
10413TIP3   OH252653   5.675   3.683   1.572 -0.5674 -0.4612 -0.0021
10413TIP3    H152654   5.581   3.671   1.584 -0.3783 -0.1397  2.0162
10413TIP3    H252655   5.715   3.607   1.614  0.1668  1.0587  2.1516
10414TIP3   OH252656   6.068   5.194   3.924 -0.9907  0.0743  0.0580
10414TIP3    H152657   6.002   5.195   3.993 -0.9853  0.8047  0.0654
10414TIP3    H252658   6.135   5.133   3.955 -1.9917 -1.2080 -0.2720
10415TIP3   OH252659   4.074   6.440  13.255  0.0871  0.0593  0.1060
10415TIP3    H152660   4.000   6.501  13.260 -0.3818 -0.5416  0.7685
10415TIP3    H252661   4.054   6.374  13.322  0.8699 -0.4996 -0.2065
10416TIP3   OH252662   4.823   0.302   4.558  0.1836  0.2707 -0.2860
10416TIP3    H152663   4.836   0.346   4.474 -0.6146 -0.3369 -0.7269
10416TIP3    H252664   4.871   0.220   4.549  0.5830  0.4635  0.0661
10417TIP3   OH252665   4.463   0.297   1.636 -0.2134 -0.0284  0.0563
10417TIP3    H152666   4.390   0.258   1.588 -0.5014 -0.6693  1.0012
10417TIP3    H252667   4.524   0.324   1.568 -1.3731  0.6086 -0.7555
10418TIP3   OH252668   5.040   4.831   1.395 -0.0134 -0.2827 -0.2219
10418TIP3    H152669   5.029   4.814   1.302 -0.6356  2.4009 -0.6819
10418TIP3    H252670   4.952   4.829   1.431  0.1121 -0.1986  0.0981
10419TIP3   OH252671   5.421   3.271  16.358 -0.6432 -0.3397  0.3344
10419TIP3    H152672   5.376   3.227  16.286 -0.9355 -0.2680  0.4727
10419TIP3    H252673   5.505   3.226  16.365 -0.9592 -0.9055  0.5015
10420TIP3   OH252674   1.821   3.383   2.771  0.0398 -0.4155  0.5620
10420TIP3    H152675   1.742   3.408   2.723  0.0683 -2.7873 -0.7671
10420TIP3    H252676   1.893   3.408   2.713  0.1981 -0.3148  0.8000
10421TIP3   OH252677   6.456   2.508  14.212 -0.4671 -0.3122  0.2497
10421TIP3    H152678   6.471   2.423  14.254  1.3894 -0.4444 -0.6392
10421TIP3    H252679   6.457   2.489  14.118  2.2069  0.9983 -0.0200
10422TIP3   OH252680   5.412   0.272   4.705  0.3206 -0.2784 -0.5581
10422TIP3    H152681   5.339   0.307   4.757 -0.0901 -0.5073 -0.9818
10422TIP3    H252682   5.482   0.260   4.769 -0.1182 -0.3727 -0.0846
10423TIP3   OH252683   3.067   3.999  11.402 -0.1432 -0.5658  0.6033
10423TIP3    H152684   3.120   3.967  11.329  2.2788 -1.7172  2.7760
10423TIP3    H252685   2.977   3.984  11.375  0.6854 -0.6609 -2.2712
10424TIP3   OH252686   6.471   6.639   5.122 -0.8319 -0.2054  0.2916
10424TIP3    H152687   6.536   6.574   5.097 -0.2129  0.5387 -0.0533
10424TIP3    H252688   6.441   6.676   5.038 -0.3727  0.7300  0.5310
10425TIP3   OH252689   4.656   4.817  10.982 -0.0466 -0.0140 -0.1144
10425TIP3    H152690   4.608   4.754  10.928  0.6198 -0.6812  0.0618
10425TIP3    H252691   4.590   4.881  11.008 -0.8624 -0.9412  0.1482
10426TIP3   OH252692   0.991   6.299   0.776  0.0245 -0.0285 -0.4659
10426TIP3    H152693   0.915   6.288   0.834  0.1105 -1.2377 -0.5776
10426TIP3    H252694   0.996   6.394   0.762  0.4434  0.3668  2.1210
10427TIP3   OH252695   2.382   2.248   5.077  0.2809 -0.2989  0.0082
10427TIP3    H152696   2.306   2.261   5.134 -0.3839 -2.3901 -0.3549
10427TIP3    H252697   2.344   2.225   4.992  1.3026 -1.0047 -0.2679
10428TIP3   OH252698   1.960   5.739   3.604 -0.3745  0.1831 -0.0754
10428TIP3    H152699   2.024   5.808   3.584 -1.3041  0.1252 -3.5109
10428TIP3    H252700   2.013   5.659   3.611  0.1195  0.4140 -1.1528
10429TIP3   OH252701   3.372   6.214  16.436  0.6592 -0.3075 -0.4609
10429TIP3    H152702   3.443   6.163  16.397  2.4384  1.1402  0.7882
10429TIP3    H252703   3.347   6.275  16.367  1.0400 -0.4185 -0.7041
10430TIP3   OH252704   2.556   3.998  13.557  0.4550 -0.0000  0.0859
10430TIP3    H152705   2.518   3.944  13.488 -2.2811 -1.0461  2.3223
10430TIP3    H252706   2.501   4.077  13.558  1.7096  0.8968 -0.2160
10431TIP3   OH252707   3.100   3.995   1.883  0.4410 -0.7397 -0.3699
10431TIP3    H152708   3.011   4.023   1.861  0.5381 -0.3579 -0.2798
10431TIP3    H252709   3.131   3.950   1.804 -0.3155 -2.0494  0.0739
10432TIP3   OH252710   1.863   5.628   2.674 -0.0156 -0.8001 -0.3250
10432TIP3    H152711   1.906   5.704   2.634 -1.8072  0.1965 -0.4661
10432TIP3    H252712   1.898   5.624   2.762 -0.4492  0.6994 -0.0587
10433TIP3   OH252713   1.972   1.773  14.524 -0.6637  0.0986  0.6309
10433TIP3    H152714   2.052   1.809  14.486 -0.9838  1.9497  1.6505
10433TIP3    H252715   1.925   1.849  14.557 -3.3141 -0.8631 -0.8024
10434TIP3   OH252716   3.828   5.721  11.430  0.4382  0.0239  0.1252
10434TIP3    H152717   3.916   5.734  11.396  0.6685 -1.0247  0.3200
10434TIP3    H252718   3.835   5.747  11.522  0.3211  0.8062 -0.0805
10435TIP3   OH252719   0.257   4.425   3.600  0.0434  0.0811 -0.3804
10435TIP3    H152720   0.190   4.471   3.550 -0.1330  1.1875  0.8366
10435TIP3    H252721   0.212   4.396   3.680  0.5454 -0.8483 -0.4272
10436TIP3   OH252722   4.083   2.533  13.014 -0.0928 -0.2711  0.4771
10436TIP3    H152723   3.997   2.515  12.976  1.1576 -2.3565 -1.4850
10436TIP3    H252724   4.129   2.584  12.946  0.3987  0.4228  1.3200
10437TIP3   OH252725   1.672   1.696  12.825  0.6209 -0.3047 -0.6204
10437TIP3    H152726   1.706   1.644  12.752  0.3203  0.5366 -1.3722
10437TIP3    H252727   1.602   1.642  12.862  0.2847 -0.4325 -1.4191
10438TIP3   OH252728   2.967   3.358   3.924  0.1078 -0.9099 -0.1079
10438TIP3    H152729   2.959   3.283   3.864  4.0721  1.3546 -3.8186
10438TIP3    H252730   3.045   3.338   3.976 -0.0019 -0.2811  0.2884
10439TIP3   OH252731   4.867   5.626  11.061 -0.1847  0.1656  0.2214
10439TIP3    H152732   4.776   5.613  11.085 -0.1534  0.8203  0.7363
10439TIP3    H252733   4.894   5.704  11.111  0.3081  0.6859 -0.8308
10440TIP3   OH252734   5.900   0.264   0.895  0.0731 -0.8037 -0.5912
10440TIP3    H152735   5.857   0.280   0.811  3.2124 -0.8963 -2.3163
10440TIP3    H252736   5.955   0.187   0.879  0.8644 -0.6908  1.4878
10441TIP3   OH252737   0.192   5.664   2.730  0.0161 -0.4159  0.4966
10441TIP3    H152738   0.117   5.718   2.751  0.8643  1.5668 -1.4755
10441TIP3    H252739   0.222   5.631   2.815 -0.5273  2.1909  1.7255
10442TIP3   OH252740   1.027   1.089   0.727 -0.0103  0.3755  0.4213
10442TIP3    H152741   1.113   1.117   0.695  0.1765  1.0070  1.4748
10442TIP3    H252742   0.993   1.033   0.657  1.8052 -0.9309  0.5696
10443TIP3   OH252743   6.315   4.695   3.021  0.0601  0.0107 -0.7113
10443TIP3    H152744   6.391   4.752   3.005  0.5440 -0.6408 -0.7674
10443TIP3    H252745   6.257   4.748   3.075  0.0313  0.9336 -1.6226
10444TIP3   OH252746   3.777   1.490   4.311 -0.1372 -0.6099 -0.0971
10444TIP3    H152747   3.804   1.433   4.383  1.6218  2.0772  1.4251
10444TIP3    H252748   3.705   1.542   4.347  1.6123  1.6713  0.2012
10445TIP3   OH252749   3.025   2.448   3.890  0.2045 -0.1110  0.5601
10445TIP3    H152750   3.095   2.457   3.826  0.4944  0.5794  0.9643
10445TIP3    H252751   3.033   2.358   3.922 -0.4550 -0.7267 -0.9465
10446TIP3   OH252752   5.254   0.853  16.528 -0.3331  0.1331 -0.3897
10446TIP3    H152753   5.319   0.786  16.507  0.0628  0.9481 -1.8310
10446TIP3    H252754   5.301   0.916  16.582 -0.5268 -0.4000  0.4061
10447TIP3   OH252755   4.399   0.716  12.028 -0.0146  0.2077 -0.3525
10447TIP3    H152756   4.374   0.757  12.111 -0.1981 -1.8491  0.6536
10447TIP3    H252757   4.318   0.716  11.976 -0.8349 -1.6825  0.8677
10448TIP3   OH252758   6.317   0.503   3.464 -0.2705 -0.4694  0.0079
10448TIP3    H152759   6.380   0.431   3.459  2.8779  2.0341  1.3277
10448TIP3    H252760   6.290   0.505   3.556 -0.4392 -0.0391 -0.0499
10449TIP3   OH252761   3.815   1.060   2.985  0.2521  0.1840 -0.0829
10449TIP3    H152762   3.901   1.058   3.025  0.9244 -0.0151 -1.5038
10449TIP3    H252763   3.767   1.127   3.033  0.2071 -1.7230  2.6762
10450TIP3   OH252764   5.784   3.157   2.308 -0.2584  0.1009 -0.3652
10450TIP3    H152765   5.767   3.208   2.229 -0.4930  0.3314 -0.1724
10450TIP3    H252766   5.862   3.106   2.289  0.8286  1.5978 -0.0706
10451TIP3   OH252767   1.063   3.249   1.939 -0.1339 -0.4394  0.2522
10451TIP3    H152768   1.079   3.172   1.993  0.1568 -0.5782 -0.0384
10451TIP3    H252769   1.120   3.239   1.863 -1.0114 -0.5520 -0.3963
10452TIP3   OH252770   3.515   5.157  15.762 -0.1720 -0.0722 -0.5560
10452TIP3    H152771   3.425   5.185  15.744 -0.6730 -1.1860  0.1427
10452TIP3    H252772   3.556   5.151  15.676 -1.6551 -2.4688 -1.1760
10453TIP3   OH252773   2.135   2.395   1.397 -0.0489  0.6579  0.0477
10453TIP3    H152774   2.096   2.341   1.466  1.5874  2.2068  2.2323
10453TIP3    H252775   2.081   2.474   1.394 -1.3592 -0.2609 -1.9214
10454TIP3   OH252776   0.699   4.299   4.945 -0.3131  0.3596  0.2245
10454TIP3    H152777   0.648   4.218   4.942  1.1115 -0.6050  1.6889
10454TIP3    H252778   0.770   4.285   4.882 -1.1283  1.2295 -0.9137
10455TIP3   OH252779   4.703   2.573  11.600 -0.1639 -0.1729  0.3549
10455TIP3    H152780   4.673   2.494  11.556  0.9831 -0.1418 -0.5193
10455TIP3    H252781   4.626   2.605  11.647 -0.8806 -1.2996 -0.0203
10456TIP3   OH252782   4.435   4.034  15.328  0.2189  0.3168 -0.0242
10456TIP3    H152783   4.368   4.100  15.346 -0.2044 -0.2065  0.3451
10456TIP3    H252784   4.515   4.069  15.367  0.4516  1.5367 -1.5956
10457TIP3   OH252785   0.248   2.905  10.546  0.3362 -0.3306  0.1755
10457TIP3    H152786   0.216   2.830  10.597  1.0600 -0.0301  1.0852
10457TIP3    H252787   0.282   2.966  10.612  0.1753  0.5941 -0.5934
10458TIP3   OH252788   3.623   2.336  14.034 -0.3170  0.5682 -0.0247
10458TIP3    H152789   3.527   2.333  14.028 -0.3211  0.1112  0.2323
10458TIP3    H252790   3.653   2.303  13.949 -0.3910 -0.7409  0.4355
10459TIP3   OH252791   0.185   2.777  11.748  0.1087  0.2985 -0.0616
10459TIP3    H152792   0.248   2.713  11.715  0.9104  0.4361  1.1603
10459TIP3    H252793   0.166   2.833  11.673  3.1464  1.6043  0.0723
10460TIP3   OH252794   5.331   4.215  10.719  0.1568  0.3984 -0.0118
10460TIP3    H152795   5.362   4.138  10.670  1.5378  2.5753 -2.6859
10460TIP3    H252796   5.257   4.248  10.668 -0.1488  1.1047  0.8737
10461TIP3   OH252797   5.940   1.913  13.498  0.4146 -0.4621 -0.9215
10461TIP3    H152798   5.935   1.865  13.580 -0.5273 -1.3105 -1.4577
10461TIP3    H252799   6.028   1.897  13.465  0.7030 -0.3353 -0.2125
10462TIP3   OH252800   3.072   3.556   1.177  0.4685  0.1122  0.1172
10462TIP3    H152801   3.146   3.599   1.135  1.2313 -2.0029 -0.7545
10462TIP3    H252802   3.095   3.463   1.178 -2.2538 -0.5975 -0.3424
10463TIP3   OH252803   5.455   3.569   2.724  0.5811 -0.1212 -0.1784
10463TIP3    H152804   5.428   3.647   2.676  2.0871  0.3533 -0.2843
10463TIP3    H252805   5.467   3.502   2.656 -1.2714 -0.6211 -0.0285
10464TIP3   OH252806   0.285   4.500   2.593  0.7198 -0.8513 -0.3238
10464TIP3    H152807   0.284   4.596   2.595  1.8579 -0.7624 -2.5178
10464TIP3    H252808   0.377   4.477   2.598  0.3565 -1.9258  1.9358
10465TIP3   OH252809   2.321   6.517   1.406 -0.3467  0.1556  0.5179
10465TIP3    H152810   2.242   6.472   1.436  0.2728  0.2042  2.3118
10465TIP3    H252811   2.378   6.447   1.375 -0.6539  0.0159  0.2613
10466TIP3   OH252812   4.535   5.218   5.497  0.5604 -0.2556  0.1598
10466TIP3    H152813   4.586   5.137   5.500  1.0142  0.0321  0.1790
10466TIP3    H252814   4.445   5.190   5.516  0.9122 -0.5882  1.3596
10467TIP3   OH252815   5.381   4.104  11.311  0.5471 -0.2600 -0.2056
10467TIP3    H152816   5.333   4.118  11.230  0.2397  1.2658  0.2102
10467TIP3    H252817   5.406   4.012  11.309  1.9504  0.1184 -2.7947
10468TIP3   OH252818   0.792   5.594  13.257  0.0716  0.0372 -0.1646
10468TIP3    H152819   0.842   5.583  13.338  0.0327  0.1085 -0.1307
10468TIP3    H252820   0.814   5.682  13.227  0.1756 -0.0324 -0.2926
10469TIP3   OH252821   1.529   2.693   2.477  0.2883  0.3406 -0.2397
10469TIP3    H152822   1.439   2.719   2.496  0.3171  0.2493  0.0187
10469TIP3    H252823   1.522   2.601   2.450  0.4355  0.0058  0.8445
10470TIP3   OH252824   0.160   5.138  13.222 -0.8909 -0.1511 -0.1071
10470TIP3    H152825   0.171   5.233  13.215 -0.3562 -0.2844 -1.2760
10470TIP3    H252826   0.079   5.120  13.173 -0.1720 -0.4542 -1.2207
10471TIP3   OH252827   2.467   4.461   2.383 -0.0721  1.0897 -0.0353
10471TIP3    H152828   2.492   4.379   2.342 -2.1495  0.1657  0.4977
10471TIP3    H252829   2.541   4.484   2.439  0.9918  0.1824 -1.0547
10472TIP3   OH252830   5.324   4.137  12.536 -0.0093 -0.1709 -0.2053
10472TIP3    H152831   5.300   4.228  12.555 -0.6398 -0.6056  1.1615
10472TIP3    H252832   5.365   4.141  12.450  1.3097  1.6258  0.4708
10473TIP3   OH252833   3.656   4.286   3.688  0.1648  0.3558  0.3101
10473TIP3    H152834   3.701   4.251   3.611 -0.6448 -0.4931  0.2077
10473TIP3    H252835   3.722   4.339   3.733  0.5773  1.0556 -1.0892
10474TIP3   OH252836   0.962   3.108   3.969 -0.3780  0.1229  0.2486
10474TIP3    H152837   0.981   3.044   4.038  1.6771 -0.2452 -0.6234
10474TIP3    H252838   1.039   3.164   3.967  0.7212 -1.3450 -3.3452
10475TIP3   OH252839   1.542   6.382  17.107  0.4430 -0.3127  0.3853
10475TIP3    H152840   1.605   6.451  17.088 -0.0789 -0.1732 -0.9082
10475TIP3    H252841   1.509   6.403  17.194  0.5015  0.9030  0.1240
10476TIP3   OH252842   2.793   3.519  11.312 -0.0797  0.2117 -0.0740
10476TIP3    H152843   2.780   3.443  11.370  0.0513 -1.5620 -2.3094
10476TIP3    H252844   2.887   3.537  11.318 -0.0888  0.1267  0.3728
10477TIP3   OH252845   2.093   2.490  11.009 -0.1664  0.5307 -0.5932
10477TIP3    H152846   2.114   2.478  10.916  2.4226  0.2050  0.0088
10477TIP3    H252847   2.178   2.494  11.052 -1.3496 -1.5087  2.0384
10478TIP3   OH252848   4.991   3.518   1.501 -0.4222 -0.4770  0.0602
10478TIP3    H152849   4.984   3.479   1.414 -0.2612 -2.9696  1.1321
10478TIP3    H252850   5.074   3.485   1.536 -1.0153 -0.3804  1.5976
10479TIP3   OH252851   6.159   3.376   0.873  0.1289  0.0456 -0.2521
10479TIP3    H152852   6.191   3.294   0.835 -0.1178  0.7628 -2.0258
10479TIP3    H252853   6.220   3.394   0.945 -1.0142 -2.7665  1.5373
10480TIP3   OH252854   3.511   5.342  11.735  0.0709  0.0335  0.0781
10480TIP3    H152855   3.503   5.426  11.780  0.7687 -0.1741  0.6116
10480TIP3    H252856   3.423   5.304  11.740 -0.0123  0.2938  0.7168
10481TIP3   OH252857   3.242   5.161  15.655 -0.1832 -0.1115  0.4538
10481TIP3    H152858   3.189   5.137  15.732 -0.6247  0.3478  0.2993
10481TIP3    H252859   3.242   5.083  15.600  1.8204 -1.1350  1.8510
10482TIP3   OH252860   1.905   6.164   3.566  0.2163  0.3944  0.3822
10482TIP3    H152861   1.854   6.210   3.499 -0.2354  0.1759  0.5801
10482TIP3    H252862   1.971   6.228   3.592 -0.9999  1.2896  1.3371
10483TIP3   OH252863   2.588   5.334  12.416 -0.1866 -0.1668  0.2021
10483TIP3    H152864   2.612   5.244  12.437 -0.0698 -0.2755 -0.3905
10483TIP3    H252865   2.538   5.364  12.491 -1.6972 -1.3019 -0.3309
10484TIP3   OH252866   3.137   0.278   2.595 -0.1869 -0.5110 -0.5021
10484TIP3    H152867   3.210   0.218   2.611  1.4920  1.8941  1.4858
10484TIP3    H252868   3.072   0.256   2.662  0.8407  0.4162  0.8533
10485TIP3   OH252869   5.854   1.148  16.284 -0.7742  0.6077  0.0980
10485TIP3    H152870   5.863   1.205  16.207 -0.7534  0.0816 -0.2848
10485TIP3    H252871   5.858   1.209  16.359  0.1262  1.0206 -0.2790
10486TIP3   OH252872   6.350   3.511   4.718 -0.0863 -0.4376  0.5147
10486TIP3    H152873   6.442   3.485   4.727  0.3216  1.1498  1.1183
10486TIP3    H252874   6.312   3.444   4.662  2.0052  0.1423 -1.7308
10487TIP3   OH252875   2.746   2.295  12.861 -0.4988  0.3158 -0.2281
10487TIP3    H152876   2.762   2.322  12.770 -1.0942  0.0882 -0.4085
10487TIP3    H252877   2.829   2.308  12.905 -0.1346  0.2041 -0.8692
10488TIP3   OH252878   3.856   0.955  12.168 -0.5878  0.2570 -0.5407
10488TIP3    H152879   3.949   0.936  12.155 -0.9734 -0.8400 -1.8570
10488TIP3    H252880   3.853   1.046  12.196  0.9520 -0.0174  0.5398
10489TIP3   OH252881   3.356   1.352   0.206  0.0832  0.0443  0.3129
10489TIP3    H152882   3.409   1.274   0.224  0.4167 -0.2533 -1.8039
10489TIP3    H252883   3.420   1.419   0.183 -0.2956  0.4466  0.4375
10490TIP3   OH252884   6.169   6.026   1.662 -0.1154  0.1774 -0.1674
10490TIP3    H152885   6.186   5.945   1.615 -1.7649  0.7193 -1.7808
10490TIP3    H252886   6.079   6.049   1.638  0.0579  2.0738  0.8730
10491TIP3   OH252887   0.393   4.381  10.628 -0.0614  0.1721 -0.3744
10491TIP3    H152888   0.423   4.470  10.612 -0.4660  0.5897  1.1372
10491TIP3    H252889   0.461   4.325  10.590  1.0163  1.1129  0.1692
10492TIP3   OH252890   6.381   6.513   3.120  0.5556 -0.1407  0.4400
10492TIP3    H152891   6.462   6.477   3.156  1.3068  0.3305 -0.7459
10492TIP3    H252892   6.395   6.512   3.025 -0.7393  0.1510  0.2470
10493TIP3   OH252893   5.404   0.911  13.024 -0.0829  0.4953 -0.0158
10493TIP3    H152894   5.340   0.848  13.057  1.5230 -1.4095 -0.4874
10493TIP3    H252895   5.462   0.927  13.098 -0.8350  1.9063  0.2879
10494TIP3   OH252896   4.335   1.332   1.282  0.6367 -0.1245  0.0786
10494TIP3    H152897   4.384   1.387   1.220  2.8361 -0.2521  1.6713
10494TIP3    H252898   4.289   1.270   1.226 -0.2282  1.9657 -1.6381
10495TIP3   OH252899   0.360   2.880   4.495 -0.1688  0.0302  0.4589
10495TIP3    H152900   0.319   2.910   4.414  2.2213 -0.0249 -0.8239
10495TIP3    H252901   0.373   2.959   4.546  1.5705  0.5809 -0.7815
10496TIP3   OH252902   3.490   5.946  12.248 -0.6902  0.1738 -0.2347
10496TIP3    H152903   3.455   5.866  12.288 -0.4505 -0.0246 -0.4237
10496TIP3    H252904   3.505   6.005  12.322  0.5906 -0.5125  0.0585
10497TIP3   OH252905   2.370   0.142   3.421  0.5083 -0.3219  0.2344
10497TIP3    H152906   2.418   0.146   3.504 -0.5518 -0.3959  0.8570
10497TIP3    H252907   2.280   0.121   3.446 -0.3222  1.9502 -0.7697
10498TIP3   OH252908   0.062   0.534   2.266  0.3149 -0.4604 -0.4217
10498TIP3    H152909   0.080   0.525   2.173  0.9828  2.0393 -0.5546
10498TIP3    H252910  -0.020   0.583   2.272 -0.8208 -2.3800  0.3142
10499TIP3   OH252911   5.273   4.316   0.628 -0.4527  0.5354 -0.1445
10499TIP3    H152912   5.216   4.331   0.704 -2.6396 -0.3311 -1.5423
10499TIP3    H252913   5.289   4.403   0.592 -1.4194  0.7577 -0.0666
10500TIP3   OH252914   3.663   6.775   0.700 -0.9001 -0.4451 -0.7927
10500TIP3    H152915   3.665   6.740   0.789 -3.7761  1.7340  0.2081
10500TIP3    H252916   3.746   6.822   0.691 -1.7814  1.7648  1.8532
10501TIP3   OH252917   1.143   0.985   2.779  0.0813  0.0301  0.2367
10501TIP3    H152918   1.062   0.941   2.805  0.0480 -0.3035 -0.4209
10501TIP3    H252919   1.205   0.964   2.848 -0.6657  1.0854  1.2358
10502TIP3   OH252920   4.490   1.755   0.202 -0.4268  0.2234 -0.3320
10502TIP3    H152921   4.402   1.791   0.210 -0.1316  0.3722  3.0634
10502TIP3    H252922   4.485   1.670   0.245  0.9189 -0.1200 -0.8348
10503TIP3   OH252923   4.641   4.393   3.723  0.5995 -0.1494 -0.4357
10503TIP3    H152924   4.693   4.368   3.800  0.5441  1.0103 -0.0162
10503TIP3    H252925   4.685   4.469   3.687 -0.5073  0.5345 -0.3779
10504TIP3   OH252926   1.067   2.551   5.426 -0.1328  0.0040  0.1191
10504TIP3    H152927   1.151   2.555   5.381  0.5077 -2.6149  0.9957
10504TIP3    H252928   1.009   2.608   5.375  2.2257  2.0655 -0.3114
10505TIP3   OH252929   3.509   0.109  16.096  0.2521  0.0306 -0.0484
10505TIP3    H152930   3.594   0.069  16.079 -0.1095  0.1719 -2.3366
10505TIP3    H252931   3.478   0.068  16.177  0.3063 -3.6128 -1.8170
10506TIP3   OH252932   3.144   0.342  14.837  0.4061 -0.4136 -0.6865
10506TIP3    H152933   3.181   0.284  14.904 -0.1832 -0.2528 -0.2230
10506TIP3    H252934   3.111   0.282  14.770  0.1613 -0.6046 -0.3972
10507TIP3   OH252935   2.146   6.454   2.006 -0.3275 -0.0397 -0.4095
10507TIP3    H152936   2.170   6.519   2.071 -1.3687 -0.8433  0.7968
10507TIP3    H252937   2.159   6.498   1.922  1.1925  0.9474  0.3182
10508TIP3   OH252938   6.319   1.349   5.545  0.2982 -0.5267  0.7983
10508TIP3    H152939   6.304   1.438   5.514  1.6649 -0.3724  0.5534
10508TIP3    H252940   6.328   1.297   5.466 -1.1040 -1.0108  0.9353
10509TIP3   OH252941   0.677   5.862  15.275  0.6180  0.1421 -0.3633
10509TIP3    H152942   0.617   5.936  15.275  1.0147  0.4698  0.0797
10509TIP3    H252943   0.745   5.886  15.212  1.0916  0.4474  0.2543
10510TIP3   OH252944   6.025   1.716  17.127 -0.9941 -0.1116  0.0626
10510TIP3    H152945   6.076   1.717  17.046  1.1422 -0.3024  1.3966
10510TIP3    H252946   5.985   1.803  17.131 -2.1001 -0.4986 -1.7841
10511TIP3   OH252947   2.283   5.574  13.358 -0.5914  0.0495 -0.1763
10511TIP3    H152948   2.229   5.617  13.424  1.5709  0.9441  1.0564
10511TIP3    H252949   2.306   5.643  13.297 -1.4308 -0.4910 -1.1292
10512TIP3   OH252950   3.578   1.576   5.211  0.6539  0.2247  0.4453
10512TIP3    H152951   3.617   1.661   5.193 -0.5939  0.8693  0.7411
10512TIP3    H252952   3.627   1.543   5.287  1.6431  0.3321 -0.1371
10513TIP3   OH252953   6.732   1.401  14.461  0.1801  0.1305 -0.0513
10513TIP3    H152954   6.642   1.371  14.474 -0.7912  2.7405 -0.5381
10513TIP3    H252955   6.751   1.382  14.369 -1.0900  2.6149 -0.8595
10514TIP3   OH252956   3.548   3.922   4.211  0.3625 -0.1975  0.6592
10514TIP3    H152957   3.563   3.922   4.117  0.6029  0.2706  0.6961
10514TIP3    H252958   3.518   3.833   4.231 -0.6761  0.0020 -0.0138
10515TIP3   OH252959   3.165   2.295  14.259 -0.1662 -0.3855  0.0187
10515TIP3    H152960   3.099   2.328  14.320  0.3044 -0.0618  0.3597
10515TIP3    H252961   3.211   2.374  14.229  0.6809 -0.6913  0.5043
10516TIP3   OH252962   6.421   1.567   1.601  0.3595 -0.3804  0.2667
10516TIP3    H152963   6.450   1.652   1.633  2.3035 -0.7356 -0.4713
10516TIP3    H252964   6.479   1.504   1.643  0.5755 -1.1263 -1.1029
10517TIP3   OH252965   5.742   4.723   4.423  0.0181 -0.0921  0.0928
10517TIP3    H152966   5.798   4.669   4.479  1.8992  0.7300 -0.9760
10517TIP3    H252967   5.750   4.811   4.459 -0.6354  0.0262 -0.0407
10518TIP3   OH252968   4.555   4.144   5.402 -0.1197 -0.1320 -0.0758
10518TIP3    H152969   4.644   4.164   5.432 -0.0796  0.9341 -0.8840
10518TIP3    H252970   4.498   4.187   5.466 -0.0496  0.1195 -0.1829
10519TIP3   OH252971   5.627   6.017   0.777  0.4118 -0.1873  0.0758
10519TIP3    H152972   5.563   6.016   0.848 -0.0375  2.9684 -0.2236
10519TIP3    H252973   5.682   6.093   0.794  1.1041 -0.1060 -2.2608
10520TIP3   OH252974   1.477   0.516  15.131  0.3800  0.0771  0.0379
10520TIP3    H152975   1.422   0.588  15.160  1.4086  0.8656  0.0913
10520TIP3    H252976   1.561   0.532  15.174  0.7637 -0.8741 -0.3497
10521TIP3   OH252977   1.458   2.753  14.471  0.3585  0.3779 -0.7232
10521TIP3    H152978   1.517   2.682  14.496 -1.1074 -1.3334 -1.9879
10521TIP3    H252979   1.417   2.781  14.553  1.6781  0.4586 -0.0830
10522TIP3   OH252980   4.991   0.243   5.206  0.0702  0.3736 -0.2537
10522TIP3    H152981   5.033   0.255   5.120  1.0891 -0.4975  0.1114
10522TIP3    H252982   4.979   0.149   5.214  0.5527  0.3904  0.8202
10523TIP3   OH252983   4.986   1.724   0.926  0.9607 -0.2088 -0.3884
10523TIP3    H152984   5.068   1.697   0.884 -0.6779 -1.9488 -2.6131
10523TIP3    H252985   4.927   1.650   0.912 -0.9675  0.9928  1.2325
10524TIP3   OH252986   6.656   4.749   5.374 -0.2904  0.1752 -0.0888
10524TIP3    H152987   6.732   4.803   5.397  0.7519 -1.2748 -0.1173
10524TIP3    H252988   6.581   4.806   5.393  0.7383  1.1297  1.2505
10525TIP3   OH252989   1.795   1.278  12.873 -0.1155  0.0791 -0.1280
10525TIP3    H152990   1.701   1.296  12.871 -0.2713 -0.6313  0.8742
10525TIP3    H252991   1.802   1.183  12.864  0.3934 -0.1549  2.5398
10526TIP3   OH252992   2.148   3.720  11.892 -0.2742 -0.2313  0.0226
10526TIP3    H152993   2.203   3.716  11.814  2.2629  0.1333  1.7254
10526TIP3    H252994   2.140   3.628  11.920  0.7265 -0.1410  0.6127
10527TIP3   OH252995   6.186   6.356  12.027  0.3413  0.4194 -0.7767
10527TIP3    H152996   6.135   6.384  12.103 -0.2080 -0.5278 -0.7961
10527TIP3    H252997   6.193   6.261  12.036  1.9090  0.5045 -0.8933
10528TIP3   OH252998   5.106   6.321   5.352 -0.2295  0.0055 -0.0350
10528TIP3    H152999   5.011   6.310   5.345  0.0409 -1.7110 -1.0471
10528TIP3    H253000   5.122   6.326   5.446 -0.7158 -5.5020  0.4803
10529TIP3   OH253001   3.198   4.845   5.407  0.1701  0.1767  0.0239
10529TIP3    H153002   3.243   4.839   5.491 -0.2215  0.4383  0.2566
10529TIP3    H253003   3.160   4.758   5.394 -1.0373  0.5747  0.8404
10530TIP3   OH253004   0.103   3.059   0.363  0.6157  0.0690 -0.5761
10530TIP3    H153005   0.079   3.075   0.271 -1.8144 -1.2153 -0.1847
10530TIP3    H253006   0.024   3.023   0.403  1.8572 -0.0139  1.8843
10531TIP3   OH253007   5.585   3.097  16.106 -0.9014 -0.4764  0.5959
10531TIP3    H153008   5.579   3.024  16.167 -1.6096 -1.3308 -0.4848
10531TIP3    H253009   5.495   3.128  16.096 -0.5616  0.7866  1.3263
10532TIP3   OH253010   1.482   4.289  14.164 -0.0467 -0.2440  0.4102
10532TIP3    H153011   1.558   4.317  14.216 -0.6667  2.1762  0.0396
10532TIP3    H253012   1.406   4.319  14.214 -0.7083 -0.3258 -0.5361
10533TIP3   OH253013   3.421   4.459   3.250  0.0567 -0.1384  0.0005
10533TIP3    H153014   3.436   4.378   3.299  0.7009 -0.0766 -0.0934
10533TIP3    H253015   3.335   4.489   3.280 -0.4660 -1.1797 -0.4193
10534TIP3   OH253016   6.213   2.420   0.400  0.6005  0.4164  0.3101
10534TIP3    H153017   6.142   2.465   0.446  0.4590 -1.1014  1.6471
10534TIP3    H253018   6.176   2.334   0.379  2.1398 -0.5235  1.3373
10535TIP3   OH253019   1.603   6.647  11.374  0.1403 -0.0926  0.2711
10535TIP3    H153020   1.583   6.667  11.465  0.8308  2.2674 -0.0521
10535TIP3    H253021   1.675   6.584  11.378 -1.5911 -2.0575  1.3434
10536TIP3   OH253022   4.422   1.793   5.812  0.3567 -0.5179  0.1821
10536TIP3    H153023   4.354   1.783   5.745  0.7858 -0.3255 -0.2877
10536TIP3    H253024   4.397   1.731   5.880 -0.1482 -0.6377 -0.1039
10537TIP3   OH253025   0.497   1.276   1.203  0.6883  0.3376 -0.1633
10537TIP3    H153026   0.476   1.362   1.166 -2.4387  0.1740  1.0744
10537TIP3    H253027   0.495   1.290   1.298 -1.0735 -1.3572  0.0739
10538TIP3   OH253028   0.512   3.879   4.662 -0.3192 -0.0518 -0.2456
10538TIP3    H153029   0.523   3.894   4.568 -1.7789  1.0451 -0.2548
10538TIP3    H253030   0.431   3.828   4.669 -0.4897  0.3074  0.4530
10539TIP3   OH253031   1.752   0.420   5.895 -0.2834 -0.1572 -0.2100
10539TIP3    H153032   1.797   0.345   5.934 -1.1146 -0.1216  0.8448
10539TIP3    H253033   1.667   0.423   5.941 -0.8340  0.5420 -1.2702
10540TIP3   OH253034   6.053   1.421   3.428 -0.0916 -0.0657 -0.4987
10540TIP3    H153035   6.135   1.419   3.478  0.1740  1.1768 -0.8544
10540TIP3    H253036   6.081   1.427   3.337 -0.5800  0.5348 -0.6069
10541TIP3   OH253037   5.326   6.253   0.403  0.6409  0.0999 -0.4030
10541TIP3    H153038   5.361   6.182   0.456  0.2928  0.1505 -0.1078
10541TIP3    H253039   5.359   6.235   0.315 -0.4143 -1.0838 -0.5686
10542TIP3   OH253040   2.412   4.370  11.665 -0.0767 -0.4942 -0.4396
10542TIP3    H153041   2.353   4.295  11.667 -3.4384  2.0409 -0.7590
10542TIP3    H253042   2.454   4.365  11.579 -1.9289 -0.8355 -1.3502
10543TIP3   OH253043   4.800   6.192   2.487 -0.5561  0.2732  0.4882
10543TIP3    H153044   4.810   6.133   2.412 -0.7482 -0.1819  0.8183
10543TIP3    H253045   4.712   6.230   2.476 -0.9667 -0.5234  1.0009
10544TIP3   OH253046   1.602   1.273  16.638  0.4684  0.3885 -0.2307
10544TIP3    H153047   1.610   1.180  16.614 -0.9130  0.4317 -0.9247
10544TIP3    H253048   1.658   1.282  16.715  0.2238 -1.1507  0.1552
10545TIP3   OH253049   2.376   1.039   3.285 -0.1581  0.0240  0.4346
10545TIP3    H153050   2.382   1.049   3.380  2.0790  1.8026  0.1354
10545TIP3    H253051   2.414   1.120   3.249 -0.7809 -0.7044 -1.9681
10546TIP3   OH253052   1.902   3.073  15.913 -0.3385  0.0622  0.1226
10546TIP3    H153053   1.847   3.024  15.851  0.8380 -2.0002  0.6580
10546TIP3    H253054   1.941   3.005  15.968 -0.5675  1.7935  2.4858
10547TIP3   OH253055   0.880   1.882   4.959  0.8755  0.9384  0.1404
10547TIP3    H153056   0.811   1.816   4.957  2.6997 -0.9864 -2.7321
10547TIP3    H253057   0.843   1.957   4.912 -0.0838  0.8011  0.6765
10548TIP3   OH253058   0.642   6.763   3.428  0.0625  0.5405 -0.3004
10548TIP3    H153059   0.577   6.770   3.358  0.2540  0.3174 -0.5033
10548TIP3    H253060   0.706   6.700   3.395  0.4720  0.8869 -0.1695
10549TIP3   OH253061   1.853   2.319  16.212  0.3312  0.1345 -0.0941
10549TIP3    H153062   1.776   2.327  16.155 -0.5391  0.7076  1.1353
10549TIP3    H253063   1.903   2.399  16.198 -0.7688  1.0665  1.2122
10550TIP3   OH253064   3.714   2.731   0.266 -0.1917  0.1844  0.0058
10550TIP3    H153065   3.685   2.706   0.179 -1.5959 -0.1879  0.5661
10550TIP3    H253066   3.802   2.694   0.273  0.6492  1.7340 -1.8889
10551TIP3   OH253067   0.693   2.650   1.640  0.4444  0.4810 -0.2702
10551TIP3    H153068   0.699   2.639   1.545 -0.0483  3.3607 -0.6638
10551TIP3    H253069   0.768   2.601   1.673 -0.4752 -2.1963 -1.9719
10552TIP3   OH253070   4.487   3.171  16.888  0.0113  0.0489  0.0666
10552TIP3    H153071   4.526   3.203  16.807  0.5582  0.2358  0.4024
10552TIP3    H253072   4.421   3.107  16.860  1.7946 -1.6107 -0.4397
10553TIP3   OH253073   6.245   6.310   5.022 -0.7346  0.2170 -0.1813
10553TIP3    H153074   6.188   6.387   5.028 -1.7387 -0.6194  1.6231
10553TIP3    H253075   6.195   6.248   4.968 -1.7393 -0.6542  1.7045
10554TIP3   OH253076   2.962   5.402   1.621  0.0712 -0.0808 -0.2327
10554TIP3    H153077   2.960   5.422   1.715  1.4876 -2.5162  0.3670
10554TIP3    H253078   3.046   5.359   1.608 -0.2510 -0.0522 -2.5864
10555TIP3   OH253079   6.144   6.610  14.558 -0.1995  0.1912  0.3114
10555TIP3    H153080   6.192   6.681  14.515 -0.9363  0.7672  0.4182
10555TIP3    H253081   6.087   6.576  14.490  1.5615 -1.6203 -0.2850
10556TIP3   OH253082   2.005   5.975  15.257 -0.5149  0.0764  0.0149
10556TIP3    H153083   2.040   6.019  15.335  0.8653 -1.2301  0.1423
10556TIP3    H253084   1.926   5.931  15.289 -0.1110 -0.2218  0.6032
10557TIP3   OH253085   2.745   3.031  10.835  0.4719  1.0156  0.8692
10557TIP3    H153086   2.714   3.031  10.745 -2.7844 -0.3252  1.9253
10557TIP3    H253087   2.828   2.983  10.832  0.4469  1.0761 -1.4082
10558TIP3   OH253088   5.881   6.500   0.410 -0.1166  0.2450 -0.0247
10558TIP3    H153089   5.835   6.562   0.466 -1.4741  0.2262 -1.1179
10558TIP3    H253090   5.877   6.539   0.322  1.4003 -0.0633 -0.2474
10559TIP3   OH253091   6.275   1.099  16.725  0.4540  0.1786  0.1724
10559TIP3    H153092   6.256   1.008  16.700 -0.7409  0.8738 -1.5423
10559TIP3    H253093   6.222   1.114  16.803  0.3397 -0.4653  0.2266
10560TIP3   OH253094   5.025   0.162   0.140  0.6776  0.6345  0.1395
10560TIP3    H153095   5.007   0.080   0.094 -1.1803  1.3534 -0.4582
10560TIP3    H253096   4.984   0.151   0.226  1.2442  0.5863  0.4079
10561TIP3   OH253097   0.122   3.723   4.411  0.0129  0.9259 -0.1862
10561TIP3    H153098   0.194   3.676   4.370  0.9452 -0.1496  2.6103
10561TIP3    H253099   0.043   3.684   4.374  0.8196  0.3094 -1.2739
10562TIP3   OH253100   5.799   3.742  15.739  0.0082 -0.2067  0.0539
10562TIP3    H153101   5.887   3.717  15.765  0.6379  0.2968 -1.5603
10562TIP3    H253102   5.761   3.662  15.703 -0.5070 -0.6417  1.5294
10563TIP3   OH253103   4.722   2.484   3.987 -0.7713  0.0150 -0.1895
10563TIP3    H153104   4.714   2.579   3.975 -1.4502  0.1273  1.0456
10563TIP3    H253105   4.636   2.450   3.962 -0.2767 -0.3756 -1.4119
10564TIP3   OH253106   3.741   3.230   6.019 -0.1344 -0.8037  0.1513
10564TIP3    H153107   3.699   3.204   5.937 -0.7719  0.8108 -0.0426
10564TIP3    H253108   3.826   3.263   5.993 -0.3701 -0.2122  0.1367
10565TIP3   OH253109   5.147   1.125   2.717  0.2715  0.0376 -0.1682
10565TIP3    H153110   5.218   1.093   2.661  0.3705 -1.2334  0.6523
10565TIP3    H253111   5.166   1.218   2.728 -0.3825  0.5697 -3.1369
10566TIP3   OH253112   4.209   5.295   1.061 -0.3250  0.1650 -0.2703
10566TIP3    H153113   4.217   5.379   1.106  0.9649  0.5096 -1.1114
10566TIP3    H253114   4.277   5.240   1.101 -0.5159 -0.1682 -0.4027
10567TIP3   OH253115   0.842   3.250   3.407  0.5058 -0.0991 -0.0896
10567TIP3    H153116   0.922   3.205   3.380 -0.3923 -1.3357 -0.7639
10567TIP3    H253117   0.820   3.307   3.333  0.1446 -0.6195 -0.3885
10568TIP3   OH253118   5.809   5.736  17.095  0.5071 -0.0254  0.0624
10568TIP3    H153119   5.757   5.815  17.082  0.1438 -0.0660  1.2464
10568TIP3    H253120   5.891   5.767  17.133  1.6274  0.1072 -2.3098
10569TIP3   OH253121   4.113   0.620  13.470  0.2619  0.3604 -0.4506
10569TIP3    H153122   4.052   0.622  13.544  0.6557  0.4143 -0.1265
10569TIP3    H253123   4.109   0.709  13.434  1.6367  0.9489  0.7905
10570TIP3   OH253124   6.302   3.887   6.162 -0.0728  0.7740 -0.0974
10570TIP3    H153125   6.235   3.874   6.230  2.1534  0.6292  2.1273
10570TIP3    H253126   6.313   3.801   6.121  1.0939  0.0137  1.7743
10571TIP3   OH253127   6.128   2.596  15.646 -0.3930  0.2831  0.2947
10571TIP3    H153128   6.050   2.626  15.694  0.3725  0.4438  1.4692
10571TIP3    H253129   6.096   2.523  15.593 -1.7056  1.4572 -0.5650
10572TIP3   OH253130   4.648   2.065  16.429  0.7379  0.4163  0.6106
10572TIP3    H153131   4.617   2.042  16.341 -0.3988  2.5538  0.4266
10572TIP3    H253132   4.571   2.051  16.485  1.0205  0.5390  1.0253
10573TIP3   OH253133   4.441   6.470  16.542 -0.0852  0.4244 -0.4518
10573TIP3    H153134   4.409   6.559  16.557  1.2575  0.8509 -0.0190
10573TIP3    H253135   4.509   6.458  16.609 -1.1990 -1.4269  0.3606
10574TIP3   OH253136   3.816   4.496   6.385 -0.5943 -0.1917  0.4112
10574TIP3    H153137   3.736   4.540   6.414 -1.5951 -1.2395 -0.7397
10574TIP3    H253138   3.823   4.419   6.440  0.9140  1.1086  2.1120
10575TIP3   OH253139   3.867   6.218  12.402  0.7821  0.1299  0.1905
10575TIP3    H153140   3.917   6.137  12.392  0.5211  0.3979 -3.8126
10575TIP3    H253141   3.925   6.286  12.371  0.3254  1.3047  1.8307
10576TIP3   OH253142   5.246   1.566   2.349  0.0119  0.5336  0.2340
10576TIP3    H153143   5.279   1.486   2.391  0.2133  1.1192  1.2022
10576TIP3    H253144   5.188   1.534   2.280 -0.1232 -0.4495  0.7897
10577TIP3   OH253145   3.500   2.374  17.080 -0.1125  0.3470 -0.3531
10577TIP3    H153146   3.459   2.288  17.071  0.2095  0.3399 -1.9082
10577TIP3    H253147   3.427   2.436  17.074 -0.4013  0.1746  1.2372
10578TIP3   OH253148   3.184   3.610   2.997  0.4076 -0.3495  0.3517
10578TIP3    H153149   3.166   3.657   3.079 -0.8946 -0.8480  0.3577
10578TIP3    H253150   3.244   3.668   2.949  0.6687  0.2419  1.3725
10579TIP3   OH253151   0.628   2.713  15.188  0.0093  0.2145 -0.0358
10579TIP3    H153152   0.667   2.634  15.151  1.3947  1.0771 -0.4874
10579TIP3    H253153   0.582   2.684  15.267 -0.1146 -1.1388 -0.6064
10580TIP3   OH253154   0.802   4.590   4.777  0.0202 -0.0091 -0.9908
10580TIP3    H153155   0.864   4.557   4.841 -0.5809 -0.0475 -0.4147
10580TIP3    H253156   0.824   4.545   4.695 -0.2309 -1.1826 -0.4230
10581TIP3   OH253157   2.457   1.974  11.798 -0.0193 -0.0066  0.1374
10581TIP3    H153158   2.387   1.911  11.781 -1.3342  0.9148  1.9395
10581TIP3    H253159   2.493   1.948  11.883 -0.1175  1.2246  0.5691
10582TIP3   OH253160   3.290   5.804   2.326 -0.0114 -0.5845  0.4294
10582TIP3    H153161   3.294   5.733   2.390  1.3849  0.3049  1.3561
10582TIP3    H253162   3.224   5.864   2.362 -0.4132 -0.8784  0.1908
10583TIP3   OH253163   6.685   1.783  12.157 -0.0564 -0.1046  0.2043
10583TIP3    H153164   6.624   1.810  12.226 -0.1956  0.6076 -0.1929
10583TIP3    H253165   6.673   1.848  12.088 -0.3766 -1.1964 -0.7592
10584TIP3   OH253166   0.606   5.549  14.238  0.0615  0.0406  0.3983
10584TIP3    H153167   0.513   5.525  14.234  0.2617 -0.5828 -0.5322
10584TIP3    H253168   0.607   5.644  14.227 -0.5510  0.1962  1.6111
10585TIP3   OH253169   4.895   2.164   2.509 -0.5964 -0.1130 -0.4215
10585TIP3    H153170   4.986   2.136   2.494 -0.5286 -0.3872  0.4641
10585TIP3    H253171   4.865   2.195   2.423 -0.2062 -1.5913 -1.1184
10586TIP3   OH253172   1.826   4.855   3.746  0.0602  0.0302  0.5996
10586TIP3    H153173   1.760   4.857   3.677  1.6164 -1.1794 -1.0072
10586TIP3    H253174   1.792   4.792   3.810  1.0641 -3.1531 -1.8185
10587TIP3   OH253175   1.406   2.343  15.218 -0.5108 -0.1504 -0.4118
10587TIP3    H153176   1.360   2.425  15.235  0.5668  0.3511  0.0695
10587TIP3    H253177   1.368   2.311  15.136 -1.4326  0.4624 -0.2261
10588TIP3   OH253178   1.145   2.951  16.943 -0.4005  0.2235 -0.6697
10588TIP3    H153179   1.154   2.878  16.882  4.0809 -0.0056  0.0437
10588TIP3    H253180   1.117   3.025  16.889 -2.4909 -1.3624 -1.8404
10589TIP3   OH253181   2.297   0.503  13.931 -0.3558  0.1281  0.5754
10589TIP3    H153182   2.270   0.535  14.017  1.1316  0.7803  0.8222
10589TIP3    H253183   2.377   0.552  13.911 -1.8069  1.5347 -2.1258
10590TIP3   OH253184   2.010   3.026  13.800  0.0648 -0.1502  0.2833
10590TIP3    H153185   2.084   3.047  13.744 -1.7528  0.2002 -2.0814
10590TIP3    H253186   1.998   2.932  13.792  0.0481 -0.1608  0.4156
10591TIP3   OH253187   5.413   1.993   1.022 -0.0814  0.6059 -0.6156
10591TIP3    H153188   5.425   1.915   0.967 -0.6761 -1.4122  2.0303
10591TIP3    H253189   5.324   1.985   1.055 -0.2351  2.5882 -0.5091
10592TIP3   OH253190   3.027   1.110   2.945 -0.5711 -0.6871  0.3103
10592TIP3    H153191   3.003   1.053   2.871 -1.0533 -1.0701  0.7524
10592TIP3    H253192   3.003   1.198   2.917  2.4106 -0.3273 -1.3568
10593TIP3   OH253193   0.905   6.282   2.850 -0.3922  0.3420 -0.5712
10593TIP3    H153194   0.939   6.233   2.925  0.1119  2.1101  0.3869
10593TIP3    H253195   0.982   6.297   2.795  0.0262  2.5198  0.5607
10594TIP3   OH253196   1.071   5.677   1.003  0.2928  0.4070  0.4250
10594TIP3    H153197   1.078   5.772   1.007 -2.4122  0.6801 -0.7347
10594TIP3    H253198   1.100   5.655   0.915 -0.7257  0.3030  0.1209
10595TIP3   OH253199   3.487   4.594   4.335  0.2431  0.2970  0.6577
10595TIP3    H153200   3.483   4.577   4.241  0.1377  3.4482  0.0323
10595TIP3    H253201   3.579   4.610   4.353  0.2410 -0.1312  1.0790
10596TIP3   OH253202   5.075   6.026  15.114 -0.0634  0.0449  0.4991
10596TIP3    H153203   5.041   6.006  15.027 -0.6843  2.5204  0.1537
10596TIP3    H253204   4.997   6.027  15.170  0.2968 -1.2213  1.0421
10597TIP3   OH253205   6.303   3.298   2.893  0.1823  0.1480 -0.4125
10597TIP3    H153206   6.391   3.336   2.902  0.9157 -1.6269 -0.0446
10597TIP3    H253207   6.266   3.300   2.981  0.2027  0.0457 -0.4019
10598TIP3   OH253208   4.098   3.794  15.569  0.2837 -0.0604  0.2958
10598TIP3    H153209   4.045   3.725  15.529 -1.0148  0.2261  1.5034
10598TIP3    H253210   4.169   3.808  15.506 -0.3558 -1.3358 -0.7440
10599TIP3   OH253211   4.694   0.669   4.206 -0.5378  0.3430  0.2824
10599TIP3    H153212   4.687   0.616   4.286  0.3360 -0.5038 -0.1942
10599TIP3    H253213   4.672   0.609   4.135 -0.2923  0.8277 -0.2070
10600TIP3   OH253214   4.034   2.927   0.512 -0.5447 -0.4988  0.0915
10600TIP3    H153215   3.969   2.997   0.519 -0.2407 -0.0718 -1.1514
10600TIP3    H253216   4.085   2.950   0.434  1.9774 -0.0939  1.7984
10601TIP3   OH253217   4.155   0.647  11.901  0.0275  0.5779 -0.0661
10601TIP3    H153218   4.100   0.716  11.866 -0.8351  0.1009  0.3293
10601TIP3    H253219   4.183   0.597  11.824  0.8101  1.4769 -0.3697
10602TIP3   OH253220   1.801   3.441   4.381  0.9296 -0.4692  0.1101
10602TIP3    H153221   1.714   3.465   4.349  1.3349 -0.6154 -1.0940
10602TIP3    H253222   1.798   3.464   4.475 -0.4541 -0.6261  0.1196
10603TIP3   OH253223   1.901   5.668   3.978 -0.3440  0.1393 -1.1600
10603TIP3    H153224   1.951   5.735   3.932  1.5045 -0.4610 -0.0756
10603TIP3    H253225   1.895   5.699   4.068 -0.4333 -0.6151 -0.8995
10604TIP3   OH253226   4.241   0.856   4.491 -0.1669  0.3284 -0.1408
10604TIP3    H153227   4.246   0.780   4.433 -0.0045  0.4876 -0.3339
10604TIP3    H253228   4.320   0.906   4.472  0.0269  0.2417  0.4114
10605TIP3   OH253229   2.320   3.716  16.790 -0.2061  0.6850 -0.3090
10605TIP3    H153230   2.343   3.629  16.822 -1.1822  0.5050 -0.0686
10605TIP3    H253231   2.229   3.707  16.760 -0.3144  1.6179 -0.2690
10606TIP3   OH253232   0.122   2.636   4.295 -0.1677 -0.7172 -0.9800
10606TIP3    H153233   0.133   2.575   4.368  0.7319 -0.8212 -1.1935
10606TIP3    H253234   0.080   2.584   4.227 -2.2361 -0.2761 -0.0969
10607TIP3   OH253235   2.426   6.691   4.994 -0.8241  0.4031  0.1953
10607TIP3    H153236   2.358   6.636   4.954 -0.3760 -0.3937  0.5113
10607TIP3    H253237   2.478   6.721   4.920 -0.7885  0.0115  0.0586
10608TIP3   OH253238   2.025   1.526   2.693  0.6445  0.2276  0.0864
10608TIP3    H153239   1.992   1.610   2.661  0.5835  1.2132  2.6971
10608TIP3    H253240   2.107   1.547   2.737  1.4934 -1.3399 -0.6902
10609TIP3   OH253241   2.732   4.625  14.329  0.3336  0.0817 -0.3495
10609TIP3    H153242   2.663   4.677  14.372  0.2040 -0.5163  0.1715
10609TIP3    H253243   2.802   4.620  14.394  0.0976 -0.9138 -0.1665
10610TIP3   OH253244   1.825   2.581  14.032 -0.2111 -0.4553 -0.2024
10610TIP3    H153245   1.801   2.501  14.079  0.1427  0.2190  1.1722
10610TIP3    H253246   1.906   2.609  14.074 -0.1714  0.4517 -0.8817
10611TIP3   OH253247   0.448   5.288  15.190  0.2715 -0.3884 -0.3131
10611TIP3    H153248   0.474   5.201  15.160  0.0073 -0.6262  0.1459
10611TIP3    H253249   0.519   5.314  15.249  0.1465 -0.4592 -0.1343
10612TIP3   OH253250   5.059   3.861  15.759  0.0707 -0.3911 -0.7275
10612TIP3    H153251   4.974   3.879  15.800 -0.2514  0.2641 -1.6531
10612TIP3    H253252   5.037   3.823  15.674  0.7204 -1.1757 -0.5476
10613TIP3   OH253253   1.458   3.409   2.343  0.3034 -0.2140 -0.1816
10613TIP3    H153254   1.398   3.383   2.274 -0.4795  1.5010 -0.1791
10613TIP3    H253255   1.424   3.368   2.423  0.0601 -0.5575 -0.4658
10614TIP3   OH253256   2.828   3.926  16.128  0.5154 -0.0709 -0.2682
10614TIP3    H153257   2.791   3.958  16.211  1.3246  0.1337  0.0184
10614TIP3    H253258   2.777   3.970  16.061  0.2583  0.2445  0.1274
10615TIP3   OH253259   4.491   6.630  13.368  0.1450  0.1135  0.1138
10615TIP3    H153260   4.409   6.661  13.331  0.5992  2.2876  0.8965
10615TIP3    H253261   4.521   6.562  13.307 -1.3738  0.4811 -1.0631
10616TIP3   OH253262   6.157   3.147  12.886 -0.0569  0.5304  0.6729
10616TIP3    H153263   6.197   3.064  12.911 -0.8358 -0.8310 -2.4156
10616TIP3    H253264   6.224   3.213  12.905  0.8299 -0.8606  2.5038
10617TIP3   OH253265   5.106   0.717  11.769  0.2504  0.7625 -0.0589
10617TIP3    H153266   5.076   0.683  11.685  0.1900 -2.0343  1.0406
10617TIP3    H253267   5.040   0.782  11.794 -2.5784 -2.1141  0.2383
10618TIP3   OH253268   1.265   4.949  10.591 -0.0946 -0.2397  0.2502
10618TIP3    H153269   1.216   5.030  10.575  0.2789  0.1588  1.1200
10618TIP3    H253270   1.321   4.969  10.666  1.4724 -0.6688 -0.7953
10619TIP3   OH253271   1.885   3.006  11.005  0.1362 -0.3444 -0.1305
10619TIP3    H153272   1.832   2.982  11.081 -1.8785 -0.0949 -1.4196
10619TIP3    H253273   1.954   2.940  11.002 -0.7740 -1.3599  0.8981
10620TIP3   OH253274   0.105   1.191   1.583 -0.6315 -0.3594  0.8767
10620TIP3    H153275   0.086   1.107   1.626 -0.8083 -0.6010  0.3309
10620TIP3    H253276   0.067   1.182   1.496  0.5242 -0.2156  0.3464
10621TIP3   OH253277   1.678   0.353  14.624 -0.1895 -0.2693  0.2672
10621TIP3    H153278   1.607   0.299  14.589 -0.4196  1.2105 -1.6909
10621TIP3    H253279   1.757   0.300  14.614 -0.6074 -0.7749 -0.3721
10622TIP3   OH253280   2.219   5.625   3.073  0.4959 -0.3775  0.1622
10622TIP3    H153281   2.272   5.704   3.068  1.5487 -1.0751  0.2077
10622TIP3    H253282   2.192   5.608   2.983  0.4858 -0.1046  0.1164
10623TIP3   OH253283   2.967   0.117   4.824 -0.7498  0.3162 -0.0220
10623TIP3    H153284   2.997   0.072   4.903  0.0174  1.5502  0.4132
10623TIP3    H253285   3.047   0.150   4.783 -1.0745 -1.0303 -1.7795
10624TIP3   OH253286   6.444   5.199   0.311 -0.5524  0.0748  0.4493
10624TIP3    H153287   6.531   5.165   0.333 -1.5684 -1.8223  1.7037
10624TIP3    H253288   6.426   5.164   0.224  0.0313  0.6156  0.1167
10625TIP3   OH253289   1.414   5.363  16.704  0.8341 -0.0813  0.8179
10625TIP3    H153290   1.440   5.397  16.619 -0.1318 -0.8254  0.2017
10625TIP3    H253291   1.419   5.438  16.763  1.1563  0.5295  0.0269
10626TIP3   OH253292   1.928   4.026   2.126 -0.1406 -0.0922  0.3373
10626TIP3    H153293   1.978   4.039   2.206 -0.5308  0.1073  0.5483
10626TIP3    H253294   1.853   4.085   2.134  0.2147  0.4961 -0.5110
10627TIP3   OH253295   4.699   1.725  12.961 -0.1329  0.2115 -0.1602
10627TIP3    H153296   4.671   1.666  13.031 -2.1632  1.3175 -0.0000
10627TIP3    H253297   4.790   1.701  12.944  0.2011 -0.4435  2.4552
10628TIP3   OH253298   2.370   1.287   1.921  0.0735  0.1813 -0.3575
10628TIP3    H153299   2.384   1.193   1.919  1.3284  0.3697 -0.4770
10628TIP3    H253300   2.310   1.301   1.994  2.4101 -0.3784  1.6999
10629TIP3   OH253301   4.418   1.004   0.698 -0.2289  0.2030 -0.4333
10629TIP3    H153302   4.403   0.978   0.607 -1.3092  2.1466 -0.8239
10629TIP3    H253303   4.505   1.043   0.698 -1.1485  2.2901 -1.1056
10630TIP3   OH253304   3.485   0.560   3.468 -0.4673 -0.0143  0.6649
10630TIP3    H153305   3.457   0.593   3.382 -0.4331 -0.9871  0.2792
10630TIP3    H253306   3.467   0.466   3.465 -0.3089 -0.0839  1.6664
10631TIP3   OH253307   2.119   6.389  16.784 -0.2436 -0.4275  0.3765
10631TIP3    H153308   2.030   6.379  16.750  0.0130 -0.8999 -0.1659
10631TIP3    H253309   2.148   6.300  16.803 -0.3181 -0.1860  1.6986
10632TIP3   OH253310   0.001   3.203  15.129 -0.2255 -0.0288  0.3685
10632TIP3    H153311   0.031   3.208  15.220  0.9826  0.9553 -0.0749
10632TIP3    H253312  -0.060   3.129  15.128  1.8663 -1.8111  1.3778
10633TIP3   OH253313   0.532   3.030  14.594  0.0320  0.1494 -0.0279
10633TIP3    H153314   0.516   2.979  14.515  0.1557  0.8152 -0.4949
10633TIP3    H253315   0.577   3.109  14.562 -0.3613  0.6516  0.6468
10634TIP3   OH253316   0.931   5.610  15.875 -0.2708  0.3160  0.5843
10634TIP3    H153317   0.972   5.639  15.794 -3.2817  1.7531 -0.4928
10634TIP3    H253318   0.977   5.657  15.944  1.6949 -0.2078 -0.3393
10635TIP3   OH253319   5.429   0.046  11.829  0.0135  1.0001 -0.3565
10635TIP3    H153320   5.449   0.050  11.736  0.1914  0.2737 -0.3551
10635TIP3    H253321   5.333   0.053  11.833 -0.1374 -0.6901 -0.7138
10636TIP3   OH253322   4.646   3.632   2.138  0.4080  0.0891 -0.0958
10636TIP3    H153323   4.623   3.593   2.053  2.2523 -0.6853 -0.2630
10636TIP3    H253324   4.655   3.725   2.121 -0.0313  0.0422 -0.5818
10637TIP3   OH253325   2.392   4.071   0.331  0.1420 -0.0796  0.1171
10637TIP3    H153326   2.335   4.099   0.403 -0.9893  0.5768 -1.0232
10637TIP3    H253327   2.367   3.981   0.314 -1.3264  0.5390 -1.0936
10638TIP3   OH253328   6.026   4.194  11.848  0.6013 -0.0003 -0.0529
10638TIP3    H153329   6.117   4.193  11.878  0.8013 -1.4399 -0.7020
10638TIP3    H253330   6.030   4.164  11.757 -0.6542 -1.2926  0.3025
10639TIP3   OH253331   6.632   1.057  14.523  0.2688  0.0056  0.2598
10639TIP3    H153332   6.710   1.002  14.519  0.2482 -0.1990  2.1619
10639TIP3    H253333   6.562   0.997  14.548 -0.6449  0.0640 -2.0901
10640TIP3   OH253334   1.409   0.239  15.302  0.2927 -0.2232  0.2411
10640TIP3    H153335   1.368   0.307  15.356 -0.1940  0.4537 -0.9548
10640TIP3    H253336   1.426   0.282  15.218  0.2061 -1.5216 -0.4541
10641TIP3   OH253337   6.245   2.068   6.702  0.1440  0.0114 -0.1114
10641TIP3    H153338   6.244   2.153   6.746 -1.0121  0.3367 -0.7705
10641TIP3    H253339   6.158   2.031   6.719  0.6868 -1.1069  0.2967
10642TIP3   OH253340   3.134   0.203   4.433  0.4632  0.5890 -0.0756
10642TIP3    H153341   3.129   0.108   4.427  1.2325  0.5852 -0.6899
10642TIP3    H253342   3.206   0.228   4.374  1.3510  1.4100  1.3326
10643TIP3   OH253343   3.135   5.573   4.766 -0.1759 -0.3057  0.5624
10643TIP3    H153344   3.228   5.589   4.781 -0.6134  2.2404  0.7958
10643TIP3    H253345   3.124   5.479   4.779  1.9673 -0.2965  2.7677
10644TIP3   OH253346   2.950   1.309   1.536  0.2371 -0.0439  0.1488
10644TIP3    H153347   2.895   1.244   1.492  1.5138  0.0635 -1.6608
10644TIP3    H253348   2.899   1.336   1.613 -0.8559 -2.2248  0.2090
10645TIP3   OH253349   5.126   4.873  14.804  0.1829 -0.1438  0.4490
10645TIP3    H153350   5.114   4.779  14.816  0.1998 -0.4324 -1.5830
10645TIP3    H253351   5.097   4.889  14.715  1.5603  1.5301  0.2803
10646TIP3   OH253352   5.120   4.927  16.633  0.2551  0.6664  0.4354
10646TIP3    H153353   5.150   4.838  16.619 -1.6871 -0.0596  0.6921
10646TIP3    H253354   5.163   4.979  16.565  0.4118 -0.6799 -0.4999
10647TIP3   OH253355   2.991   2.562  11.254  0.3111  0.0535 -0.3385
10647TIP3    H153356   3.037   2.644  11.276  0.8689 -0.0888 -0.9633
10647TIP3    H253357   2.969   2.571  11.161 -3.3409  1.2838  0.5422
10648TIP3   OH253358   3.915   2.160   0.195  0.1135 -0.4939  0.8209
10648TIP3    H153359   3.971   2.115   0.259 -0.6446 -2.7659 -0.0861
10648TIP3    H253360   3.836   2.106   0.190  0.1267 -0.2965 -1.9760
10649TIP3   OH253361   4.303   3.910  11.369  0.3514  0.0191  0.8083
10649TIP3    H153362   4.322   3.816  11.364 -0.3549 -0.0922  0.1469
10649TIP3    H253363   4.350   3.948  11.295 -0.5337 -0.0175  0.2154
10650TIP3   OH253364   6.409   1.755   2.023  0.5275  0.3016  0.3434
10650TIP3    H153365   6.322   1.767   1.984  1.0793 -0.0331 -1.0148
10650TIP3    H253366   6.393   1.700   2.100 -0.2981 -0.8423 -0.6293
10651TIP3   OH253367   1.696   3.634  15.309  0.0606 -0.0399 -0.4940
10651TIP3    H153368   1.656   3.586  15.383 -1.1420  0.9910 -0.4533
10651TIP3    H253369   1.785   3.652  15.337  0.4662 -2.0716 -0.4172
10652TIP3   OH253370   0.135   2.893  16.736 -0.0793 -0.4272  0.8356
10652TIP3    H153371   0.065   2.917  16.797 -2.0837 -2.0538 -0.7749
10652TIP3    H253372   0.156   2.975  16.691  0.0485  0.3617  2.2912
10653TIP3   OH253373   2.523   3.821   2.971 -0.7699 -0.0695 -0.0639
10653TIP3    H153374   2.600   3.876   2.957 -2.7141  1.9719 -3.1647
10653TIP3    H253375   2.456   3.881   3.004 -1.2281 -1.7530  2.2249
10654TIP3   OH253376   6.649   0.718   3.156  0.5224  0.6993 -0.0453
10654TIP3    H153377   6.672   0.646   3.215  1.1907  0.5463 -0.4840
10654TIP3    H253378   6.733   0.752   3.126  0.2144  1.8489  0.3764
10655TIP3   OH253379   3.475   6.763  14.349 -0.0176  0.5130  0.5284
10655TIP3    H153380   3.425   6.690  14.313 -0.4703  1.1775 -0.2119
10655TIP3    H253381   3.532   6.724  14.415 -0.3116 -0.4918  0.1807
10656TIP3   OH253382   6.594   1.270   2.964  0.1002  0.6138  0.3911
10656TIP3    H153383   6.646   1.294   2.887 -0.0630  0.3579  0.1983
10656TIP3    H253384   6.554   1.186   2.940 -1.0512  1.2057  0.2238
10657TIP3   OH253385   2.438   1.912  16.176  0.0020 -0.4943  0.1900
10657TIP3    H153386   2.481   1.961  16.246 -0.4884 -1.3475  1.0934
10657TIP3    H253387   2.480   1.944  16.096  0.1381  0.9425  0.8103
10658TIP3   OH253388   2.590   0.340  15.316  0.0822 -0.3990 -0.4803
10658TIP3    H153389   2.648   0.384  15.254 -2.1928  0.6413 -1.9436
10658TIP3    H253390   2.529   0.291  15.260 -0.7350 -1.0954  0.9975
10659TIP3   OH253391   3.011   4.341  14.583  0.9423 -0.3958  0.1660
10659TIP3    H153392   3.028   4.402  14.654  1.7002 -0.2055 -0.1680
10659TIP3    H253393   2.947   4.279  14.618  3.3193 -1.9052  1.8988
10660TIP3   OH253394   5.643   1.846  12.225 -0.5391  0.2622  0.1465
10660TIP3    H153395   5.697   1.768  12.237  1.0795  1.3974  0.4667
10660TIP3    H253396   5.640   1.887  12.311  1.2947  2.2091 -0.6623
10661TIP3   OH253397   0.475   4.810  16.112 -0.4047  0.3658 -0.0931
10661TIP3    H153398   0.384   4.792  16.133 -0.1719 -0.3574  0.3271
10661TIP3    H253399   0.501   4.878  16.175 -0.2165 -0.5368  0.8138
10662TIP3   OH253400   3.575   3.190  16.337  0.1554 -0.4571  0.6715
10662TIP3    H153401   3.639   3.259  16.356  1.3027 -1.4806  0.6110
10662TIP3    H253402   3.546   3.160  16.423  1.5080 -1.5719  0.7619
10663TIP3   OH253403   6.642   3.370  10.991  0.1483  0.5032  0.0307
10663TIP3    H153404   6.593   3.434  10.939  1.1504  1.0745 -0.2204
10663TIP3    H253405   6.701   3.423  11.044  0.6063 -0.1882  0.2135
10664TIP3   OH253406   1.120   2.439   5.077  0.2414  0.1969  0.2650
10664TIP3    H153407   1.182   2.502   5.114  1.8668 -1.0380 -0.2764
10664TIP3    H253408   1.151   2.423   4.988  0.2421 -1.8374  0.6061
10665TIP3   OH253409   4.618   5.563   1.098 -0.1350  0.6302 -0.5343
10665TIP3    H153410   4.693   5.550   1.156 -0.1647 -0.9843 -0.8534
10665TIP3    H253411   4.543   5.532   1.148 -0.6362  2.3763 -0.1585
10666TIP3   OH253412   5.444   2.401   2.820  0.0031 -0.1455 -0.2410
10666TIP3    H153413   5.378   2.456   2.863 -0.8949 -0.8476 -0.7118
10666TIP3    H253414   5.402   2.316   2.809 -0.4006  0.4316 -3.9361
10667TIP3   OH253415   1.817   0.839   5.234  0.0571 -0.1741  0.4223
10667TIP3    H153416   1.742   0.882   5.273 -0.3847  0.5397 -1.1811
10667TIP3    H253417   1.826   0.757   5.284  0.4622  1.3937  2.9904
10668TIP3   OH253418   2.214   3.763  13.933  0.4948  0.6518  0.0496
10668TIP3    H153419   2.124   3.796  13.928  0.2692 -0.0805 -0.8890
10668TIP3    H253420   2.268   3.841  13.923 -0.0160  1.3831  2.6924
10669TIP3   OH253421   5.491   6.198   1.816 -0.1078  0.0272  0.0050
10669TIP3    H153422   5.434   6.250   1.874 -1.2544  0.4441 -1.4444
10669TIP3    H253423   5.509   6.118   1.865 -0.1513  0.8398  1.3766
10670TIP3   OH253424   3.356   3.715  15.643  0.1216 -0.0530 -0.5135
10670TIP3    H153425   3.268   3.753  15.649 -0.4859 -1.4576 -0.3142
10670TIP3    H253426   3.388   3.744  15.557 -1.0733 -0.6248 -1.1767
10671TIP3   OH253427   4.445   6.464  17.076  0.5135  0.0165 -0.1587
10671TIP3    H153428   4.479   6.435  17.161  0.5507 -0.7172 -0.4154
10671TIP3    H253429   4.480   6.400  17.013  1.1119  0.9960 -0.8268
10672TIP3   OH253430   3.955   1.158  16.125  0.4107 -0.1019  0.7978
10672TIP3    H153431   4.044   1.147  16.160 -0.0299  0.7338  2.2269
10672TIP3    H253432   3.898   1.129  16.196 -0.4719 -0.5571 -0.0899
10673TIP3   OH253433   4.823   4.844   2.009  0.2785 -0.0359 -0.0447
10673TIP3    H153434   4.876   4.843   2.089  0.3590 -0.0223 -0.0981
10673TIP3    H253435   4.809   4.937   1.991  1.2770 -0.0111 -0.7192
10674TIP3   OH253436   2.136   3.002  12.886 -0.1127  0.3249 -0.2337
10674TIP3    H153437   2.211   3.013  12.945  1.2237  0.4367 -1.9137
10674TIP3    H253438   2.085   2.930  12.925  0.7048  0.4525  1.0919
10675TIP3   OH253439   1.615   1.278  12.445  0.0755  0.8150  0.4527
10675TIP3    H153440   1.594   1.368  12.471  0.8368  1.2992 -0.5731
10675TIP3    H253441   1.699   1.260  12.487 -0.0118  0.6231  0.5463
10676TIP3   OH253442   3.472   5.498  14.996 -0.3509 -0.0840  0.3886
10676TIP3    H153443   3.407   5.451  15.047 -0.9781  0.1848 -0.1534
10676TIP3    H253444   3.532   5.535  15.061 -0.2125 -1.0914  0.8501
10677TIP3   OH253445   2.953   4.904   3.785  0.4996 -0.3782 -0.3098
10677TIP3    H153446   2.952   4.831   3.724 -2.3020 -1.0669  0.4768
10677TIP3    H253447   2.870   4.950   3.769  0.2233  0.0908  2.1520
10678TIP3   OH253448   6.435   5.577   4.779  0.6853  0.3082 -0.0606
10678TIP3    H153449   6.350   5.536   4.763  0.9724 -0.9866  1.5466
10678TIP3    H253450   6.499   5.509   4.755  1.2076  0.4866  0.7995
10679TIP3   OH253451   3.440   2.338   3.728  0.8833 -0.4524 -0.1420
10679TIP3    H153452   3.517   2.386   3.698  0.9441  0.4357  1.3684
10679TIP3    H253453   3.373   2.405   3.740 -0.0860 -1.1921 -1.2552
10680TIP3   OH253454   5.613   4.743  16.316 -0.2161 -0.7115 -0.8288
10680TIP3    H153455   5.549   4.814  16.314  0.3815 -0.1973 -2.6662
10680TIP3    H253456   5.689   4.780  16.359 -0.5859 -0.8400 -0.0587
10681TIP3   OH253457   2.193   5.518   4.406  0.3644 -0.8084  0.3919
10681TIP3    H153458   2.243   5.590   4.444 -3.0833  1.5137  0.7550
10681TIP3    H253459   2.153   5.475   4.481 -1.5958  0.0473 -0.1257
10682TIP3   OH253460   5.417   6.441   2.331  0.5591 -0.5727 -0.8429
10682TIP3    H153461   5.375   6.381   2.270  1.4475  0.1308 -2.1600
10682TIP3    H253462   5.359   6.517   2.333 -0.1120 -1.0939  0.1565
10683TIP3   OH253463   3.284   1.900   1.567 -0.2344 -0.1486 -0.1075
10683TIP3    H153464   3.306   1.862   1.652  0.2951 -0.8576 -0.5537
10683TIP3    H253465   3.189   1.907   1.568 -0.0570  2.9845  1.8615
10684TIP3   OH253466   3.852   5.801  11.681  0.1828  0.0999 -0.3744
10684TIP3    H153467   3.909   5.861  11.729  0.2334  0.1094 -0.4462
10684TIP3    H253468   3.764   5.837  11.693  0.0479 -0.5886  0.7510
10685TIP3   OH253469   5.112   2.720  15.474 -0.0364  0.3526  0.2016
10685TIP3    H153470   5.104   2.796  15.531  0.8206  1.0728 -0.6188
10685TIP3    H253471   5.102   2.645  15.532  0.4681  1.0869  1.2464
10686TIP3   OH253472   3.814   6.082  15.124  0.5206 -1.1836  0.2925
10686TIP3    H153473   3.894   6.107  15.078  1.1713 -3.1948  0.2987
10686TIP3    H253474   3.802   6.151  15.189  0.8480  0.4728 -1.3556
10687TIP3   OH253475   6.237   1.796  11.186  0.4866  0.8144  0.4057
10687TIP3    H153476   6.227   1.839  11.101  3.0406  0.0401 -0.3238
10687TIP3    H253477   6.222   1.703  11.169  1.7766  0.5544  0.6346
10688TIP3   OH253478   1.689   1.521   0.474 -0.2371  0.9964  0.2345
10688TIP3    H153479   1.718   1.533   0.383 -0.2117  2.0991  0.3820
10688TIP3    H253480   1.770   1.504   0.522 -0.0255  2.2323  0.3412
10689TIP3   OH253481   0.641   6.330  12.250 -0.0662  0.6708 -0.4145
10689TIP3    H153482   0.574   6.286  12.303 -1.1928  3.5318  0.6486
10689TIP3    H253483   0.617   6.312  12.160 -0.5317 -0.7866 -0.0168
10690TIP3   OH253484   0.230   5.029  17.200  0.1370  0.3926 -0.2351
10690TIP3    H153485   0.185   4.991  17.124  1.3321 -0.8674 -0.3186
10690TIP3    H253486   0.319   5.045  17.171  0.8745 -0.9859  1.1678
10691TIP3   OH253487   4.277   2.467  15.247 -0.0950  0.3796  0.0036
10691TIP3    H153488   4.303   2.503  15.332 -2.1255  0.6636  0.5259
10691TIP3    H253489   4.245   2.543  15.198 -1.6250 -0.2091  0.0512
10692TIP3   OH253490   2.360   5.688   4.518 -0.2251 -0.2015 -0.5791
10692TIP3    H153491   2.386   5.702   4.609 -0.5311 -0.1233 -0.5053
10692TIP3    H253492   2.395   5.765   4.472  1.6644 -1.2054 -0.8687
10693TIP3   OH253493   3.428   4.447  12.055 -0.5819 -0.3873 -0.0264
10693TIP3    H153494   3.384   4.532  12.056 -0.0465 -0.1014 -0.5792
10693TIP3    H253495   3.503   4.458  12.113  1.4709  0.5982 -2.7848
10694TIP3   OH253496   6.715   4.632  12.096  0.6392  0.5518 -0.0783
10694TIP3    H153497   6.799   4.607  12.136  0.5255  1.3850  0.6944
10694TIP3    H253498   6.649   4.605  12.160  0.2903 -0.3488 -0.8034
10695TIP3   OH253499   5.861   0.055  13.173  0.0699 -0.2765 -0.6987
10695TIP3    H153500   5.929   0.066  13.106 -0.0670 -0.9981 -0.9611
10695TIP3    H253501   5.780   0.045  13.124 -0.2657  0.8132 -0.3785
10696TIP3   OH253502   3.994   3.727   4.150  0.7050 -0.3804 -0.5816
10696TIP3    H153503   3.902   3.715   4.174  0.5077  0.6314 -0.7774
10696TIP3    H253504   4.021   3.643   4.115 -0.3398 -0.5015 -1.1296
10697TIP3   OH253505   3.903   6.061  17.177 -0.6446  0.0862 -0.6149
10697TIP3    H153506   3.973   6.120  17.149  1.2550 -1.5679  0.5316
10697TIP3    H253507   3.837   6.119  17.214  1.1807  1.5274  0.5108
10698TIP3   OH253508   5.084   2.941  15.662 -0.1174 -0.3437  0.4974
10698TIP3    H153509   5.139   3.011  15.627 -0.3984  0.1813  1.1089
10698TIP3    H253510   5.124   2.918  15.746  0.1256 -1.0991  0.1808
10699TIP3   OH253511   6.440   2.483   5.362 -0.3643  0.2135 -0.1003
10699TIP3    H153512   6.393   2.547   5.416  0.7529  0.0098  1.1340
10699TIP3    H253513   6.462   2.532   5.282  0.9749  1.5748  1.0614
10700TIP3   OH253514   6.169   1.478   1.162  0.6895 -0.2580 -0.1093
10700TIP3    H153515   6.225   1.548   1.195  1.2093 -0.2077 -1.0817
10700TIP3    H253516   6.114   1.455   1.236  1.0973  0.5971  0.4712
10701TIP3   OH253517   0.198   0.739   5.342  0.6571  0.0969  0.3269
10701TIP3    H153518   0.164   0.815   5.389  1.6302  0.4565  0.4537
10701TIP3    H253519   0.120   0.700   5.301  0.1793  1.2626  0.1000
10702TIP3   OH253520   4.878   3.877  14.662 -0.2219 -0.2879  0.2672
10702TIP3    H153521   4.925   3.960  14.659 -1.0000  0.1720  0.8008
10702TIP3    H253522   4.875   3.854  14.755  1.0880 -1.5581  0.0368
10703TIP3   OH253523   1.098   2.578   3.468 -0.1901 -0.1224 -0.2824
10703TIP3    H153524   1.044   2.547   3.540  0.9016 -0.1078  0.5680
10703TIP3    H253525   1.133   2.662   3.498 -1.7340  1.1251 -1.8661
10704TIP3   OH253526   2.479   5.733  17.189 -0.1041 -0.4763 -0.3298
10704TIP3    H153527   2.563   5.690  17.171  0.6562  0.9946 -0.3961
10704TIP3    H253528   2.434   5.733  17.104  1.0550  1.2776 -0.9896
10705TIP3   OH253529   6.427   2.822  13.940 -0.0941 -0.1080 -0.1480
10705TIP3    H153530   6.448   2.916  13.940  0.0655 -0.1420 -0.0335
10705TIP3    H253531   6.395   2.804  13.851  1.8827 -0.3751 -0.8394
10706TIP3   OH253532   1.606   3.359   3.845  0.3822 -0.3894  0.1187
10706TIP3    H153533   1.670   3.425   3.820 -1.4879  1.3339 -0.2487
10706TIP3    H253534   1.654   3.300   3.903  2.0017  1.4827  0.7337
10707TIP3   OH253535   4.977   1.680  12.999 -0.5784 -0.1423  0.6663
10707TIP3    H153536   5.059   1.701  13.043 -1.2654 -0.2784  2.0247
10707TIP3    H253537   4.988   1.590  12.969 -0.3366 -0.2468  1.0743
10708TIP3   OH253538   4.447   5.462  16.905  0.0497 -0.0473 -0.1460
10708TIP3    H153539   4.403   5.525  16.847 -1.2066 -1.4775 -0.7594
10708TIP3    H253540   4.408   5.477  16.991  1.4619  1.6377  0.2415
10709TIP3   OH253541   1.786   5.935  11.124  0.0049  1.1148  0.0189
10709TIP3    H153542   1.756   5.947  11.034 -0.5756  0.0442  0.0688
10709TIP3    H253543   1.858   5.872  11.117 -0.5943  0.3751  0.3879
10710TIP3   OH253544   0.487   0.273  15.103 -0.2947 -0.2452  0.3516
10710TIP3    H153545   0.393   0.278  15.117 -0.4684  0.5499 -0.9966
10710TIP3    H253546   0.513   0.362  15.082  0.3946 -0.8101 -1.3417
10711TIP3   OH253547   4.645   0.188  16.987  0.0461  0.0002  0.3931
10711TIP3    H153548   4.677   0.257  17.044  0.7152 -0.6984  0.8747
10711TIP3    H253549   4.638   0.228  16.900  0.6985  0.5800  0.6149
10712TIP3   OH253550   2.066   5.886   3.888 -0.2371  0.3934 -0.0570
10712TIP3    H153551   2.051   5.979   3.873 -1.1177  0.2594 -0.0450
10712TIP3    H253552   2.145   5.866   3.838 -1.5952  0.5411 -2.3495
10713TIP3   OH253553   0.113   0.585  12.294  0.6355 -0.5240  0.1523
10713TIP3    H153554   0.092   0.495  12.320 -0.2495 -0.7374 -1.2224
10713TIP3    H253555   0.180   0.574  12.226  0.0183 -0.1870 -0.5136
10714TIP3   OH253556   0.162   0.494  13.531  0.4534  0.5514 -0.1501
10714TIP3    H153557   0.217   0.563  13.569 -1.2511  1.8978 -0.0975
10714TIP3    H253558   0.208   0.468  13.451  3.0866 -0.9572  1.7628
10715TIP3   OH253559   6.074   0.257   3.420  0.0866 -0.1818  0.4703
10715TIP3    H153560   6.102   0.348   3.430 -0.8906  0.4835 -2.4467
10715TIP3    H253561   6.145   0.216   3.369  0.4294 -1.0214  1.6021
10716TIP3   OH253562   4.177   3.642  13.336 -0.0721 -0.0652  0.0632
10716TIP3    H153563   4.219   3.606  13.414 -0.9477  0.7417  0.9130
10716TIP3    H253564   4.160   3.733  13.358 -0.0147  0.2546 -1.1999
10717TIP3   OH253565   6.658   1.494  15.084  0.3888 -0.7272 -0.4538
10717TIP3    H153566   6.612   1.420  15.124 -0.1693 -0.5252 -0.7235
10717TIP3    H253567   6.645   1.483  14.990 -1.1823  0.6606 -0.4263
10718TIP3   OH253568   3.700   5.540  14.678  0.2149 -0.2518  0.2501
10718TIP3    H153569   3.609   5.540  14.649  0.2942 -0.6902 -0.0027
10718TIP3    H253570   3.702   5.480  14.752  0.5325 -1.1889 -0.5011
10719TIP3   OH253571   4.540   3.161  16.065 -0.5213 -0.9692  0.6639
10719TIP3    H153572   4.457   3.185  16.023  0.2157 -0.4740 -0.5298
10719TIP3    H253573   4.556   3.071  16.038 -0.1082 -0.6906 -0.0265
10720TIP3   OH253574   1.775   4.040   4.970 -0.5124  0.3193  0.1211
10720TIP3    H153575   1.871   4.033   4.976 -0.4667  0.1245 -0.7392
10720TIP3    H253576   1.756   4.130   4.995 -0.1018  0.3652  0.2784
10721TIP3   OH253577   0.345   0.591  15.900  0.2479  0.9671 -0.6307
10721TIP3    H153578   0.398   0.666  15.929 -1.8285  1.4305  2.0915
10721TIP3    H253579   0.382   0.516  15.947 -0.0982  0.9032 -0.4641
10722TIP3   OH253580   2.748   6.592   3.785  0.1609 -0.5449 -0.0341
10722TIP3    H153581   2.724   6.553   3.869  2.2687  1.2004  1.4334
10722TIP3    H253582   2.673   6.647   3.762 -0.4667 -1.1012  0.6766
10723TIP3   OH253583   3.190   6.053  13.972 -0.1680 -0.4399 -0.9478
10723TIP3    H153584   3.170   6.082  14.061  1.6893 -1.1591 -0.2693
10723TIP3    H253585   3.125   5.986  13.953  0.9453 -2.0549  0.8404
10724TIP3   OH253586   6.449   4.871  15.197  0.0901 -0.4136  0.2763
10724TIP3    H153587   6.353   4.874  15.190  0.0170 -3.5139 -1.0868
10724TIP3    H253588   6.480   4.903  15.112  0.2393 -0.5121  0.2941
10725TIP3   OH253589   0.296   2.732   0.544 -0.1581  0.2394 -0.0672
10725TIP3    H153590   0.354   2.676   0.596  0.2561  1.4737  0.8280
10725TIP3    H253591   0.347   2.811   0.527 -0.5310  0.1230 -1.8105
10726TIP3   OH253592   1.247   0.652  15.218  0.2763 -0.0902  0.2862
10726TIP3    H153593   1.242   0.722  15.153  2.2285 -0.2550 -0.0799
10726TIP3    H253594   1.253   0.698  15.302  0.5314  0.1719  0.1270
10727TIP3   OH253595   2.137   3.418  10.840 -0.3245  0.2031  0.2899
10727TIP3    H153596   2.066   3.354  10.834  0.2488 -0.4884  0.8152
10727TIP3    H253597   2.198   3.393  10.771 -0.5299  0.7180 -0.0760
10728TIP3   OH253598   3.946   2.729  16.495 -0.0573 -0.0067  0.3827
10728TIP3    H153599   3.918   2.819  16.513 -1.6934 -0.3070 -0.5805
10728TIP3    H253600   4.008   2.709  16.565  1.0311  2.1850  0.0959
10729TIP3   OH253601   6.639   0.393  12.932  0.1274 -0.4849  0.2884
10729TIP3    H153602   6.608   0.443  12.856  0.3572 -2.4208 -1.1281
10729TIP3    H253603   6.713   0.442  12.965 -0.2855  0.6441 -0.4411
10730TIP3   OH253604   2.260   6.167   3.628  0.1362 -0.0536 -0.8517
10730TIP3    H153605   2.272   6.260   3.645  1.1243 -0.6748  1.9939
10730TIP3    H253606   2.348   6.130   3.633 -0.5011 -1.4663  0.0500
10731TIP3   OH253607   0.776   0.371   3.180  0.6567 -0.0816 -0.5947
10731TIP3    H153608   0.792   0.296   3.237  0.7492 -0.4413 -1.0940
10731TIP3    H253609   0.683   0.391   3.193  0.8570  0.3179  0.2586
10732TIP3   OH253610   5.058   4.120  15.626  0.1919 -0.0191  0.4796
10732TIP3    H153611   5.082   4.073  15.706  1.1466  1.4662  1.1004
10732TIP3    H253612   5.139   4.121  15.574  0.5135  1.8886  0.9829
10733TIP3   OH253613   1.935   6.745   0.354  0.0946  0.7515  0.0178
10733TIP3    H153614   1.850   6.757   0.396  0.7991  4.0557  0.5784
10733TIP3    H253615   1.923   6.777   0.265  0.8211  1.5730  0.2046
10734TIP3   OH253616   3.245   5.235  12.776  0.0890 -0.1728  0.3693
10734TIP3    H153617   3.194   5.186  12.840 -2.1142 -0.3981 -1.4905
10734TIP3    H253618   3.203   5.321  12.773 -1.0712 -0.7745 -2.1308
10735TIP3   OH253619   4.103   3.562  16.936  0.9006  0.0014  0.1752
10735TIP3    H153620   4.077   3.473  16.912  1.1598  0.1329 -0.5933
10735TIP3    H253621   4.171   3.585  16.873  0.4935  0.9263  0.0747
10736TIP3   OH253622   2.453   3.556   0.013 -0.3871  0.2335 -0.9195
10736TIP3    H153623   2.362   3.583   0.000 -0.2212  0.1225 -2.4498
10736TIP3    H253624   2.502   3.638   0.010 -0.3993  0.2613 -0.4143
10737TIP3   OH253625   1.624   4.371  12.329 -0.0680  0.0037  0.3429
10737TIP3    H153626   1.534   4.365  12.297  0.0093  3.1021 -0.6231
10737TIP3    H253627   1.615   4.377  12.424 -0.8407 -0.1571  0.2859
10738TIP3   OH253628   0.373   0.173  14.354  0.4581 -0.8333 -0.2739
10738TIP3    H153629   0.366   0.117  14.277  1.5352 -0.3015 -0.7542
10738TIP3    H253630   0.383   0.262  14.319  0.7127 -0.5598  0.4838
10739TIP3   OH253631   6.591   5.354   1.214 -0.0406  0.5688 -0.2657
10739TIP3    H153632   6.623   5.444   1.218 -0.9415  0.9562 -1.4805
10739TIP3    H253633   6.569   5.333   1.304 -3.2230  2.8529 -0.4200
10740TIP3   OH253634   0.705   1.310   0.549 -0.1619 -0.2353  0.1017
10740TIP3    H153635   0.662   1.234   0.510 -1.1987  0.1405  0.5098
10740TIP3    H253636   0.709   1.291   0.642 -0.2186  0.1140  0.1770
10741TIP3   OH253637   4.712   2.934   4.419 -0.0813 -0.2655  0.5696
10741TIP3    H153638   4.697   2.882   4.498 -0.9397  0.1029  0.6564
10741TIP3    H253639   4.736   3.020   4.452  2.8330 -0.9829  0.4320
10742TIP3   OH253640   0.513   2.529  13.021 -0.5506 -0.4231  0.2011
10742TIP3    H153641   0.463   2.582  12.959 -1.0457 -2.2000 -0.9234
10742TIP3    H253642   0.454   2.459  13.047  0.5976 -1.2553  0.5874
10743TIP3   OH253643   3.328   1.978   2.960  0.0971 -0.5828  0.0806
10743TIP3    H153644   3.236   2.001   2.960 -0.0910 -1.2891  0.7707
10743TIP3    H253645   3.347   1.953   2.870 -0.5824 -1.1655  0.0933
10744TIP3   OH253646   3.131   4.968   2.239 -0.2267 -0.2047 -0.1548
10744TIP3    H153647   3.154   4.931   2.325 -1.3445 -0.9479 -0.1695
10744TIP3    H253648   3.037   4.951   2.230 -0.1581  0.0761 -1.4304
10745TIP3   OH253649   3.956   5.165   2.726 -0.0008  0.4765 -0.4744
10745TIP3    H153650   3.945   5.119   2.642 -1.0119  0.0637 -0.1187
10745TIP3    H253651   3.920   5.252   2.710 -0.7043  0.2153 -0.2992
10746TIP3   OH253652   5.646   2.045   3.535  0.1000  0.2862  0.6280
10746TIP3    H153653   5.550   2.048   3.527  0.1118  0.2049  0.4533
10746TIP3    H253654   5.662   1.974   3.598  0.0542  0.1705  0.5099
10747TIP3   OH253655   0.823   4.468   2.628  0.1598 -0.3003 -0.0988
10747TIP3    H153656   0.852   4.550   2.667  0.0725  0.1347 -0.9497
10747TIP3    H253657   0.835   4.403   2.697 -0.2578  0.5183  0.7535
10748TIP3   OH253658   6.354   1.739  17.167 -0.5242 -0.0842  0.5616
10748TIP3    H153659   6.444   1.771  17.162  0.8216 -3.7867 -0.6504
10748TIP3    H253660   6.352   1.681  17.242 -0.9832 -2.5726 -1.3067
10749TIP3   OH253661   2.864   0.709  16.305 -0.2462  0.0006 -0.5546
10749TIP3    H153662   2.923   0.784  16.294  1.1256 -1.1810 -1.4280
10749TIP3    H253663   2.808   0.711  16.227 -0.8164  0.6349 -0.1339
10750TIP3   OH253664   4.280   1.220   2.373  0.6016  0.1398  0.2545
10750TIP3    H153665   4.219   1.243   2.303  1.4254  1.0716 -0.1775
10750TIP3    H253666   4.238   1.148   2.419 -0.3857  0.1434 -0.6196
10751TIP3   OH253667   5.101   1.389  14.090 -0.2104  0.2736  0.2973
10751TIP3    H153668   5.134   1.470  14.052 -1.5899  0.9324  0.4794
10751TIP3    H253669   5.027   1.364  14.034 -0.4375 -0.3113  0.8474
10752TIP3   OH253670   0.718   6.566  13.423  0.1076  0.3205 -0.1438
10752TIP3    H153671   0.719   6.642  13.366 -0.0977 -0.1597 -0.7921
10752TIP3    H253672   0.767   6.594  13.501  2.9821  0.0207 -1.7673
10753TIP3   OH253673   4.954   4.113   4.651 -0.4664  0.3501 -0.4111
10753TIP3    H153674   4.903   4.192   4.666  0.5370  0.8949  0.1993
10753TIP3    H253675   5.045   4.143   4.648 -0.1267 -0.6932 -0.7730
10754TIP3   OH253676   6.226   4.255  13.935  0.8602 -1.1190 -0.1267
10754TIP3    H153677   6.276   4.195  13.881 -1.8243 -3.3119 -0.2884
10754TIP3    H253678   6.152   4.282  13.880  1.5036  1.6604  0.2654
10755TIP3   OH253679   4.545   4.672   3.880 -0.3500  1.3381 -0.0240
10755TIP3    H153680   4.469   4.620   3.855  0.6591  0.0365 -0.4392
10755TIP3    H253681   4.554   4.737   3.810  0.5017 -0.2035 -1.3797
10756TIP3   OH253682   6.042   4.819  14.754  0.0754  0.8893 -0.0166
10756TIP3    H153683   5.994   4.744  14.787 -1.2728  0.2575 -3.2098
10756TIP3    H253684   5.986   4.855  14.685  1.5221  3.7364  0.2067
10757TIP3   OH253685   6.019   6.435  10.480  0.1182  0.0599  0.0413
10757TIP3    H153686   5.995   6.499  10.547  0.8902  1.0737 -0.6340
10757TIP3    H253687   5.973   6.355  10.505 -0.5910  0.7877  1.0800
10758TIP3   OH253688   1.921   4.351  15.820 -0.4720  0.4478  0.0337
10758TIP3    H153689   1.973   4.420  15.779 -1.3484  1.6751  0.9195
10758TIP3    H253690   1.874   4.309  15.748 -0.1672  0.9971 -0.4809
10759TIP3   OH253691   5.832   0.695  15.946 -0.2860  0.6536 -0.2565
10759TIP3    H153692   5.840   0.775  15.998  0.9670  0.8696 -0.7648
10759TIP3    H253693   5.744   0.663  15.965 -0.0780  1.0597  1.5348
10760TIP3   OH253694   4.072   6.617  16.885  0.4696  0.0707  0.0611
10760TIP3    H153695   4.085   6.696  16.833 -0.3320  0.4394  0.4157
10760TIP3    H253696   4.083   6.645  16.976  2.8234 -0.7624  0.0608
10761TIP3   OH253697   4.993   4.309  14.642 -0.0959  0.2939 -0.6736
10761TIP3    H153698   5.037   4.299  14.727  1.1247  0.0663 -1.3292
10761TIP3    H253699   5.051   4.267  14.579  0.0200  2.3111 -1.9483
10762TIP3   OH253700   2.330   6.123  13.984 -0.2431 -0.1276 -0.1181
10762TIP3    H153701   2.320   6.176  13.905 -0.3251 -0.0008 -0.0228
10762TIP3    H253702   2.241   6.112  14.017 -0.2891 -0.8831 -0.5037
10763TIP3   OH253703   1.544   5.216  11.097 -0.0179 -0.0459  0.1208
10763TIP3    H153704   1.611   5.150  11.113 -0.0548 -0.4939 -1.4180
10763TIP3    H253705   1.588   5.281  11.042 -0.4299  0.4080  0.3303
10764TIP3   OH253706   6.029   4.315  14.363  0.0826 -0.5996  0.0108
10764TIP3    H153707   6.118   4.290  14.340  0.2955 -0.5593  0.7718
10764TIP3    H253708   5.974   4.250  14.320  0.4983 -0.8517 -0.1431
10765TIP3   OH253709   3.051   5.260   0.832 -0.3694  0.2250 -0.1637
10765TIP3    H153710   3.001   5.226   0.906  1.2105 -0.6433  0.5237
10765TIP3    H253711   3.123   5.309   0.872  0.8785 -0.8169 -1.1035
10766TIP3   OH253712   3.570   3.395   4.359  1.0932 -0.8211  0.6261
10766TIP3    H153713   3.591   3.321   4.302  1.9729  0.8800 -1.3339
10766TIP3    H253714   3.475   3.390   4.370  0.5647 -0.0090 -2.7752
10767TIP3   OH253715   1.497   3.250  13.574 -0.9301 -0.0736 -0.3426
10767TIP3    H153716   1.515   3.275  13.665  0.7808 -0.1340 -0.6392
10767TIP3    H253717   1.439   3.175  13.580 -0.4469 -0.3671  0.7155
10768TIP3   OH253718   3.080   0.205  10.895 -0.3922  0.1734 -0.3297
10768TIP3    H153719   3.048   0.214  10.806  0.9832 -0.7791 -0.9329
10768TIP3    H253720   3.153   0.267  10.901  0.1413 -0.4549 -0.1846
10769TIP3   OH253721   6.164   4.453  15.567  0.4110 -0.0542 -0.3859
10769TIP3    H153722   6.100   4.428  15.634  0.1735  0.9245 -0.2354
10769TIP3    H253723   6.229   4.504  15.615  0.5405  0.1668 -0.7998
10770TIP3   OH253724   5.932   3.325   6.123 -0.2173  0.1621  0.4190
10770TIP3    H153725   5.971   3.412   6.134 -2.0195  1.0137  0.2954
10770TIP3    H253726   5.848   3.330   6.168 -0.6074 -1.3288 -0.1013
10771TIP3   OH253727   1.059   2.785   5.000  0.4366  0.2082  0.4457
10771TIP3    H153728   1.074   2.717   5.066 -0.4232  0.4944  0.9470
10771TIP3    H253729   1.142   2.831   4.993  1.2597 -1.3418 -0.4196
10772TIP3   OH253730   4.821   6.011  17.092  0.0668 -0.3348 -0.3847
10772TIP3    H153731   4.886   5.964  17.040 -0.2077 -1.1196 -0.0167
10772TIP3    H253732   4.838   5.985  17.182  0.3198  0.7622 -0.1107
10773TIP3   OH253733   1.879   2.927  16.536  0.4026  0.1594  0.2884
10773TIP3    H153734   1.882   2.903  16.629 -0.0461 -0.3035  0.1838
10773TIP3    H253735   1.794   2.896  16.506  0.5479  0.3069 -0.2802
10774TIP3   OH253736   5.441   6.592  13.861 -0.2727 -0.0737 -0.1921
10774TIP3    H153737   5.529   6.596  13.824 -0.0876  0.8241  0.3156
10774TIP3    H253738   5.385   6.632  13.794 -0.0830  0.6449  0.0699
10775TIP3   OH253739   6.364   4.679   2.289 -0.0074  0.2773  0.4911
10775TIP3    H153740   6.384   4.625   2.365  1.4499  0.8101  0.5056
10775TIP3    H253741   6.271   4.662   2.271  0.1275 -1.2997  1.2105
10776TIP3   OH253742   6.187   0.524   1.245 -0.2058 -0.4405  0.1669
10776TIP3    H153743   6.222   0.611   1.228 -1.7075  0.1611  0.0568
10776TIP3    H253744   6.246   0.486   1.310 -0.8743  1.5536  1.9616
10777TIP3   OH253745   0.170   6.191  11.167 -0.0049  0.4186 -0.2233
10777TIP3    H153746   0.239   6.166  11.105  2.1289 -1.6267  2.7943
10777TIP3    H253747   0.101   6.125  11.154 -0.0469  0.6266 -1.1086
10778TIP3   OH253748   4.997   1.893   3.733 -0.2030  0.9010  0.1786
10778TIP3    H153749   4.913   1.860   3.699 -0.3540 -0.1197  1.4885
10778TIP3    H253750   4.999   1.863   3.824  1.9048  0.3056 -0.0355
10779TIP3   OH253751   3.149   4.438  11.718  0.3805  0.0216 -0.0114
10779TIP3    H153752   3.068   4.395  11.690 -0.1250  1.7282 -1.2612
10779TIP3    H253753   3.217   4.373  11.702 -0.5945 -1.0010 -0.0984
10780TIP3   OH253754   6.025   1.195   0.958  0.2203  0.4933 -0.3321
10780TIP3    H153755   5.931   1.208   0.949  0.0884 -1.3548 -1.8840
10780TIP3    H253756   6.034   1.129   1.027  0.4371  1.2232  0.3548
10781TIP3   OH253757   6.625   6.770   5.795 -0.3080 -0.5275 -0.3931
10781TIP3    H153758   6.718   6.790   5.792  0.0276 -2.2132 -1.7616
10781TIP3    H253759   6.582   6.850   5.766  0.7137  0.1165 -0.1599
10782TIP3   OH253760   5.755   3.800   3.875  0.1734  0.3448 -0.1527
10782TIP3    H153761   5.721   3.721   3.832 -0.9513 -0.1039  1.5068
10782TIP3    H253762   5.788   3.769   3.959  0.5085  1.5204  0.1573
10783TIP3   OH253763   0.767   0.352  16.593 -0.4527  0.1662  0.4139
10783TIP3    H153764   0.781   0.444  16.573 -0.1932 -0.1072 -0.6931
10783TIP3    H253765   0.763   0.309  16.508  0.3228 -0.9747  0.9358
10784TIP3   OH253766   0.621   3.299  15.724 -0.1397  0.1857 -0.4147
10784TIP3    H153767   0.664   3.368  15.673  1.0138 -0.5532 -0.4622
10784TIP3    H253768   0.680   3.223  15.717  0.7381  0.4426  3.0803
10785TIP3   OH253769   4.569   6.745  14.788  0.1949  0.1718 -0.3508
10785TIP3    H153770   4.511   6.818  14.811  0.6564  0.5667 -0.4356
10785TIP3    H253771   4.585   6.755  14.695  0.0318 -0.2062 -0.4208
10786TIP3   OH253772   4.828   1.808   4.418 -0.0368 -0.0086 -0.3907
10786TIP3    H153773   4.763   1.759   4.367 -1.5082  1.5790 -0.0698
10786TIP3    H253774   4.829   1.764   4.503 -1.5058  0.6270 -0.0323
10787TIP3   OH253775   1.002   2.982  10.434 -0.0909  0.0458 -0.0265
10787TIP3    H153776   0.984   2.938  10.517  1.3233 -0.9765 -0.2531
10787TIP3    H253777   0.915   3.007  10.401 -0.6524  0.7227  1.8788
10788TIP3   OH253778   2.312   5.037  15.334 -0.4783 -0.1413 -0.4220
10788TIP3    H153779   2.395   5.001  15.366 -0.0691  1.0871 -0.0588
10788TIP3    H253780   2.248   4.968  15.351  0.0974 -0.3088  1.1972
10789TIP3   OH253781   0.620   5.032   4.387 -0.6531  0.4327 -0.1667
10789TIP3    H153782   0.709   5.000   4.371 -0.8111  1.0405 -2.4098
10789TIP3    H253783   0.605   5.014   4.480  1.4323 -0.5972  0.0124
10790TIP3   OH253784   4.402   4.838   0.963  0.0699  0.1150 -1.3502
10790TIP3    H153785   4.339   4.767   0.952 -0.0763 -0.0635  0.4748
10790TIP3    H253786   4.451   4.841   0.881 -0.2428 -1.7743 -1.6101
10791TIP3   OH253787   4.671   1.241   1.572 -0.1161  0.0648 -0.0054
10791TIP3    H153788   4.620   1.319   1.547 -0.5194 -0.4483 -0.8162
10791TIP3    H253789   4.629   1.169   1.524  1.0614 -0.4501 -0.2777
10792TIP3   OH253790   1.157   2.788   1.279 -0.4211  0.3164  0.2261
10792TIP3    H153791   1.166   2.721   1.347 -0.3963  1.5825  1.4868
10792TIP3    H253792   1.244   2.828   1.274 -0.6860  0.8881  0.1558
10793TIP3   OH253793   3.240   0.480   2.746 -0.2571  0.0004  0.2528
10793TIP3    H153794   3.212   0.408   2.691  1.4310 -2.1733  2.1208
10793TIP3    H253795   3.335   0.486   2.732 -0.1904  1.0089  1.0663
10794TIP3   OH253796   5.673   0.285   5.633 -0.0823  0.1766  0.0464
10794TIP3    H153797   5.738   0.356   5.633  2.2795 -1.9075  0.8857
10794TIP3    H253798   5.657   0.269   5.726  0.3921 -1.2393 -0.1099
10795TIP3   OH253799   4.090   5.339  14.237 -0.6580 -0.1602 -0.3176
10795TIP3    H153800   4.121   5.285  14.310  0.2919 -1.3793 -1.6023
10795TIP3    H253801   4.130   5.425  14.252 -1.5606 -0.0138  1.3244
10796TIP3   OH253802   5.229   4.644   4.360  0.0446  0.3289 -0.2541
10796TIP3    H153803   5.295   4.608   4.419 -0.7770 -0.8693 -0.0467
10796TIP3    H253804   5.232   4.738   4.376  2.2067  0.3665 -0.7923
10797TIP3   OH253805   6.504   5.872  16.599  0.0115 -0.5888 -0.0459
10797TIP3    H153806   6.456   5.790  16.586 -0.6088 -0.1600 -0.5098
10797TIP3    H253807   6.558   5.856  16.676 -1.2670 -0.9200  0.8099
10798TIP3   OH253808   2.525   6.403  10.668  0.9255 -0.3607 -0.7790
10798TIP3    H153809   2.567   6.319  10.689  1.0274  0.1260  0.9947
10798TIP3    H253810   2.559   6.425  10.581  1.3476 -1.8689 -1.0188
10799TIP3   OH253811   4.717   3.078  12.049  0.0051 -0.2678  0.0433
10799TIP3    H153812   4.780   3.010  12.024  0.3848  0.3542 -0.7572
10799TIP3    H253813   4.669   3.097  11.968 -0.5154 -0.0204  0.4074
10800TIP3   OH253814   5.441   4.753   3.336 -0.2427  0.0223  0.2419
10800TIP3    H153815   5.454   4.820   3.402 -0.6339 -1.1823  1.5592
10800TIP3    H253816   5.529   4.721   3.316 -0.1976 -0.1840  0.7808
10801TIP3   OH253817   0.522   2.442  12.409  0.2297  0.4165 -0.2165
10801TIP3    H153818   0.447   2.427  12.352  1.1815  0.8363 -1.6182
10801TIP3    H253819   0.494   2.412  12.495 -1.5149  0.5122 -0.7360
10802TIP3   OH253820   5.723   6.572  13.318  0.4946 -0.0316 -0.0768
10802TIP3    H153821   5.770   6.606  13.242 -0.0871 -2.3694 -1.4978
10802TIP3    H253822   5.778   6.500  13.350  1.2981  1.6049  2.4307
10803TIP3   OH253823   4.243   1.123  11.748  0.5481 -0.5262 -0.3395
10803TIP3    H153824   4.312   1.157  11.805  0.5187 -1.2649  0.1433
10803TIP3    H253825   4.287   1.105  11.665  0.9385 -0.9713 -0.0405
10804TIP3   OH253826   4.838   4.632   3.971  0.0879  0.8334  0.4340
10804TIP3    H153827   4.778   4.661   4.040 -0.2248 -1.7271  1.2885
10804TIP3    H253828   4.782   4.622   3.893 -0.3818 -0.2631  0.8921
10805TIP3   OH253829   1.657   4.010   3.938  0.0472  0.1455 -0.4237
10805TIP3    H153830   1.691   3.952   4.007  0.9560  1.3103  0.1209
10805TIP3    H253831   1.731   4.023   3.879 -0.4027  0.0718 -1.0074
10806TIP3   OH253832   6.571   4.877  12.075 -0.0364 -0.2774  0.2880
10806TIP3    H153833   6.612   4.791  12.083  0.0032 -0.4210 -1.2448
10806TIP3    H253834   6.519   4.871  11.994 -4.7593 -0.7901  3.1354
10807TIP3   OH253835   1.922   3.804   3.151  0.1262  0.2898 -0.3046
10807TIP3    H153836   1.872   3.762   3.080 -0.1869  2.7363 -1.5727
10807TIP3    H253837   1.974   3.732   3.188 -1.0304 -1.4083 -1.8537
10808TIP3   OH253838   3.819   2.622  12.564 -0.1708 -0.1506 -0.3879
10808TIP3    H153839   3.797   2.715  12.570 -1.3398 -0.2926 -1.8607
10808TIP3    H253840   3.750   2.578  12.613 -0.1725 -0.2946 -0.5186
10809TIP3   OH253841   6.153   6.429  12.284  0.7017 -0.3413 -0.0933
10809TIP3    H153842   6.246   6.452  12.275  1.0564 -1.8097 -0.2633
10809TIP3    H253843   6.154   6.346  12.332 -0.6580  1.3713  3.0427
10810TIP3   OH253844   4.729   2.751  13.925  0.0684 -0.5949 -0.2012
10810TIP3    H153845   4.725   2.656  13.924 -2.1752 -0.5235 -0.0461
10810TIP3    H253846   4.673   2.777  13.999 -0.4240  0.8693 -1.0608
10811TIP3   OH253847   0.886   1.960  12.371  0.7659 -0.2954 -0.0665
10811TIP3    H153848   0.966   1.989  12.326  1.3954 -0.5595  0.8686
10811TIP3    H253849   0.896   1.865  12.377 -0.6193 -0.5689 -1.8406
10812TIP3   OH253850   1.919   4.719   4.866  0.0568 -0.5332 -0.3531
10812TIP3    H153851   1.958   4.807   4.867 -1.3605  0.1061  0.3466
10812TIP3    H253852   1.983   4.665   4.821  0.4267  1.1136 -1.8544
10813TIP3   OH253853   2.726   2.891  14.215 -0.0164  0.0204  0.4109
10813TIP3    H153854   2.766   2.851  14.292 -3.2696 -0.9463  1.6670
10813TIP3    H253855   2.642   2.847  14.205 -0.4963  1.4701 -2.5712
10814TIP3   OH253856   1.620   1.887   3.730  0.0193 -0.7608  0.0271
10814TIP3    H153857   1.570   1.886   3.812  1.2371 -1.0635  0.7769
10814TIP3    H253858   1.560   1.849   3.666 -0.7700 -0.9943  0.8875
10815TIP3   OH253859   4.636   5.805   2.225 -0.4164 -0.1304  0.1649
10815TIP3    H153860   4.560   5.837   2.177 -0.3808  0.7671  0.6957
10815TIP3    H253861   4.602   5.782   2.311 -0.3452 -1.0618 -0.0487
10816TIP3   OH253862   3.364   2.893   3.192  0.0785  0.2237  0.0455
10816TIP3    H153863   3.433   2.842   3.234  2.4401  2.8188 -0.5498
10816TIP3    H253864   3.408   2.971   3.159 -3.2176  2.1974  0.0471
10817TIP3   OH253865   0.421   0.805   0.001 -0.5056 -0.1849  0.0933
10817TIP3    H153866   0.464   0.757  -0.070  1.3783 -0.9318  1.6661
10817TIP3    H253867   0.488   0.867   0.031 -0.3105 -1.6203  2.8482
10818TIP3   OH253868   3.559   2.138  12.716 -0.1881 -0.0328  0.6816
10818TIP3    H153869   3.631   2.198  12.698  0.6448 -0.7298  1.6634
10818TIP3    H253870   3.500   2.149  12.641  0.1067  1.7628  0.6927
10819TIP3   OH253871   0.873   4.532  12.476  0.6253 -0.2875 -0.1532
10819TIP3    H153872   0.949   4.532  12.417  0.0183  0.0174 -0.9574
10819TIP3    H253873   0.909   4.513  12.562  1.2146 -3.4360 -1.0313
10820TIP3   OH253874   5.004   4.406  15.714  0.4782 -0.1337 -0.0787
10820TIP3    H153875   5.010   4.313  15.691 -0.8441 -0.3558  0.4032
10820TIP3    H253876   5.040   4.452  15.639  1.8566 -1.0559 -0.0122
10821TIP3   OH253877   2.356   0.832   4.317  0.3148 -0.4122  1.0789
10821TIP3    H153878   2.316   0.864   4.236 -1.0755  1.5559  2.5192
10821TIP3    H253879   2.437   0.882   4.324  0.9343 -1.2977  0.4183
10822TIP3   OH253880   6.450   2.728  16.818  0.8740 -1.0581  0.6993
10822TIP3    H153881   6.405   2.646  16.835 -2.6557  0.6168  0.0287
10822TIP3    H253882   6.521   2.732  16.883  0.8704 -4.3893  0.9606
10823TIP3   OH253883   4.149   4.580  16.701  0.4135 -0.0300 -0.0679
10823TIP3    H153884   4.186   4.519  16.638  0.6595  0.4186 -0.3608
10823TIP3    H253885   4.093   4.638  16.649  0.7824  0.4725  0.0919
10824TIP3   OH253886   1.472   5.833   0.494  0.5909 -0.1108  0.0916
10824TIP3    H153887   1.417   5.911   0.485  1.5337  0.5487 -0.0552
10824TIP3    H253888   1.553   5.856   0.448  0.4724 -1.5849 -0.8834
10825TIP3   OH253889   2.288   0.316  11.925 -0.3277 -0.0031 -0.2792
10825TIP3    H153890   2.329   0.389  11.879 -0.0572  1.0336  1.5763
10825TIP3    H253891   2.220   0.356  11.978 -1.6174 -1.3601 -0.8831
10826TIP3   OH253892   6.105   3.192   2.755 -0.4968 -0.3089  0.3782
10826TIP3    H153893   6.174   3.247   2.791 -0.8766  0.1237  0.4555
10826TIP3    H253894   6.037   3.193   2.823 -1.0594  0.2117 -0.1861
10827TIP3   OH253895   5.994   6.182   0.998  0.5922 -0.6875  0.0452
10827TIP3    H153896   6.027   6.195   0.909  0.7415  0.4639  0.2654
10827TIP3    H253897   5.940   6.103   0.992 -1.8503  1.0499 -1.7308
10828TIP3   OH253898   5.065   2.251   2.756 -0.0626  0.5058  0.0200
10828TIP3    H153899   5.066   2.311   2.831  2.0582  2.6122 -1.6133
10828TIP3    H253900   4.993   2.281   2.701  0.9312  1.5339 -0.7441
10829TIP3   OH253901   3.212   6.776  12.317 -0.2188  0.5566  0.0469
10829TIP3    H153902   3.160   6.816  12.248  0.1907  1.9355  0.5279
10829TIP3    H253903   3.190   6.826  12.396  1.2847  0.6740  0.4029
10830TIP3   OH253904   2.747   4.258   0.906 -0.1527  0.0290  0.0094
10830TIP3    H153905   2.692   4.237   0.831  0.4566  0.0168 -0.4351
10830TIP3    H253906   2.705   4.214   0.980 -0.0910 -0.9543 -0.5394
10831TIP3   OH253907   5.100   3.855  16.500 -0.3027 -0.0901 -0.1856
10831TIP3    H153908   5.162   3.917  16.464  2.2090 -2.4235 -0.0278
10831TIP3    H253909   5.014   3.889  16.474  0.9078  4.0178  0.9258
10832TIP3   OH253910   2.342   1.661  11.244  0.3155  0.2681 -0.0794
10832TIP3    H153911   2.298   1.627  11.166  0.5806 -3.0788  1.1439
10832TIP3    H253912   2.283   1.729  11.277 -0.0656  1.3470 -2.8341
10833TIP3   OH253913   1.780   0.848  13.377  0.4320 -0.2282  0.2394
10833TIP3    H153914   1.874   0.834  13.388  0.5846  0.3410 -0.2511
10833TIP3    H253915   1.773   0.939  13.346 -0.2383 -0.4475 -0.2740
10834TIP3   OH253916   4.815   0.786  12.678  0.2421 -0.2074  0.3926
10834TIP3    H153917   4.812   0.863  12.734  1.2218 -0.2066  0.4548
10834TIP3    H253918   4.727   0.749  12.682  0.2333 -0.0428  1.7010
10835TIP3   OH253919   4.107   6.102   1.530 -0.4244  0.2295 -0.3889
10835TIP3    H153920   4.127   6.024   1.582 -0.5407  0.2880 -0.2547
10835TIP3    H253921   4.097   6.070   1.441 -2.2447 -0.1881 -0.0573
10836TIP3   OH253922   5.307   3.125  15.662  0.0662 -0.1483 -0.2038
10836TIP3    H153923   5.264   3.210  15.666  1.4851  0.5183  1.6053
10836TIP3    H253924   5.399   3.143  15.685  0.3290 -2.1777  0.4758
10837TIP3   OH253925   0.335   0.768   1.614 -0.0587 -0.6715 -0.1313
10837TIP3    H153926   0.414   0.731   1.653  0.4767 -2.2344 -2.6320
10837TIP3    H253927   0.324   0.722   1.531 -4.0637 -1.0759  0.5061
10838TIP3   OH253928   5.114   3.451   4.096 -0.1887  0.3790 -0.0496
10838TIP3    H153929   5.112   3.547   4.096 -0.0813  0.3828 -0.3368
10838TIP3    H253930   5.064   3.427   4.018 -0.5592  0.1917  0.2401
10839TIP3   OH253931   2.694   4.601   4.104  0.0359 -0.3082  0.1777
10839TIP3    H153932   2.631   4.598   4.032 -0.6049 -0.3229  0.7447
10839TIP3    H253933   2.749   4.677   4.083  0.3013 -0.7246 -0.6951
10840TIP3   OH253934   5.750   2.343   2.543 -0.6748 -0.1750 -0.3184
10840TIP3    H153935   5.680   2.341   2.478 -1.0088 -0.9700  0.0583
10840TIP3    H253936   5.720   2.285   2.613 -0.2125  0.4815  0.4376
10841TIP3   OH253937   0.423   4.751  14.572 -0.4633 -0.5012 -0.6899
10841TIP3    H153938   0.390   4.804  14.500 -0.4254 -0.0400 -0.3701
10841TIP3    H253939   0.347   4.704  14.604 -0.6444 -0.0861 -0.5052
10842TIP3   OH253940   2.222   2.538   0.338  0.3153  0.4006 -0.1135
10842TIP3    H153941   2.150   2.600   0.350  0.1818  0.0447  0.8834
10842TIP3    H253942   2.295   2.577   0.386 -0.1718 -0.9231  1.7143
10843TIP3   OH253943   6.536   5.165  16.645 -0.9838 -0.2543  0.3527
10843TIP3    H153944   6.485   5.216  16.582  0.0394 -0.3496 -0.5569
10843TIP3    H253945   6.626   5.194  16.632 -0.7156 -0.5099  1.5515
10844TIP3   OH253946   5.652   6.423   1.730 -0.4188  0.0489  0.0797
10844TIP3    H153947   5.666   6.418   1.635 -0.2794  0.3306  0.0849
10844TIP3    H253948   5.597   6.347   1.750 -0.9275  0.3031 -0.3172
10845TIP3   OH253949   4.310   5.437   6.491 -0.2206 -0.4538  0.9054
10845TIP3    H153950   4.392   5.437   6.441 -0.6606  0.9011  0.1713
10845TIP3    H253951   4.297   5.528   6.515 -1.8183 -0.5791  0.5359
10846TIP3   OH253952   0.058   4.187   4.180 -0.6034  0.6191  0.1070
10846TIP3    H153953  -0.029   4.227   4.170  0.0133  1.5378 -2.0312
10846TIP3    H253954   0.057   4.112   4.121  0.0938  0.7179 -0.0371
10847TIP3   OH253955   0.930   2.194   5.013  0.2645 -0.0886 -0.1402
10847TIP3    H153956   0.953   2.235   5.096  0.1310 -1.3366  0.5230
10847TIP3    H253957   1.014   2.187   4.966  0.5699 -0.7545  0.5053
10848TIP3   OH253958   2.856   4.278  17.103  0.3036  0.6739 -0.3266
10848TIP3    H153959   2.902   4.293  17.021  2.2418 -0.2659  0.5431
10848TIP3    H253960   2.910   4.322  17.169  1.0246 -2.0170  0.9505
10849TIP3   OH253961   6.590   4.278  13.267 -0.4874  0.6204  0.1374
10849TIP3    H153962   6.495   4.292  13.267 -0.8447 -1.5689  1.5486
10849TIP3    H253963   6.601   4.196  13.218  0.5416  0.1839  1.0858
10850TIP3   OH253964   1.372   4.601  10.973  0.0239 -0.9424  0.3811
10850TIP3    H153965   1.428   4.677  10.987 -1.6178  0.2007  0.8829
10850TIP3    H253966   1.429   4.536  10.933  1.3937  0.6443 -0.2874
10851TIP3   OH253967   4.773   5.207  12.759  0.0649  0.7082  0.0615
10851TIP3    H153968   4.714   5.251  12.698 -0.9705 -0.9872 -0.2035
10851TIP3    H253969   4.723   5.198  12.840 -0.6108 -1.9783 -0.5965
10852TIP3   OH253970   1.733   4.837  13.352 -0.3868 -0.5792 -0.1552
10852TIP3    H153971   1.664   4.893  13.387  0.2057 -1.3779  2.4128
10852TIP3    H253972   1.753   4.776  13.423  2.9748 -0.3407 -0.7897
10853TIP3   OH253973   4.713   1.727  14.180 -0.1493 -0.1468  0.0093
10853TIP3    H153974   4.746   1.812  14.152 -0.0698 -0.0252  0.4768
10853TIP3    H253975   4.732   1.723  14.274  1.9458 -1.6249 -0.4220
10854TIP3   OH253976   6.754   5.985  16.733  0.0866 -0.1292  0.8305
10854TIP3    H153977   6.799   5.913  16.689  0.8238  0.5477  0.4743
10854TIP3    H253978   6.759   6.058  16.672  2.6177  1.3384  2.6951
10855TIP3   OH253979   1.073   0.189  15.562  0.7949 -0.5558  0.0371
10855TIP3    H153980   1.152   0.142  15.536  0.8891 -0.2888 -0.1664
10855TIP3    H253981   1.088   0.211  15.654  1.3082  0.1927 -0.2192
10856TIP3   OH253982   5.825   3.816  13.604 -0.1221  0.4552  0.6918
10856TIP3    H153983   5.913   3.851  13.591  0.0759 -0.0248  0.7151
10856TIP3    H253984   5.823   3.736  13.551 -1.2911  1.6436 -1.1276
10857TIP3   OH253985   1.122   5.840  12.280 -0.1152  0.2800 -0.1255
10857TIP3    H153986   1.055   5.772  12.286 -0.6791  0.7119 -1.4140
10857TIP3    H253987   1.073   5.922  12.280  0.4941  0.6471  0.1773
10858TIP3   OH253988   3.230   6.375   4.916 -0.1620 -0.1277 -0.2309
10858TIP3    H153989   3.180   6.385   4.835  2.6364  2.0890 -1.7780
10858TIP3    H253990   3.261   6.284   4.914 -1.9608 -0.7589 -0.4902
10859TIP3   OH253991   0.869   5.419   5.306  0.1829 -0.3851  0.0829
10859TIP3    H153992   0.913   5.476   5.244 -1.0968  0.8328  0.2532
10859TIP3    H253993   0.928   5.414   5.381  0.1252  1.0847  0.2380
10860TIP3   OH253994   3.430   5.474  14.703  0.3642  0.6082 -0.1490
10860TIP3    H153995   3.406   5.381  14.696 -0.2960  0.7099  0.6945
10860TIP3    H253996   3.448   5.487  14.796 -0.7366  1.5984 -0.0663
10861TIP3   OH253997   4.334   2.814   4.107  0.2001  0.2780  0.5556
10861TIP3    H153998   4.294   2.832   4.193 -1.7199  1.0090 -0.4719
10861TIP3    H253999   4.382   2.895   4.086 -0.6339  0.6931  0.2314
10862TIP3   OH254000   3.599   3.940  15.591  0.3369 -0.9921  0.0884
10862TIP3    H154001   3.670   3.903  15.539  0.8281  0.0427 -0.0002
10862TIP3    H254002   3.553   3.864  15.626 -0.8679 -1.7465 -2.9822
10863TIP3   OH254003   0.496   0.850   0.347 -0.1788 -0.1291  0.3993
10863TIP3    H154004   0.527   0.902   0.272 -2.1515  1.6445  0.7720
10863TIP3    H254005   0.506   0.759   0.319  1.5483  0.4611 -1.0090
10864TIP3   OH254006   4.462   1.140  13.777  0.3618 -0.5032  0.4947
10864TIP3    H154007   4.498   1.144  13.865 -1.3599  1.7228  1.1484
10864TIP3    H254008   4.467   1.230  13.745 -1.1827 -0.8552 -0.7766
10865TIP3   OH254009   2.480   2.821   5.518  0.0765 -0.1673 -0.1133
10865TIP3    H154010   2.549   2.813   5.584  0.8788  0.7187 -0.8418
10865TIP3    H254011   2.406   2.858   5.565 -0.3942 -2.4406  1.0083
10866TIP3   OH254012   0.849   4.756   0.587  0.4187 -0.4445 -0.8705
10866TIP3    H154013   0.756   4.744   0.607  0.9377 -1.6124  0.9179
10866TIP3    H254014   0.850   4.780   0.494 -1.7763  1.2684 -0.4850
10867TIP3   OH254015   2.270   1.993  12.535 -0.4839  0.1201 -0.1659
10867TIP3    H154016   2.309   1.944  12.607 -1.5649  0.5784  0.7478
10867TIP3    H254017   2.249   2.078  12.573 -2.2235 -0.0734 -0.6789
10868TIP3   OH254018   6.048   3.969  10.834 -0.5027  0.4337 -0.6069
10868TIP3    H154019   5.995   4.048  10.832 -2.6836 -0.9470  0.2726
10868TIP3    H254020   6.138   4.000  10.846 -1.2291  2.7788 -1.0311
10869TIP3   OH254021   4.975   3.119  14.252  0.1367 -0.4457  0.0554
10869TIP3    H154022   5.028   3.183  14.300 -1.8439 -0.7352  2.7183
10869TIP3    H254023   5.003   3.034  14.285 -0.0068 -0.7511 -0.6007
10870TIP3   OH254024   6.600   0.055  12.578  0.3791 -0.6244 -0.3782
10870TIP3    H154025   6.591   0.001  12.499 -0.5796 -0.2793 -0.5158
10870TIP3    H254026   6.569   0.142  12.551  0.9772 -0.2625  0.1141
10871TIP3   OH254027   3.376   5.848   4.325 -0.1094 -0.4430  0.0234
10871TIP3    H154028   3.406   5.757   4.324  2.4980  0.3813 -1.0438
10871TIP3    H254029   3.401   5.881   4.412  0.1876 -0.3881 -0.0789
10872TIP3   OH254030   2.466   0.395   2.548 -0.0904 -0.4455  0.2580
10872TIP3    H154031   2.392   0.357   2.501  0.8120 -2.4236  0.3494
10872TIP3    H254032   2.503   0.322   2.598  0.9576  0.8666  1.4644
10873TIP3   OH254033   3.682   2.178  15.563 -0.1116  0.4307 -0.4300
10873TIP3    H154034   3.726   2.179  15.478  1.8237 -0.9576  0.5160
10873TIP3    H254035   3.737   2.232  15.620 -1.4732  1.4846 -0.0793
10874TIP3   OH254036   2.475   6.416  12.702 -0.6342  0.3598  0.4642
10874TIP3    H154037   2.504   6.398  12.791 -0.7479  1.2537  0.6901
10874TIP3    H254038   2.543   6.473  12.666 -0.3256 -0.4126 -0.2009
10875TIP3   OH254039   2.467   2.319  12.426  0.2873  0.3590  0.8535
10875TIP3    H154040   2.389   2.346  12.378 -0.0149 -0.3849  0.9236
10875TIP3    H254041   2.504   2.401  12.460  0.7265  0.9569 -0.9627
10876TIP3   OH254042   4.039   5.874   5.468 -0.4042  0.3088  0.2335
10876TIP3    H154043   4.025   5.874   5.563 -3.2061  0.9565 -0.1336
10876TIP3    H254044   3.965   5.825   5.433 -0.6883  2.0912 -1.7848
10877TIP3   OH254045   6.514   2.470  14.572  0.1454 -0.4594  0.2650
10877TIP3    H154046   6.488   2.556  14.538  0.7192  0.2593  1.5719
10877TIP3    H254047   6.608   2.464  14.555 -0.1268 -1.3966 -0.9797
10878TIP3   OH254048   1.191   5.660  14.867  0.3340  0.1262 -0.7418
10878TIP3    H154049   1.128   5.617  14.924 -0.5129  1.7176 -0.4481
10878TIP3    H254050   1.266   5.678  14.923 -0.3371  1.3269 -0.1977
10879TIP3   OH254051   3.393   4.089  16.353 -0.3426 -0.3143 -0.4595
10879TIP3    H154052   3.471   4.101  16.300  0.0607 -0.2307  0.1460
10879TIP3    H254053   3.346   4.017  16.312  1.3012 -2.0564  0.6249
10880TIP3   OH254054   2.831   4.036  15.167  0.0253 -0.6600  0.0590
10880TIP3    H154055   2.914   4.029  15.120 -0.3790 -1.2050 -0.6000
10880TIP3    H254056   2.766   3.998  15.106 -0.5171 -1.3110  1.0202
10881TIP3   OH254057   4.991   5.970   0.703 -0.2151  0.0402 -0.0073
10881TIP3    H154058   4.953   5.886   0.729 -0.7428 -0.0903 -1.1787
10881TIP3    H254059   4.973   5.977   0.609  0.2588  1.2378 -0.0206
10882TIP3   OH254060   1.364   1.743  16.510 -0.9659 -0.0248 -0.5958
10882TIP3    H154061   1.376   1.648  16.510  0.2980  0.1134  0.0531
10882TIP3    H254062   1.355   1.765  16.603 -0.6145  0.5575 -0.6978
10883TIP3   OH254063   1.136   1.706   4.734 -0.4869  0.5209  0.1215
10883TIP3    H154064   1.064   1.687   4.795 -0.4017 -0.4993 -0.0835
10883TIP3    H254065   1.179   1.621   4.721  0.4544  1.0334 -0.1408
10884TIP3   OH254066   1.352   1.275   2.981 -0.7903 -0.5247 -0.0039
10884TIP3    H154067   1.399   1.358   2.989 -0.4881 -0.6337 -0.6677
10884TIP3    H254068   1.394   1.230   2.908 -2.2347 -0.4193 -0.9166
10885TIP3   OH254069   3.430   2.485   2.692  0.0168 -0.0515 -0.1221
10885TIP3    H154070   3.447   2.571   2.728 -3.4867  0.6013  0.1291
10885TIP3    H254071   3.393   2.502   2.605  1.6110 -1.3823 -1.0886
10886TIP3   OH254072   3.571   4.999   0.719  0.3178 -0.0513 -0.3911
10886TIP3    H154073   3.502   5.064   0.706  0.3371 -0.0834 -0.6634
10886TIP3    H254074   3.531   4.915   0.696  0.5200 -0.0379 -0.8147
10887TIP3   OH254075   4.879   1.876   6.330  0.0933  0.3249  0.1094
10887TIP3    H154076   4.848   1.965   6.348 -0.3878  0.2669 -0.4092
10887TIP3    H254077   4.817   1.820   6.377 -0.5704  0.2089 -0.8934
10888TIP3   OH254078   0.867   1.616  15.484  0.5135 -0.3856  0.5236
10888TIP3    H154079   0.956   1.643  15.460  0.5568  0.6728  1.8352
10888TIP3    H254080   0.837   1.563  15.410  2.5761 -1.5106  0.4593
10889TIP3   OH254081   0.186   2.650   4.919  0.5071 -0.2897 -0.1868
10889TIP3    H154082   0.123   2.579   4.908 -0.5822  0.5846  0.2906
10889TIP3    H254083   0.163   2.713   4.851  0.3694  0.3779  0.4727
10890TIP3   OH254084   5.712   5.563  11.008 -0.5401  0.1901  0.2132
10890TIP3    H154085   5.729   5.576  10.915 -0.5647 -0.2537  0.1458
10890TIP3    H254086   5.798   5.569  11.049 -0.6483  1.4162  0.2911
10891TIP3   OH254087   3.688   1.815   1.247  0.1564  0.6263 -0.6583
10891TIP3    H154088   3.766   1.868   1.266  1.0245 -0.6936 -0.4194
10891TIP3    H254089   3.665   1.776   1.331 -2.3498  3.0449 -0.1774
10892TIP3   OH254090   0.816   3.074  15.902 -0.1120  0.4538  0.1916
10892TIP3    H154091   0.909   3.052  15.905 -0.2576 -0.1706  0.2638
10892TIP3    H254092   0.782   3.023  15.828 -0.5055  0.2542  0.5106
10893TIP3   OH254093   0.412   5.241   2.004 -0.1038  0.1298  0.3710
10893TIP3    H154094   0.496   5.195   2.003  0.3965  1.0473 -1.8851
10893TIP3    H254095   0.436   5.334   2.009 -0.8975  0.5165 -2.5453
10894TIP3   OH254096   3.430   4.199   4.933  0.7246  0.3198  0.2320
10894TIP3    H154097   3.511   4.250   4.924  0.6019  0.3797 -0.6074
10894TIP3    H254098   3.456   4.109   4.915  0.3169  0.5556 -1.6524
10895TIP3   OH254099   3.793   3.888  13.366  0.4318 -0.2857 -0.3900
10895TIP3    H154100   3.850   3.867  13.292  1.3584 -0.1880  0.2873
10895TIP3    H254101   3.815   3.823  13.432 -0.2255 -0.2266 -0.1061
10896TIP3   OH254102   6.769   5.978   3.613  0.0194  0.2321 -0.3336
10896TIP3    H154103   6.856   5.973   3.575 -0.5772 -0.6270 -1.6595
10896TIP3    H254104   6.776   5.933   3.697  1.0363  0.8928 -0.0642
10897TIP3   OH254105   6.522   0.143  12.947 -0.1414 -0.0591 -0.1746
10897TIP3    H154106   6.591   0.209  12.942 -0.1306 -0.1035 -0.5769
10897TIP3    H254107   6.555   0.080  13.012  0.8197 -0.8083 -1.3662
10898TIP3   OH254108   2.275   3.328   0.785  0.1313  0.1472 -0.0688
10898TIP3    H154109   2.279   3.248   0.836 -0.0902 -0.1146 -0.4600
10898TIP3    H254110   2.285   3.299   0.694  0.2280  0.5780 -0.1982
10899TIP3   OH254111   0.889   0.027   2.767  0.2780  0.1478  0.0944
10899TIP3    H154112   0.836  -0.020   2.703  0.2319 -0.7809  0.8009
10899TIP3    H254113   0.857  -0.003   2.852  1.0239  0.5941  0.5459
10900TIP3   OH254114   1.539   6.009  12.783 -0.2091 -0.4400  0.1973
10900TIP3    H154115   1.539   5.923  12.826 -1.9467 -0.8674 -0.5790
10900TIP3    H254116   1.535   5.988  12.690 -0.5036  0.4757  0.0042
10901TIP3   OH254117   3.162   4.042  15.252 -0.2826  0.6393 -0.1741
10901TIP3    H154118   3.106   4.112  15.283  0.6655  0.1510  2.8518
10901TIP3    H254119   3.247   4.083  15.236 -0.0676  0.4204  0.3896
10902TIP3   OH254120   4.554   5.187  16.242 -0.4587  0.6156 -0.4522
10902TIP3    H154121   4.584   5.099  16.219  0.5789  1.0168 -0.6578
10902TIP3    H254122   4.528   5.180  16.334 -1.6460 -0.2246 -0.8516
10903TIP3   OH254123   1.393   2.193   5.541  0.1230 -0.0767  0.2258
10903TIP3    H154124   1.417   2.101   5.550 -1.6408 -0.6896 -0.8749
10903TIP3    H254125   1.347   2.214   5.622 -0.5566 -0.5523 -0.0241
10904TIP3   OH254126   6.720   5.624   3.342  0.1959 -0.5640 -0.0169
10904TIP3    H154127   6.708   5.547   3.398 -1.0528 -0.2126  0.2038
10904TIP3    H254128   6.804   5.661   3.371 -0.8413  0.1019  2.2244
10905TIP3   OH254129   5.946   4.050  15.880  0.1582 -0.6031  0.1994
10905TIP3    H154130   6.018   3.989  15.859 -0.3234 -0.9346 -0.5102
10905TIP3    H254131   5.962   4.074  15.971  1.4283 -0.3228 -0.0855
10906TIP3   OH254132   1.232   6.044   2.282 -0.0305 -0.3764 -0.1224
10906TIP3    H154133   1.216   5.951   2.297  1.5187 -0.4049  1.5162
10906TIP3    H254134   1.274   6.074   2.363 -1.5450  2.0069 -0.1932
10907TIP3   OH254135   2.360   1.112   5.294  0.3493  0.4009  0.3795
10907TIP3    H154136   2.333   1.158   5.373 -1.1634 -0.8173  0.5876
10907TIP3    H254137   2.285   1.058   5.270  0.7739  0.7554 -1.9026
10908TIP3   OH254138   0.085   4.270   5.940  0.1762  0.3395 -0.5195
10908TIP3    H154139   0.122   4.314   6.017 -0.8265 -1.1581  0.8593
10908TIP3    H254140   0.026   4.204   5.977  1.5857 -2.1296 -2.4938
10909TIP3   OH254141   0.653   2.840   0.215 -0.5561 -0.4000  0.5321
10909TIP3    H154142   0.707   2.906   0.172  0.9071 -0.6613  1.9318
10909TIP3    H254143   0.602   2.800   0.144 -0.4219  1.2518 -0.5148
10910TIP3   OH254144   5.109   4.990   2.854  0.1368  1.0338  0.0816
10910TIP3    H154145   5.097   5.066   2.797 -0.1076  2.9249  2.5507
10910TIP3    H254146   5.204   4.982   2.863  0.2074  0.1271 -1.3322
10911TIP3   OH254147   4.040   5.192   2.217  0.2465 -0.1206  0.0271
10911TIP3    H154148   4.042   5.246   2.138  0.0315 -1.1797 -0.7149
10911TIP3    H254149   3.947   5.191   2.244 -0.1277 -1.9395 -1.2499
10912TIP3   OH254150   5.390   5.537   2.057  0.5115  0.4094 -0.2285
10912TIP3    H154151   5.360   5.488   1.980  3.2997  2.4609 -2.7689
10912TIP3    H254152   5.451   5.478   2.101 -0.7170 -0.6009  0.1222
10913TIP3   OH254153   0.258   5.437  16.207  0.6989  0.1681 -0.4517
10913TIP3    H154154   0.330   5.380  16.180  2.1465  0.9341  1.6440
10913TIP3    H254155   0.230   5.401  16.291 -1.0024  0.2215 -0.9900
10914TIP3   OH254156   3.775   5.996   1.585  0.0210  0.4575  0.1911
10914TIP3    H154157   3.751   5.966   1.497 -1.7403  2.4653 -0.0574
10914TIP3    H254158   3.859   5.954   1.603  1.0538  1.0270 -3.0032
10915TIP3   OH254159   2.636   1.372   1.891  0.0383 -0.7061 -0.3423
10915TIP3    H154160   2.541   1.363   1.890  0.0442 -0.7833 -0.2613
10915TIP3    H254161   2.667   1.293   1.937  0.1606 -0.8433 -0.6608
10916TIP3   OH254162   1.975   0.118  17.117 -0.3778 -0.4718 -0.3180
10916TIP3    H154163   1.926   0.200  17.125 -1.4168 -1.1209  0.1261
10916TIP3    H254164   1.921   0.063  17.059  1.0922 -0.2747 -1.9411
10917TIP3   OH254165   6.350   0.768   4.947  0.4041 -0.0875 -0.2629
10917TIP3    H154166   6.352   0.673   4.930 -1.9260  0.0605 -1.5101
10917TIP3    H254167   6.442   0.794   4.943  0.9830 -2.1103 -1.0852
10918TIP3   OH254168   3.159   4.576   0.302  0.0463  0.5697  0.2532
10918TIP3    H154169   3.119   4.500   0.345  2.8399 -2.1496 -1.7588
10918TIP3    H254170   3.178   4.636   0.374 -1.1802 -1.1220  2.0553
10919TIP3   OH254171   3.868   5.878   5.939 -0.2634  0.7811 -0.1731
10919TIP3    H154172   3.892   5.966   5.968 -0.7463  0.2794  1.8061
10919TIP3    H254173   3.791   5.855   5.992 -0.2585 -0.7581 -0.8072
10920TIP3   OH254174   2.801   2.549   3.025  0.3402 -0.1371 -0.0450
10920TIP3    H154175   2.834   2.609   3.092 -0.7681  0.1228  0.2796
10920TIP3    H254176   2.724   2.509   3.065 -0.5874  0.3429 -1.3307
10921TIP3   OH254177   1.387   2.677   3.427 -0.1469 -0.2529  0.1174
10921TIP3    H154178   1.361   2.712   3.512 -1.3988 -2.1118  0.5260
10921TIP3    H254179   1.379   2.582   3.437 -0.4588 -0.4764 -2.1185
10922TIP3   OH254180   6.248   2.310  13.752 -0.1981 -0.8378  0.2735
10922TIP3    H154181   6.186   2.246  13.788 -0.7196 -0.6200 -0.2268
10922TIP3    H254182   6.224   2.392  13.794  0.2720 -0.9122  0.6841
10923TIP3   OH254183   3.695   1.090   1.836 -0.0724  0.3090  0.0236
10923TIP3    H154184   3.606   1.052   1.835 -0.3658  1.0115 -0.4614
10923TIP3    H254185   3.753   1.014   1.829 -0.7012  0.1931 -5.5227
10924TIP3   OH254186   1.224   1.405  14.441  0.0430 -0.6964 -0.4386
10924TIP3    H154187   1.268   1.320  14.440  2.2047  0.3647  0.1068
10924TIP3    H254188   1.296   1.469  14.447 -1.5132  1.1807 -1.1858
10925TIP3   OH254189   3.481   0.963  10.710  0.1347  0.3463  0.3073
10925TIP3    H154190   3.407   0.949  10.768  0.2473 -0.5423  0.2381
10925TIP3    H254191   3.481   0.887  10.652  0.4337  0.8896 -0.4137
10926TIP3   OH254192   2.260   4.460   2.576  0.6566  0.1233 -0.5074
10926TIP3    H154193   2.188   4.429   2.522  0.7300 -0.7055 -0.1540
10926TIP3    H254194   2.333   4.472   2.515  1.0870 -1.9480 -0.4596
10927TIP3   OH254195   6.471   1.527   2.692 -0.0081 -0.1660 -0.8493
10927TIP3    H154196   6.408   1.538   2.763 -0.2691  2.3438 -1.4432
10927TIP3    H254197   6.432   1.460   2.636 -0.3944 -1.2633  0.7046
10928TIP3   OH254198   0.855   6.591   3.356  0.4496  0.0818  0.5904
10928TIP3    H154199   0.879   6.508   3.315  0.1424  0.0585  0.4551
10928TIP3    H254200   0.926   6.651   3.332  0.0259  0.2000 -0.3976
10929TIP3   OH254201   6.131   1.307   4.434  0.4578  0.0775 -0.0841
10929TIP3    H154202   6.132   1.286   4.340  0.3262  2.1217 -0.5581
10929TIP3    H254203   6.045   1.279   4.464  0.2080  0.1290 -0.7482
10930TIP3   OH254204   1.378   3.715   2.575  0.5157 -0.5269  0.2436
10930TIP3    H154205   1.472   3.697   2.583  0.3690 -1.2150  0.4762
10930TIP3    H254206   1.336   3.633   2.602 -0.1394 -0.4217 -0.4317
10931TIP3   OH254207   6.129   2.093  12.260 -0.7459  0.6051  0.3869
10931TIP3    H154208   6.160   2.138  12.338 -1.1981  1.0693  0.3056
10931TIP3    H254209   6.053   2.144  12.232 -0.1593  0.8689 -0.7674
10932TIP3   OH254210   5.201   6.088  10.561  0.3916 -0.1768  0.2261
10932TIP3    H154211   5.260   6.013  10.571  1.1382  0.3365 -0.2907
10932TIP3    H254212   5.209   6.113  10.469  0.2797  0.6412  0.4308
10933TIP3   OH254213   3.404   6.755   4.110 -0.7468  0.0273  0.6783
10933TIP3    H154214   3.440   6.689   4.169  0.3256  0.9467  1.0680
10933TIP3    H254215   3.371   6.705   4.035 -1.6117 -1.1039  1.7806
10934TIP3   OH254216   2.583   0.702  12.759  0.2738 -0.2516  0.2484
10934TIP3    H154217   2.648   0.713  12.829 -0.7200  0.1572  1.1150
10934TIP3    H254218   2.535   0.785  12.758  0.2883 -0.2424 -0.9374
10935TIP3   OH254219   6.702   1.433   1.990  0.5612 -0.1399 -0.5610
10935TIP3    H154220   6.713   1.465   2.080 -0.4927  0.5117 -0.6588
10935TIP3    H254221   6.784   1.387   1.971  1.1681  0.5280  0.3949
10936TIP3   OH254222   1.903   0.236   2.495 -0.2468  0.0141 -0.6659
10936TIP3    H154223   1.808   0.235   2.511 -0.1492 -1.1779 -0.0393
10936TIP3    H254224   1.937   0.300   2.558 -0.5205 -0.3896 -0.0998
10937TIP3   OH254225   6.375   6.134  13.054  0.1617 -0.6127 -0.5576
10937TIP3    H154226   6.292   6.092  13.077  0.6404 -0.8510  0.7649
10937TIP3    H254227   6.389   6.200  13.122  1.9285 -1.7896  0.2598
10938TIP3   OH254228   5.955   1.139  12.047 -0.2369 -0.2963 -0.0958
10938TIP3    H154229   5.970   1.143  12.142  1.3783  1.3079 -0.3853
10938TIP3    H254230   5.884   1.201  12.032 -0.4539 -0.5060  0.0659
10939TIP3   OH254231   6.119   2.171   0.306  0.9866  0.0803 -0.7150
10939TIP3    H154232   6.129   2.176   0.211  1.5038  1.3773 -0.6036
10939TIP3    H254233   6.177   2.100   0.333 -0.0856 -1.1001 -1.4967
10940TIP3   OH254234   5.450   2.670  16.305  0.1729 -0.2249 -0.3060
10940TIP3    H154235   5.354   2.676  16.307  0.2305  0.4554  0.3996
10940TIP3    H254236   5.468   2.610  16.232 -0.7326  0.8151 -1.4005
10941TIP3   OH254237   2.978   1.493   5.605 -0.2675 -0.3606  0.7033
10941TIP3    H154238   2.985   1.471   5.512 -1.0403 -0.3751  0.6412
10941TIP3    H254239   2.975   1.409   5.650  4.1409 -0.3890  1.1070
10942TIP3   OH254240   1.293   2.276  14.954 -0.4635 -0.9243 -0.4286
10942TIP3    H154241   1.202   2.247  14.943 -0.0788 -1.9016 -1.0066
10942TIP3    H254242   1.320   2.304  14.867 -0.7722  1.0397  0.0872
10943TIP3   OH254243   1.347   2.952  14.915 -0.0897  0.0963 -0.2961
10943TIP3    H154244   1.373   2.995  14.834 -0.0150  1.2029  0.3017
10943TIP3    H254245   1.383   3.008  14.984 -0.9455 -0.3335  0.5056
10944TIP3   OH254246   4.054   2.286  15.917 -0.7004 -0.4205  0.4835
10944TIP3    H154247   4.084   2.207  15.871  0.6050  0.4200 -0.1374
10944TIP3    H254248   4.119   2.353  15.895 -0.6255  0.2879  2.7152
10945TIP3   OH254249   1.471   5.198   2.833  0.1060  0.4424  0.1608
10945TIP3    H154250   1.390   5.217   2.786  0.3038  0.5149 -0.1539
10945TIP3    H254251   1.520   5.280   2.831  0.2573  0.3539  0.2078
10946TIP3   OH254252   4.625   6.112   5.945  0.5555 -0.3631  0.6239
10946TIP3    H154253   4.694   6.107   6.011  2.7672  1.0818 -1.4579
10946TIP3    H254254   4.549   6.148   5.991  1.3770 -1.3973  2.8257
10947TIP3   OH254255   2.732   5.007   0.639 -0.2577 -0.0594  0.6656
10947TIP3    H154256   2.686   4.933   0.599 -0.5502  0.7503 -0.5470
10947TIP3    H254257   2.808   5.022   0.581  0.8874 -0.6508  1.9972
10948TIP3   OH254258   3.624   0.042  14.051 -0.5238 -0.0335 -0.3573
10948TIP3    H154259   3.550   0.061  13.994 -0.8173 -0.7817 -0.2310
10948TIP3    H254260   3.634   0.121  14.105 -2.1371 -0.4745  0.6150
10949TIP3   OH254261   0.289   1.763   1.760  0.1914  0.3615 -0.2052
10949TIP3    H154262   0.199   1.790   1.778 -0.2584 -0.6621 -0.9225
10949TIP3    H254263   0.320   1.826   1.694 -0.0360  0.6316 -0.0570
10950TIP3   OH254264   1.353   5.223   5.650  0.4547  1.1027 -0.5004
10950TIP3    H154265   1.444   5.205   5.673  0.2874  1.2712  0.2876
10950TIP3    H254266   1.305   5.217   5.732 -0.5215 -0.6410 -1.1712
10951TIP3   OH254267   6.544   4.521  12.283 -0.0585 -0.5053 -0.1411
10951TIP3    H154268   6.517   4.569  12.361  1.2435 -0.4625  0.2931
10951TIP3    H254269   6.577   4.438  12.316  2.6013  0.3941 -0.4293
10952TIP3   OH254270   3.946   2.318   5.957  0.3523  0.1110 -0.6340
10952TIP3    H154271   3.965   2.230   5.925  0.2385 -0.0681 -0.2079
10952TIP3    H254272   3.924   2.306   6.050  0.5236  0.6089 -0.5280
10953TIP3   OH254273   2.858   1.531   4.833 -0.0319  0.3232 -0.0487
10953TIP3    H154274   2.778   1.563   4.874  0.8977  2.1648  0.4008
10953TIP3    H254275   2.833   1.449   4.791 -2.0028  0.5840  0.5791
10954TIP3   OH254276   6.321   0.668  14.048  0.3849 -0.6289 -0.0858
10954TIP3    H154277   6.289   0.631  13.966 -1.9032 -0.6121  0.7649
10954TIP3    H254278   6.251   0.651  14.111  0.2657  3.0182  0.9034
10955TIP3   OH254279   4.845   2.468   0.824 -0.1440  0.2684  0.1985
10955TIP3    H154280   4.789   2.460   0.747 -1.6206 -0.0305  1.2810
10955TIP3    H254281   4.900   2.389   0.822  0.5657  0.7721 -1.1013
10956TIP3   OH254282   2.891   2.150  11.529 -0.1898  0.5512 -0.7289
10956TIP3    H154283   2.954   2.116  11.593  2.5088  1.9747 -2.5293
10956TIP3    H254284   2.856   2.229  11.570 -0.6892 -0.1507  0.2146
10957TIP3   OH254285   5.815   4.450   0.230  0.0540 -0.0620  0.5793
10957TIP3    H154286   5.799   4.542   0.250  0.5623 -0.4922  3.2409
10957TIP3    H254287   5.904   4.434   0.261 -0.7834 -1.9554  2.1244
10958TIP3   OH254288   3.409   6.569  10.991 -0.1313  0.3534 -0.0298
10958TIP3    H154289   3.335   6.596  10.936 -3.3785 -0.3445  3.7519
10958TIP3    H254290   3.454   6.651  11.011 -1.6956  1.2100  0.0838
10959TIP3   OH254291   5.525   1.542   6.081  0.1043 -1.0555  0.4483
10959TIP3    H154292   5.532   1.462   6.134 -0.3973 -1.8949 -0.7083
10959TIP3    H254293   5.529   1.510   5.990 -2.7192 -0.0305 -0.0682
10960TIP3   OH254294   1.511   0.721  13.049  0.0015 -0.0186  0.0068
10960TIP3    H154295   1.441   0.707  13.112 -0.1134 -0.7707 -0.2861
10960TIP3    H254296   1.585   0.670  13.084  0.0486 -0.1447 -0.2785
10961TIP3   OH254297   1.760   3.552  11.607 -0.4444  0.1095 -0.9119
10961TIP3    H154298   1.726   3.637  11.632 -0.4915 -0.0504 -0.4305
10961TIP3    H254299   1.691   3.513  11.554 -2.0893 -1.2336  2.0937
10962TIP3   OH254300   4.188   4.069   0.819 -0.7636  0.0514 -0.4691
10962TIP3    H154301   4.172   4.154   0.858  0.0354 -0.3291  0.7052
10962TIP3    H254302   4.101   4.031   0.807 -0.9668 -0.3805  2.1963
10963TIP3   OH254303   2.729   4.865   5.285  0.3608  0.2945  0.0246
10963TIP3    H154304   2.639   4.840   5.307  0.5737  0.3570  0.9916
10963TIP3    H254305   2.737   4.846   5.191 -0.8186  0.7777 -0.1764
10964TIP3   OH254306   6.344   0.874  15.186 -0.1475 -0.2287 -0.7175
10964TIP3    H154307   6.252   0.875  15.211  0.3999 -1.3892  1.4514
10964TIP3    H254308   6.364   0.964  15.160 -0.8887  0.9152  2.5624
10965TIP3   OH254309   5.708   0.062  16.436 -0.4385 -0.0345  0.0834
10965TIP3    H154310   5.777   0.106  16.485 -0.8627  0.9846 -0.2135
10965TIP3    H254311   5.702  -0.026  16.475  0.1733  0.2965  0.9237
10966TIP3   OH254312   4.724   4.819  12.513 -0.1985  0.0499  0.6473
10966TIP3    H154313   4.772   4.884  12.564  1.6186  0.3234 -1.3311
10966TIP3    H254314   4.749   4.735  12.551  0.5714  0.2931  0.6909
10967TIP3   OH254315   5.794   0.430  15.567  0.2801  0.2391  0.2912
10967TIP3    H154316   5.748   0.362  15.614  0.3742  0.6009  0.9072
10967TIP3    H254317   5.735   0.454  15.495  0.8296 -1.4322 -0.7406
10968TIP3   OH254318   1.521   0.099   2.066  0.9461  0.1269 -0.0996
10968TIP3    H154319   1.589   0.098   1.998 -1.2014  1.1637 -2.3347
10968TIP3    H254320   1.533   0.182   2.112  0.9498  0.4944 -0.7610
10969TIP3   OH254321   1.653   4.206   5.275 -0.3074  0.3029 -0.3061
10969TIP3    H154322   1.728   4.174   5.224  0.6707  0.3762  1.0760
10969TIP3    H254323   1.611   4.270   5.218  1.9124  1.8250 -0.2697
10970TIP3   OH254324   5.867   1.223  16.557  0.6911 -0.0253 -0.3636
10970TIP3    H154325   5.882   1.256  16.645  0.8938  0.7349 -0.6749
10970TIP3    H254326   5.922   1.146  16.550  0.2596 -0.3973  0.3590
10971TIP3   OH254327   2.299   1.321  13.624  0.4279  0.0837 -0.4319
10971TIP3    H154328   2.336   1.288  13.543  0.7363 -0.7087  0.0215
10971TIP3    H254329   2.242   1.394  13.598  0.0461 -0.5601 -1.4063
10972TIP3   OH254330   5.978   4.590  17.173  0.0965 -0.8409  0.3033
10972TIP3    H154331   6.005   4.622  17.087 -0.4642 -0.6486  0.1967
10972TIP3    H254332   6.006   4.498  17.175  1.9219 -0.3027  0.6951
10973TIP3   OH254333   2.964   0.253   3.073  0.0696 -0.7697 -0.4618
10973TIP3    H154334   3.000   0.231   3.159 -0.4336  1.5199  0.3694
10973TIP3    H254335   3.027   0.314   3.035 -0.6326 -0.3374 -0.9477
10974TIP3   OH254336   6.679   0.987   0.244 -0.0930 -0.2559  0.1387
10974TIP3    H154337   6.685   0.895   0.270 -1.3153 -0.6200 -0.8025
10974TIP3    H254338   6.608   1.023   0.298  0.0995  0.0159  0.2094
10975TIP3   OH254339   3.012   5.718  17.215  0.4453 -0.2524 -0.1445
10975TIP3    H154340   3.023   5.630  17.181 -0.6254  0.2311 -1.7720
10975TIP3    H254341   3.050   5.775  17.148  1.8849  0.4971  1.2599
10976TIP3   OH254342   2.252   3.891  15.661 -0.5948 -0.1049 -0.2080
10976TIP3    H154343   2.179   3.832  15.680  1.3808 -2.1664  1.2546
10976TIP3    H254344   2.322   3.833  15.631  1.6410  1.3819  1.9623
10977TIP3   OH254345   6.684   6.166   1.475 -0.1119 -0.1455 -0.3014
10977TIP3    H154346   6.591   6.183   1.490  0.1784  0.5462  0.8121
10977TIP3    H254347   6.719   6.148   1.562  1.0189  0.7619 -0.5526
10978TIP3   OH254348   0.950   2.457   3.138 -0.3604 -0.6878  0.2019
10978TIP3    H154349   1.046   2.464   3.132 -0.3146 -1.5196 -0.1138
10978TIP3    H254350   0.929   2.494   3.223  0.6221 -3.9814  1.9646
10979TIP3   OH254351   6.204   2.874  12.454 -0.0282  0.1474  0.1982
10979TIP3    H154352   6.267   2.893  12.385  0.7249 -0.7263  0.6155
10979TIP3    H254353   6.119   2.868  12.409  0.4124 -0.1556 -0.6073
10980TIP3   OH254354   4.525   2.253   0.224  0.4097  0.0770  0.1663
10980TIP3    H154355   4.566   2.339   0.218  0.2817  0.0916 -0.6450
10980TIP3    H254356   4.476   2.255   0.306  0.6591  0.6673  0.3000
10981TIP3   OH254357   4.336   0.126  14.849 -0.1862 -0.1867  0.8293
10981TIP3    H154358   4.241   0.128  14.833  0.0036  1.1140 -0.2233
10981TIP3    H254359   4.345   0.147  14.942 -0.9698 -0.8871  1.0626
10982TIP3   OH254360   6.652   3.694   2.961  0.0425  0.0857  0.1777
10982TIP3    H154361   6.602   3.693   2.880  0.8487 -5.1573 -0.4457
10982TIP3    H254362   6.589   3.669   3.029  0.2333  0.5705  0.5364
10983TIP3   OH254363   6.046   1.738   0.970  0.2032  0.4215  0.3176
10983TIP3    H154364   5.954   1.718   0.986  0.1257  1.1348  0.8105
10983TIP3    H254365   6.076   1.669   0.911 -0.8211  0.5577 -0.3688
10984TIP3   OH254366   6.556   4.777   2.584 -0.7716 -0.1832 -0.0136
10984TIP3    H154367   6.634   4.795   2.532 -2.0036  0.5957 -1.6205
10984TIP3    H254368   6.556   4.844   2.652 -0.4528  0.2632 -0.4540
10985TIP3   OH254369   3.408   1.552  13.138  0.0881  0.1875 -0.9676
10985TIP3    H154370   3.369   1.512  13.216  1.0052 -1.7501 -1.4555
10985TIP3    H254371   3.335   1.593  13.092 -1.1426 -2.0385 -1.0715
10986TIP3   OH254372   1.410   5.335   1.540  0.4610  0.2359  0.2902
10986TIP3    H154373   1.411   5.312   1.447  3.5597  0.5217  0.2111
10986TIP3    H254374   1.489   5.294   1.576  0.2166  1.5540  2.4271
10987TIP3   OH254375   2.230   5.410   5.813  0.2962  0.2971  0.2725
10987TIP3    H154376   2.318   5.418   5.851  0.1215  1.2229  0.5016
10987TIP3    H254377   2.185   5.489   5.841 -0.4157  0.1230 -0.3673
10988TIP3   OH254378   2.403   5.838  13.226 -0.3410 -0.0598 -0.7403
10988TIP3    H154379   2.431   5.763  13.173 -1.0121  0.2897 -1.6013
10988TIP3    H254380   2.385   5.907  13.162 -1.0934  0.3944 -0.0448
10989TIP3   OH254381   4.262   6.199  14.738  0.2920  0.1377  0.4960
10989TIP3    H154382   4.262   6.277  14.684  0.5269  1.6975  2.6646
10989TIP3    H254383   4.223   6.131  14.683 -0.7002  1.9902 -1.1449
10990TIP3   OH254384   1.105   5.936   1.517 -0.4052  0.1030  0.2473
10990TIP3    H154385   1.188   5.893   1.541  0.9097  1.7545 -1.1950
10990TIP3    H254386   1.088   5.906   1.427 -0.6636  0.8123  0.0548
10991TIP3   OH254387   0.001   5.267  15.295 -0.1265 -0.5238 -0.3129
10991TIP3    H154388   0.055   5.346  15.288 -0.9398  0.0853  0.2165
10991TIP3    H254389   0.055   5.205  15.346 -0.5807  0.6822  1.6945
10992TIP3   OH254390   6.560   1.051  15.230 -0.3126 -0.0596  0.7551
10992TIP3    H154391   6.653   1.046  15.255 -0.1862  0.5974  0.4299
10992TIP3    H254392   6.513   1.025  15.309  0.1234  0.5756  1.2315
10993TIP3   OH254393   2.986   4.254  15.069 -0.2169 -0.1504  0.5367
10993TIP3    H154394   2.901   4.228  15.105  0.1242 -1.1742  0.6079
10993TIP3    H254395   3.036   4.284  15.144 -0.0729 -0.7466  0.6796
10994TIP3   OH254396   6.133   6.560   2.548  0.0663 -0.1317  0.0772
10994TIP3    H154397   6.085   6.508   2.613  0.1597  1.9418  1.8514
10994TIP3    H254398   6.218   6.575   2.589  0.3573  0.6561 -0.8167
10995TIP3   OH254399   1.546   0.622   2.386  0.2928  0.4662  0.5346
10995TIP3    H154400   1.489   0.558   2.429  0.2509  0.0194 -0.1792
10995TIP3    H254401   1.600   0.570   2.327 -0.4925  1.2205 -0.8572
10996TIP3   OH254402   0.459   1.629  13.748 -0.1305  0.3890  0.1940
10996TIP3    H154403   0.512   1.551  13.733 -0.6788  0.0510  0.0004
10996TIP3    H254404   0.500   1.697  13.694  0.8956  0.4761  1.0804
10997TIP3   OH254405   3.085   6.489   4.698  0.0450  0.1216 -0.0206
10997TIP3    H154406   2.995   6.512   4.722 -0.3483 -1.0009 -0.4124
10997TIP3    H254407   3.114   6.562   4.643 -0.7897  0.2731 -0.2690
10998TIP3   OH254408   5.225   2.352  16.522 -0.2086 -0.5816  0.4960
10998TIP3    H154409   5.316   2.381  16.514 -0.5364  0.6533  1.0940
10998TIP3    H254410   5.224   2.300  16.602 -0.2744  0.4518  1.1822
10999TIP3   OH254411   5.013   4.757   3.635 -0.0369  0.2148 -0.3236
10999TIP3    H154412   5.067   4.716   3.703  0.8682 -0.0991 -1.2262
10999TIP3    H254413   5.072   4.768   3.561 -0.4538  2.4875 -0.3618
11000TIP3   OH254414   5.821   4.130   4.272 -0.2492  0.3834 -0.5042
11000TIP3    H154415   5.818   4.224   4.254 -0.4144  0.4677 -0.0594
11000TIP3    H254416   5.736   4.111   4.312  0.6333  0.5131  1.5395
11001TIP3   OH254417   4.657   6.093   6.683 -1.0086 -0.0502 -0.1163
11001TIP3    H154418   4.740   6.059   6.649  0.1439  1.6538  0.8969
11001TIP3    H254419   4.626   6.026   6.743 -0.4398 -0.7735 -0.6188
11002TIP3   OH254420   3.107   0.519  15.064 -0.3052  0.5311  0.0949
11002TIP3    H154421   3.087   0.479  14.980  1.9062  0.2122 -0.3095
11002TIP3    H254422   3.183   0.575  15.047 -1.5209  2.6246  1.3005
11003TIP3   OH254423   6.327   1.140   0.918 -0.0928  0.0094  0.5716
11003TIP3    H154424   6.341   1.046   0.918 -0.6197 -0.0725  1.7627
11003TIP3    H254425   6.248   1.153   0.970 -1.3379  0.9272 -1.4635
11004TIP3   OH254426   0.026   3.724   1.652 -0.3976  0.4653  0.3178
11004TIP3    H154427   0.069   3.810   1.650  0.9174 -0.1996 -1.0774
11004TIP3    H254428  -0.033   3.728   1.727 -1.6750  3.2289 -0.7747
11005TIP3   OH254429   0.238   3.533   1.647  0.5637 -0.0722 -0.1192
11005TIP3    H154430   0.203   3.602   1.592  1.3991 -1.1401 -2.0757
11005TIP3    H254431   0.265   3.577   1.727  1.5216  1.9568 -1.5027
11006TIP3   OH254432   4.175   1.427  16.731  0.2882 -0.1121 -0.2223
11006TIP3    H154433   4.093   1.476  16.741 -1.1302 -2.5563  0.3739
11006TIP3    H254434   4.226   1.449  16.809 -0.6553 -0.1853  0.4182
11007TIP3   OH254435   5.557   0.802  12.202  0.2812  0.2887 -0.5916
11007TIP3    H154436   5.525   0.714  12.185 -2.2864  1.2237 -0.8317
11007TIP3    H254437   5.602   0.828  12.122  1.8076 -1.0978 -0.2054
11008TIP3   OH254438   2.503   5.588  16.657 -0.6092 -0.3970  0.1146
11008TIP3    H154439   2.530   5.498  16.639 -0.9958  0.0146 -2.7601
11008TIP3    H254440   2.417   5.596  16.617 -0.0042  1.6143 -0.8619
11009TIP3   OH254441   3.162   4.520  12.052  0.4414 -0.0203  0.6555
11009TIP3    H154442   3.121   4.569  11.980  0.1284 -0.2295  0.6912
11009TIP3    H254443   3.246   4.491  12.016 -0.0037 -0.7001  0.1396
11010TIP3   OH254444   3.193   6.531  13.697  0.2491  0.0934  0.4815
11010TIP3    H154445   3.215   6.563  13.784 -1.2901  0.4879  0.7496
11010TIP3    H254446   3.273   6.491  13.664  0.5515 -0.9882  2.4872
11011TIP3   OH254447   0.743   4.163  15.277 -0.0474 -0.1166  0.2208
11011TIP3    H154448   0.805   4.226  15.313 -1.4070  1.5954 -0.3591
11011TIP3    H254449   0.663   4.176  15.328 -0.5100 -1.0045 -0.2608
11012TIP3   OH254450   0.177   4.967  15.639  0.2169 -0.3718 -0.2801
11012TIP3    H154451   0.223   5.050  15.626  2.0431 -1.2661  0.4326
11012TIP3    H254452   0.178   4.953  15.734  1.0627 -1.8598 -0.5025
11013TIP3   OH254453   6.461   6.424   3.631 -0.1717 -0.1266  0.3135
11013TIP3    H154454   6.373   6.403   3.601 -0.5657 -0.7806  1.8600
11013TIP3    H254455   6.480   6.510   3.593 -0.9103 -0.6110 -1.1793
11014TIP3   OH254456   6.765   2.505   4.687  0.5981  0.7890  0.5191
11014TIP3    H154457   6.802   2.591   4.666  0.6829  1.0002  1.4899
11014TIP3    H254458   6.794   2.488   4.777  0.6168 -0.2767  0.3136
11015TIP3   OH254459   5.648   5.136  12.610 -0.5599  0.2510 -0.0126
11015TIP3    H154460   5.584   5.207  12.601  0.7062  1.2986 -0.8671
11015TIP3    H254461   5.679   5.120  12.521  0.3847 -0.2438  0.4035
11016TIP3   OH254462   4.443   4.004   5.203  0.3133  0.1883  0.3826
11016TIP3    H154463   4.367   3.975   5.253 -0.1582  1.9173  0.7087
11016TIP3    H254464   4.503   4.039   5.269 -0.7211  3.3901 -0.2750
11017TIP3   OH254465   6.071   2.143  13.915  0.1476  0.1763  0.0316
11017TIP3    H154466   6.135   2.121  13.984 -0.6845 -0.2535  0.6842
11017TIP3    H254467   5.987   2.144  13.961 -0.2949  0.9016 -0.7923
11018TIP3   OH254468   2.492   2.915  14.469 -0.3673  0.4728 -1.2295
11018TIP3    H154469   2.425   2.860  14.511  0.3097 -0.3406 -1.1981
11018TIP3    H254470   2.454   2.937  14.384 -0.4448 -0.4564 -1.4393
11019TIP3   OH254471   6.371   4.237  15.673 -0.4746  0.3966 -0.3734
11019TIP3    H154472   6.359   4.288  15.753  0.1478  1.6618 -1.0657
11019TIP3    H254473   6.421   4.296  15.615 -0.1450 -0.8335 -1.3510
11020TIP3   OH254474   1.871   0.753  11.384 -0.1007  0.1395 -0.1711
11020TIP3    H154475   1.807   0.683  11.396 -0.4789  0.7546  1.6370
11020TIP3    H254476   1.844   0.796  11.303 -1.2122 -0.4019 -0.1036
11021TIP3   OH254477   2.690   6.197  10.713  0.1110  0.3344 -0.0576
11021TIP3    H154478   2.730   6.158  10.790  0.3972  0.3410 -0.2031
11021TIP3    H254479   2.749   6.174  10.641  0.8280  1.8829  0.0134
11022TIP3   OH254480   3.991   0.628  13.975  0.3792 -0.4565 -0.4768
11022TIP3    H154481   3.940   0.560  14.018  0.9634  0.0565  1.0742
11022TIP3    H254482   4.082   0.606  13.996  0.6142  0.3423 -0.6480
11023TIP3   OH254483   4.476   3.184   2.023  0.2750  1.0200  0.4549
11023TIP3    H154484   4.543   3.221   2.080  0.7734  0.9129 -0.0470
11023TIP3    H254485   4.511   3.198   1.934  1.5500 -2.5968  0.2823
11024TIP3   OH254486   6.062   3.774   5.865 -0.0000  0.0493 -0.3487
11024TIP3    H154487   5.995   3.831   5.903 -1.5883 -0.0041 -2.9186
11024TIP3    H254488   6.040   3.686   5.898 -1.2621  0.0230 -1.2252
11025TIP3   OH254489   1.340   6.410  15.336  0.1251  0.2909 -0.2348
11025TIP3    H154490   1.389   6.410  15.418 -1.0699  2.1763  0.4887
11025TIP3    H254491   1.362   6.493  15.294 -2.9369  1.5206  0.4348
11026TIP3   OH254492   2.158   4.668  16.040  0.3729 -0.0307  0.2504
11026TIP3    H154493   2.084   4.726  16.028  1.3586  1.0521 -0.7448
11026TIP3    H254494   2.211   4.680  15.961  0.5315 -2.3849 -0.0487
11027TIP3   OH254495   3.959   5.543   0.478  0.1036  0.6111  0.2560
11027TIP3    H154496   3.900   5.469   0.462 -1.0488  1.4303  0.6303
11027TIP3    H254497   3.961   5.551   0.574 -2.0990  2.8782  0.1442
11028TIP3   OH254498   5.305   2.853   0.076 -0.4968  0.0180  0.8471
11028TIP3    H154499   5.278   2.944   0.067 -1.1330 -0.2515 -0.0473
11028TIP3    H254500   5.330   2.844   0.168 -0.0663  1.1875  0.8476
11029TIP3   OH254501   2.877   3.438   4.758 -0.1092 -0.1418 -0.3650
11029TIP3    H154502   2.893   3.485   4.675 -1.2101  0.7238 -0.1019
11029TIP3    H254503   2.783   3.422   4.758 -0.1105 -0.1298  0.7362
11030TIP3   OH254504   1.473   1.931   3.979 -0.2392 -0.4565  0.2820
11030TIP3    H154505   1.456   2.023   3.998 -0.3820 -0.0611 -1.6418
11030TIP3    H254506   1.402   1.884   4.024 -0.1216  0.3568  1.3308
11031TIP3   OH254507   4.499   5.316   0.886 -0.3069  0.2033 -0.1520
11031TIP3    H154508   4.479   5.326   0.980 -0.9877  1.0487 -0.3721
11031TIP3    H254509   4.416   5.336   0.842  0.6084  2.1956 -1.0265
11032TIP3   OH254510   3.679   0.380  14.475  0.4236  0.0440 -0.1855
11032TIP3    H154511   3.765   0.420  14.464  0.1164  0.7217 -0.1456
11032TIP3    H254512   3.623   0.452  14.506 -0.1817 -0.3645 -0.3271
11033TIP3   OH254513   6.099   0.107   4.962  0.2428  0.1917 -0.3258
11033TIP3    H154514   6.050   0.046   5.017 -0.4274  0.4475 -0.6303
11033TIP3    H254515   6.107   0.186   5.016  0.2899  0.1607 -0.2875
11034TIP3   OH254516   2.729   2.155  13.952  0.0694  0.9869  0.3372
11034TIP3    H154517   2.679   2.137  14.031 -0.5606  1.6779  0.0907
11034TIP3    H254518   2.800   2.212  13.981  1.6779 -1.2302  0.9958
11035TIP3   OH254519   2.130   2.325  13.296 -0.3189  0.1962  0.0440
11035TIP3    H154520   2.048   2.280  13.274 -0.4077 -0.0580  0.8726
11035TIP3    H254521   2.160   2.282  13.376  0.4714  0.4920 -0.0924
11036TIP3   OH254522   4.160   5.751   0.852  0.0312  0.1814 -0.1466
11036TIP3    H154523   4.086   5.692   0.840 -0.0367 -0.2226  2.0786
11036TIP3    H254524   4.200   5.758   0.765 -1.1792 -1.4960 -0.8563
11037TIP3   OH254525   0.854   4.461  15.672  0.0897 -0.8654  0.5303
11037TIP3    H154526   0.771   4.489  15.635  0.3125  0.3265  0.8939
11037TIP3    H254527   0.835   4.446  15.765  0.6757  1.2413  1.0180
11038TIP3   OH254528   3.931   5.730  16.951 -0.3536 -0.2470  0.1595
11038TIP3    H154529   3.938   5.748  17.045  0.1095 -1.2972  0.3305
11038TIP3    H254530   3.944   5.635  16.944  0.1771 -0.0882 -1.0258
11039TIP3   OH254531   0.024   3.311  11.798  0.1947 -0.8325 -0.3941
11039TIP3    H154532  -0.067   3.283  11.806 -0.0700 -0.4210 -1.8663
11039TIP3    H254533   0.050   3.286  11.709  0.5537  1.8231 -1.0860
11040TIP3   OH254534   1.174   5.381   0.270 -0.3350  0.0513 -0.1893
11040TIP3    H154535   1.241   5.394   0.202  0.8539 -1.5044  0.6532
11040TIP3    H254536   1.093   5.414   0.230  0.6454  0.5927 -1.7852
11041TIP3   OH254537   1.863   6.366   1.637 -0.2711 -0.3625 -0.0010
11041TIP3    H154538   1.784   6.399   1.594 -0.1018  1.0583  0.7367
11041TIP3    H254539   1.843   6.371   1.730  0.8549  0.4991  0.2179
11042TIP3   OH254540   6.138   3.762   6.369 -0.3736 -0.2668  0.1838
11042TIP3    H154541   6.171   3.678   6.337  2.6289  0.3875  1.3455
11042TIP3    H254542   6.185   3.777   6.451 -1.3009  2.2557  0.3104
11043TIP3   OH254543   3.723   5.301  12.643 -0.2375 -0.1211  0.4285
11043TIP3    H154544   3.757   5.252  12.568 -1.1127  0.1834 -0.1802
11043TIP3    H254545   3.789   5.290  12.711  0.1777 -1.0870 -0.1219
11044TIP3   OH254546   5.428   5.964  15.985 -0.2024  0.7408  0.2773
11044TIP3    H154547   5.485   5.936  15.914  0.6203  0.4152  1.0593
11044TIP3    H254548   5.345   5.986  15.942 -0.0496 -0.4584 -0.6487
11045TIP3   OH254549   0.488   1.749   4.679  0.1873  0.1410  0.4374
11045TIP3    H154550   0.562   1.779   4.731 -1.0190  1.2803  1.5039
11045TIP3    H254551   0.523   1.675   4.629  2.0050  0.5838  1.0208
11046TIP3   OH254552   4.379   4.480   0.969 -0.1380  0.2873 -0.2735
11046TIP3    H154553   4.341   4.549   0.915  1.1116  0.5716 -0.8137
11046TIP3    H254554   4.420   4.421   0.906  0.3280  0.0051  0.2957
11047TIP3   OH254555   1.769   0.808   5.527  0.4813  0.0114  0.4444
11047TIP3    H154556   1.833   0.869   5.562  0.9184  0.4282 -1.0256
11047TIP3    H254557   1.684   0.847   5.548  0.7048 -0.2943  1.9539
11048TIP3   OH254558   6.716   0.626  14.195 -0.0663  0.7611  0.1772
11048TIP3    H154559   6.772   0.554  14.225 -2.7523 -1.7865 -0.7215
11048TIP3    H254560   6.770   0.673  14.131  0.1745 -3.3259 -2.8340
11049TIP3   OH254561   5.806   4.898  16.460  0.0891 -0.1704  0.1997
11049TIP3    H154562   5.822   4.934  16.547  1.3752 -2.3590  0.9220
11049TIP3    H254563   5.859   4.952  16.402 -1.3030  1.7305  0.6603
11050TIP3   OH254564   5.209   3.713   5.476 -0.1723 -0.5759  0.0716
11050TIP3    H154565   5.154   3.787   5.504  0.5482 -0.1283  0.3311
11050TIP3    H254566   5.177   3.639   5.528 -2.2925 -0.9424 -1.7108
11051TIP3   OH254567   3.677   0.679   1.447  0.1105 -0.1991 -0.5962
11051TIP3    H154568   3.653   0.624   1.521 -1.8997 -1.0490 -1.8323
11051TIP3    H254569   3.598   0.730   1.428  1.1346  1.2419 -1.0961
11052TIP3   OH254570   1.601   0.607   4.254  0.2386 -0.1280 -0.3237
11052TIP3    H154571   1.631   0.577   4.340 -2.8696  0.5242  1.0717
11052TIP3    H254572   1.681   0.623   4.205  2.0975 -0.7719  2.3621
11053TIP3   OH254573   5.434   3.393  11.676 -0.1610 -0.1317 -0.1979
11053TIP3    H154574   5.427   3.465  11.739 -2.5671 -1.2886  0.9489
11053TIP3    H254575   5.455   3.317  11.730 -2.3095 -1.1474 -0.7544
11054TIP3   OH254576   3.723   5.663   4.204  0.1139 -0.0816  0.2995
11054TIP3    H154577   3.747   5.603   4.133 -0.7823 -0.8620  0.6308
11054TIP3    H254578   3.727   5.750   4.165 -0.5738 -0.5209 -0.7830
11055TIP3   OH254579   1.940   2.038  12.841 -0.6675  0.6746 -0.9842
11055TIP3    H154580   1.863   2.020  12.895 -0.2493 -1.4865 -1.0547
11055TIP3    H254581   2.010   2.058  12.903 -0.4765 -0.6446 -0.7665
11056TIP3   OH254582   2.421   4.374  12.237  0.0184  0.4817  0.1811
11056TIP3    H154583   2.493   4.437  12.242 -0.2916  0.8567 -0.1169
11056TIP3    H254584   2.346   4.420  12.276 -0.6606  0.9344 -1.5975
11057TIP3   OH254585   4.643   6.103  11.219  0.0324  0.4173 -0.4284
11057TIP3    H154586   4.609   6.192  11.229  0.3935  0.4329  0.7217
11057TIP3    H254587   4.736   6.109  11.241 -0.2382 -0.4952  1.1040
11058TIP3   OH254588   0.899   0.840   5.388  0.3736  0.5881  0.5076
11058TIP3    H154589   0.863   0.920   5.426 -0.6416  0.1490  0.4750
11058TIP3    H254590   0.988   0.834   5.424  0.7675  2.1877 -0.1915
11059TIP3   OH254591   5.713   2.368   4.902 -0.4533  0.3028  0.1057
11059TIP3    H154592   5.735   2.300   4.839 -2.5832  0.0421 -0.3804
11059TIP3    H254593   5.756   2.447   4.869 -2.6342  0.4737 -2.4184
11060TIP3   OH254594   0.012   3.574  11.465 -0.4326 -0.0509 -0.1204
11060TIP3    H154595   0.035   3.665  11.479  1.4151 -0.5308  0.1915
11060TIP3    H254596   0.038   3.556  11.374 -0.6821 -0.2812 -0.1459
11061TIP3   OH254597   3.332   4.432  16.759  0.3639 -0.2756 -0.0790
11061TIP3    H154598   3.322   4.344  16.722 -0.0869 -0.8612  1.3850
11061TIP3    H254599   3.316   4.420  16.853 -2.7746  1.8667 -0.2720
11062TIP3   OH254600   1.384   6.313  14.079 -0.2873  0.0655  0.6332
11062TIP3    H154601   1.339   6.229  14.086  0.7327 -0.3476  2.4968
11062TIP3    H254602   1.344   6.368  14.146 -0.8394  1.0259 -0.4764
11063TIP3   OH254603   3.806   4.086  16.954 -0.3326  0.2166  0.3445
11063TIP3    H154604   3.772   4.161  16.905  0.4150  0.7149  0.5934
11063TIP3    H254605   3.896   4.075  16.923 -0.2567 -0.2298  0.7092
11064TIP3   OH254606   0.691   2.964   4.350 -0.0887  0.2788 -0.1159
11064TIP3    H154607   0.662   2.873   4.353  0.0734  0.2407  0.3452
11064TIP3    H254608   0.770   2.962   4.297 -1.0803  0.4257 -1.6328
11065TIP3   OH254609   1.533   1.047   2.202 -0.2660 -0.9232 -0.1285
11065TIP3    H154610   1.490   0.970   2.239  1.1120 -1.1205  1.1071
11065TIP3    H254611   1.595   1.012   2.138 -0.5437 -0.7554 -0.4932
11066TIP3   OH254612   1.358   3.603   5.292 -0.3583  0.1138 -0.0115
11066TIP3    H154613   1.366   3.698   5.306 -2.1792  0.0744  1.4978
11066TIP3    H254614   1.291   3.576   5.354 -0.2746 -2.0833 -0.8633
11067TIP3   OH254615   5.164   0.850   5.754  0.0413 -0.2602 -0.4398
11067TIP3    H154616   5.176   0.931   5.705 -0.6937  0.8430  1.1837
11067TIP3    H254617   5.071   0.829   5.745 -0.3124  0.4962  1.2997
11068TIP3   OH254618   0.675   6.268   0.124 -0.3649  0.4138 -0.4678
11068TIP3    H154619   0.719   6.351   0.142 -0.7732  0.6278 -0.4320
11068TIP3    H254620   0.584   6.293   0.107 -0.3478  0.0420 -1.1195
11069TIP3   OH254621   2.363   3.096   4.754  0.1894  0.5530 -0.2012
11069TIP3    H154622   2.315   3.048   4.821 -1.1661  1.9649 -0.1301
11069TIP3    H254623   2.387   3.030   4.689  0.0983 -0.5436  0.8717
11070TIP3   OH254624   2.898   2.127   4.888 -0.1526 -0.3647 -0.5058
11070TIP3    H154625   2.850   2.211   4.887  1.4391  0.5513 -1.4531
11070TIP3    H254626   2.846   2.071   4.830 -0.3897  0.4537 -1.1130
11071TIP3   OH254627   5.172   6.308  15.758 -0.2686  0.1112  0.4957
11071TIP3    H154628   5.150   6.360  15.680 -0.1948  0.2175  0.5462
11071TIP3    H254629   5.267   6.305  15.759 -0.2765 -0.4663  0.1997
11072TIP3   OH254630   5.943   1.574  13.831  0.4105  0.0066  0.3802
11072TIP3    H154631   5.887   1.651  13.823  0.9009  0.4501  1.1679
11072TIP3    H254632   6.023   1.606  13.871  1.3226 -0.5936 -0.9327
11073TIP3   OH254633   0.027   0.111   0.169  0.5432 -0.0240  0.0752
11073TIP3    H154634   0.108   0.137   0.127 -0.4929  0.4330 -1.6957
11073TIP3    H254635   0.039   0.018   0.189  2.1310  0.4404  1.4173
11074TIP3   OH254636   4.336   4.559  15.080  0.2328 -0.3112 -0.2909
11074TIP3    H154637   4.304   4.629  15.137  1.0160 -0.6210  0.5422
11074TIP3    H254638   4.430   4.557  15.095  0.0761 -2.3124  0.5915
11075TIP3   OH254639   3.887   1.663   4.613 -0.4910  0.3633 -0.7375
11075TIP3    H154640   3.803   1.632   4.647  0.0126 -0.0808  0.1150
11075TIP3    H254641   3.942   1.585   4.609 -0.3364  0.5275 -1.9664
11076TIP3   OH254642   2.970   4.472   4.354  0.4785 -0.2049  0.8597
11076TIP3    H154643   2.981   4.565   4.334  0.7436 -0.1130  1.4444
11076TIP3    H254644   3.040   4.452   4.416 -0.6036 -0.3857  2.0485
11077TIP3   OH254645   5.885   0.961   3.228  0.6385 -0.1309 -0.1395
11077TIP3    H154646   5.935   1.026   3.178 -0.4623  0.8266 -0.0261
11077TIP3    H254647   5.876   0.886   3.169 -0.9844  1.1323 -1.5627
11078TIP3   OH254648   5.137   4.103   1.876 -0.8237  0.1849  0.3359
11078TIP3    H154649   5.098   4.019   1.900  1.5798 -0.9775  0.3205
11078TIP3    H254650   5.184   4.130   1.954  0.5679  0.2318 -0.5095
11079TIP3   OH254651   1.569   5.538  13.442  0.0334  0.7878 -0.2007
11079TIP3    H154652   1.623   5.616  13.427  1.2012 -0.1508 -1.0144
11079TIP3    H254653   1.630   5.474  13.480 -0.1540 -0.7098 -2.3104
11080TIP3   OH254654   6.590   1.261   1.059  0.6012  0.2717  0.3271
11080TIP3    H154655   6.514   1.254   1.116  0.2209 -0.1313 -0.2237
11080TIP3    H254656   6.657   1.302   1.113  0.1560  0.1509  0.9735
11081TIP3   OH254657   3.271   0.386  10.599 -0.3406  0.1056 -0.1364
11081TIP3    H154658   3.317   0.373  10.682 -1.4358 -2.5708  0.1006
11081TIP3    H254659   3.186   0.343  10.612 -0.6191 -0.1395 -2.5738
11082TIP3   OH254660   5.619   5.221  13.882 -0.3006  1.0832  0.1479
11082TIP3    H154661   5.664   5.240  13.799 -2.0446  1.9731 -0.6210
11082TIP3    H254662   5.601   5.307  13.920  1.3583  0.6506  1.9485
11083TIP3   OH254663   3.218   6.472  16.320  0.2198  0.0348 -0.1651
11083TIP3    H154664   3.272   6.534  16.271  0.2961  1.1945  1.3680
11083TIP3    H254665   3.201   6.515  16.403 -0.2668 -1.7319  0.6787
11084TIP3   OH254666   6.107   1.822   1.625  0.4900 -0.1250  0.0746
11084TIP3    H154667   6.094   1.738   1.580 -0.8105 -0.4622  1.0891
11084TIP3    H254668   6.145   1.799   1.709 -2.1913  0.1150  1.3768
11085TIP3   OH254669   5.344   4.158  16.695 -0.6874  0.2956 -0.2126
11085TIP3    H154670   5.288   4.108  16.754 -1.1255 -0.1585 -1.0077
11085TIP3    H254671   5.427   4.111  16.694 -0.8171  0.0670 -0.2823
11086TIP3   OH254672   6.203   0.262  12.648  0.3140 -0.7811 -0.4309
11086TIP3    H154673   6.138   0.312  12.697  0.3382  0.9211 -2.0666
11086TIP3    H254674   6.194   0.293  12.558  0.6261 -3.4477 -1.4460
11087TIP3   OH254675   5.666   0.796   1.982  0.7499 -0.2432 -0.0443
11087TIP3    H154676   5.630   0.882   2.004  0.7909 -0.1913 -0.1785
11087TIP3    H254677   5.691   0.803   1.890 -2.6349 -1.5500 -1.1379
11088TIP3   OH254678   2.623   1.790   1.718 -0.0716 -0.0725  0.4401
11088TIP3    H154679   2.686   1.718   1.727  0.4720  0.1350 -1.5462
11088TIP3    H254680   2.555   1.756   1.661 -0.4706  0.5456  0.5447
11089TIP3   OH254681   4.381   5.977   6.533  0.3331 -0.3999 -0.0163
11089TIP3    H154682   4.455   6.004   6.588  0.0722  0.0574  0.1145
11089TIP3    H254683   4.406   6.003   6.444  0.8287 -1.2939 -0.1433
11090TIP3   OH254684   4.852   3.717   6.400 -0.3211  0.7830  0.3975
11090TIP3    H154685   4.904   3.639   6.381 -0.0546  1.0569 -0.0267
11090TIP3    H254686   4.878   3.780   6.332  0.2841  1.6202  1.3805
11091TIP3   OH254687   0.053   4.978  14.654  0.3032 -0.0940 -0.1100
11091TIP3    H154688   0.007   5.038  14.595 -0.4334 -0.5065  0.0390
11091TIP3    H254689   0.143   5.012  14.657 -0.0220  0.8103 -0.2845
11092TIP3   OH254690   1.778   0.784  16.212  0.3486 -0.0690  0.6618
11092TIP3    H154691   1.772   0.875  16.243  0.2677  0.1948 -0.1264
11092TIP3    H254692   1.855   0.749  16.258  0.8111  0.6167  0.4324
11093TIP3   OH254693   0.070   0.082  13.881 -0.5733  0.0709 -0.8092
11093TIP3    H154694   0.043  -0.007  13.858  1.3026 -0.3772 -1.3969
11093TIP3    H254695   0.026   0.100  13.963 -2.3629 -0.7386 -1.5612
11094TIP3   OH254696   4.233   5.593  15.674 -0.0603  0.1120  0.5447
11094TIP3    H154697   4.249   5.637  15.757  0.3118 -1.1569  1.1608
11094TIP3    H254698   4.139   5.576  15.673 -0.0138 -0.1516  0.8398
11095TIP3   OH254699   0.943   3.604  17.000  0.3466 -0.0470  0.3984
11095TIP3    H154700   0.971   3.561  16.919  2.4369  1.3783  0.3324
11095TIP3    H254701   0.991   3.558  17.069  1.2488  1.0335  0.4924
11096TIP3   OH254702   2.585   2.850   3.579  0.2572  0.2366 -0.3025
11096TIP3    H154703   2.507   2.818   3.625  0.4233  0.0592 -0.1456
11096TIP3    H254704   2.572   2.944   3.573  1.1896  0.5125  1.8789
11097TIP3   OH254705   0.092   0.260   3.167  0.3798  0.4334 -0.0424
11097TIP3    H154706   0.087   0.344   3.122 -2.2046  0.4751  0.2290
11097TIP3    H254707   0.014   0.213   3.137  1.7815 -1.8757 -0.1949
11098TIP3   OH254708   3.046   6.240  11.630  0.1953  0.3600  0.3030
11098TIP3    H154709   3.043   6.148  11.606 -0.5045 -0.4314  3.1515
11098TIP3    H254710   2.997   6.286  11.561 -2.1988 -1.7978  0.5083
11099TIP3   OH254711   2.266   1.626  12.729  0.0922 -0.1559  0.2901
11099TIP3    H154712   2.308   1.696  12.778  2.1893  0.9740 -2.9564
11099TIP3    H254713   2.181   1.663  12.702 -0.9331 -0.6722  2.6399
11100TIP3   OH254714   2.742   4.007  17.066  0.2121  0.4921 -0.3475
11100TIP3    H154715   2.796   4.082  17.090  0.7047  0.1435 -0.3752
11100TIP3    H254716   2.652   4.035  17.086  0.4532  0.8461  0.2516
11101TIP3   OH254717   3.435   1.254  15.869  0.2267  0.0954  0.3409
11101TIP3    H154718   3.445   1.239  15.964 -1.3057 -0.1783  0.4659
11101TIP3    H254719   3.440   1.349  15.859 -1.7280  0.2761  0.9571
11102TIP3   OH254720   1.296   5.508   1.947  0.0211  0.4017  0.0439
11102TIP3    H154721   1.371   5.519   1.889  0.6849  0.3066  0.8587
11102TIP3    H254722   1.220   5.508   1.890  0.7007 -0.2701 -0.8755
11103TIP3   OH254723   4.591   5.728  15.228 -0.6065  0.1973  0.2717
11103TIP3    H154724   4.646   5.806  15.214 -1.4899  1.0301  1.3394
11103TIP3    H254725   4.612   5.701  15.317 -2.4513  0.9553  0.9559
11104TIP3   OH254726   2.930   1.593   2.811 -0.0121  0.3413  0.1445
11104TIP3    H154727   3.002   1.641   2.851  0.4545  0.7177 -1.1371
11104TIP3    H254728   2.971   1.513   2.776 -0.5583 -0.3807  1.1298
11105TIP3   OH254729   4.030   0.369   1.429  0.8405 -0.3773  0.8687
11105TIP3    H154730   3.986   0.438   1.379  0.8050 -1.4363 -0.6035
11105TIP3    H254731   3.971   0.351   1.501  0.0794  0.0151  0.3538
11106TIP3   OH254732   6.251   5.643  14.213  0.0825 -0.0467  0.0654
11106TIP3    H154733   6.177   5.616  14.267 -1.7774  1.6414 -1.5866
11106TIP3    H254734   6.214   5.705  14.150  2.9034  0.8554 -0.7750
11107TIP3   OH254735   0.388   5.126  16.527  0.3935  0.5875  0.2224
11107TIP3    H154736   0.385   5.202  16.584 -1.2976  0.4961  0.2876
11107TIP3    H254737   0.341   5.058  16.576 -1.4764  0.6434 -1.4367
11108TIP3   OH254738   6.783   0.594  17.012 -0.1314 -0.4034 -0.5463
11108TIP3    H154739   6.747   0.512  17.049  0.7682  0.3854  2.1880
11108TIP3    H254740   6.773   0.658  17.083  0.3433  1.5513 -2.2242
11109TIP3   OH254741   4.418   0.426  11.050  0.4282  0.3059  0.4140
11109TIP3    H154742   4.512   0.409  11.054  0.2135 -1.4206 -1.5329
11109TIP3    H254743   4.383   0.359  10.992 -2.2776 -0.0896  2.4010
11110TIP3   OH254744   6.735   5.112   0.073 -0.9617  1.0658 -0.8943
11110TIP3    H154745   6.790   5.040   0.044 -0.4949  1.1852 -0.3180
11110TIP3    H254746   6.700   5.083   0.157  0.3408  2.0820  0.0105
11111TIP3   OH254747   4.253   3.733  13.622 -0.4607  0.2588 -0.4691
11111TIP3    H154748   4.311   3.776  13.684  2.3090 -0.8540 -2.2114
11111TIP3    H254749   4.226   3.803  13.562  2.7786 -0.0733 -2.3699
11112TIP3   OH254750   5.059   6.063  16.372 -0.1111  0.5750 -0.0809
11112TIP3    H154751   4.972   6.041  16.340 -0.4275 -2.5065  2.5555
11112TIP3    H254752   5.049   6.147  16.416 -1.0397  1.6941 -2.3490
11113TIP3   OH254753   0.520   1.238   4.151 -0.1527  0.1327 -0.1106
11113TIP3    H154754   0.610   1.229   4.122  0.0167 -0.0644  0.4765
11113TIP3    H254755   0.471   1.178   4.094 -0.0555  0.9537 -1.0668
11114TIP3   OH254756   4.465   3.340   5.058  0.0353 -0.4030  0.3589
11114TIP3    H154757   4.379   3.362   5.022  0.0467 -0.5768  0.2222
11114TIP3    H254758   4.481   3.250   5.029  0.3969 -0.2670  0.1158
11115TIP3   OH254759   4.727   3.590   1.600  0.4988  0.2218 -0.0472
11115TIP3    H154760   4.754   3.552   1.683 -1.7111 -2.2768 -0.4025
11115TIP3    H254761   4.802   3.577   1.542  0.9893 -0.6333  0.7675
11116TIP3   OH254762   0.546   1.020  16.317  0.3083  0.0301 -0.2717
11116TIP3    H154763   0.583   1.092  16.368  0.6851  0.4354 -1.1177
11116TIP3    H254764   0.461   1.053  16.287  1.8194  1.3295 -3.3023
11117TIP3   OH254765   2.508   4.380  12.746 -0.2014 -0.3607  0.3019
11117TIP3    H154766   2.513   4.362  12.652 -0.3963 -0.0172  0.2267
11117TIP3    H254767   2.424   4.425  12.758  0.1471  0.2386  0.5331
11118TIP3   OH254768   6.083   0.095  16.162 -0.2613 -0.1758 -0.6227
11118TIP3    H154769   6.159   0.150  16.142  0.9562 -1.7919 -0.5473
11118TIP3    H254770   6.076   0.098  16.257 -0.8197  0.6579 -0.6892
11119TIP3   OH254771   6.312   0.986   2.074 -0.2589 -0.1564  0.0139
11119TIP3    H154772   6.247   0.930   2.033  0.0926  0.6368 -1.6658
11119TIP3    H254773   6.336   0.940   2.155 -1.7644 -1.1942 -0.1197
11120TIP3   OH254774   6.412   0.873  12.309 -0.2789 -0.3064 -0.1289
11120TIP3    H154775   6.470   0.894  12.382  1.2781 -2.0339 -0.8220
11120TIP3    H254776   6.451   0.919  12.234 -0.9709  0.1951 -0.1780
11121TIP3   OH254777   1.379   6.447   3.264 -0.0631  0.2939 -0.2615
11121TIP3    H154778   1.356   6.441   3.172  0.4875  2.0817 -0.5326
11121TIP3    H254779   1.448   6.382   3.276  0.2069  0.4050 -1.2171
11122TIP3   OH254780   4.742   1.668   0.137 -0.2540 -0.8101 -0.0972
11122TIP3    H154781   4.725   1.582   0.099 -0.3040 -1.2351  0.8720
11122TIP3    H254782   4.656   1.710   0.141 -0.5221 -1.4531  1.1788
11123TIP3   OH254783   2.631   3.902  16.347 -0.1945  0.0781  0.4717
11123TIP3    H154784   2.635   3.820  16.297 -0.5827 -0.6956  1.6783
11123TIP3    H254785   2.555   3.947  16.312  0.2326  0.1088 -0.4555
11124TIP3   OH254786   3.330   4.407   2.828 -0.6519  0.0394 -0.2911
11124TIP3    H154787   3.410   4.460   2.832 -0.9511  0.5298 -0.8334
11124TIP3    H254788   3.361   4.317   2.841 -0.0773  0.2836  0.0700
11125TIP3   OH254789   0.556   1.004  11.040 -0.1340  0.0339 -0.6971
11125TIP3    H154790   0.497   0.954  10.982  0.7589  0.4967 -2.0347
11125TIP3    H254791   0.639   1.007  10.992  1.0286 -0.7148  1.2380
11126TIP3   OH254792   4.509   4.011   1.003 -0.0758 -0.7665 -0.3684
11126TIP3    H154793   4.417   4.005   1.031  0.0299 -0.4261  0.0496
11126TIP3    H254794   4.526   3.927   0.961  0.2890 -2.0251  2.1636
11127TIP3   OH254795   6.131   0.570  13.074 -0.1686  0.5171 -0.0813
11127TIP3    H154796   6.072   0.516  13.127 -0.3586  0.3966 -0.4113
11127TIP3    H254797   6.108   0.548  12.983 -1.0498  2.0220 -0.2227
11128TIP3   OH254798   2.992   4.944   1.141  0.3219  0.3407  0.0584
11128TIP3    H154799   2.944   4.944   1.057 -0.4017  1.7137  0.4630
11128TIP3    H254800   3.068   4.889   1.124 -1.8975 -2.7875 -0.3215
11129TIP3   OH254801   4.620   3.101  13.871 -0.0700 -0.5578 -0.2697
11129TIP3    H154802   4.671   3.145  13.938 -1.0897 -1.0973  0.8707
11129TIP3    H254803   4.664   3.018  13.856  0.0043 -0.5531 -0.0703
11130TIP3   OH254804   4.477   0.237  15.732 -0.4008  0.3003  0.7207
11130TIP3    H154805   4.541   0.267  15.668 -0.1265 -1.3068  0.2340
11130TIP3    H254806   4.442   0.318  15.770  0.0795  1.2381 -0.8064
11131TIP3   OH254807   5.970   4.092  15.143 -0.6699 -0.0336  0.2857
11131TIP3    H154808   6.063   4.098  15.162 -0.5582 -2.3985  0.7434
11131TIP3    H254809   5.927   4.127  15.221 -0.1674  1.5947 -0.1654
11132TIP3   OH254810   5.125   5.990   5.827  0.2918  0.1269 -0.3738
11132TIP3    H154811   5.186   6.042   5.879 -0.2332 -0.2713  0.6414
11132TIP3    H254812   5.081   5.933   5.890 -0.9419  0.2161 -1.1360
11133TIP3   OH254813   4.839   0.632  16.429 -0.4658  0.2981 -0.2473
11133TIP3    H154814   4.867   0.644  16.338  0.5006  0.4219  0.0627
11133TIP3    H254815   4.854   0.718  16.470 -0.3414  0.0728  0.1804
11134TIP3   OH254816   1.833   3.160  14.402  0.2754  0.4959  0.1664
11134TIP3    H154817   1.847   3.242  14.450 -0.8139  1.2476 -0.7913
11134TIP3    H254818   1.917   3.143  14.359 -0.2235  2.4700 -1.6892
11135TIP3   OH254819   4.423   4.476  15.768 -0.1853 -0.7463 -0.2201
11135TIP3    H154820   4.458   4.528  15.840  0.2543 -1.1350 -0.1488
11135TIP3    H254821   4.400   4.392  15.808 -1.7484 -0.2984 -0.1486
11136TIP3   OH254822   1.145   3.016  13.801 -0.3441 -0.2747  0.1189
11136TIP3    H154823   1.157   3.085  13.866 -1.5069 -1.0299  1.1427
11136TIP3    H254824   1.132   2.936  13.852 -1.9924 -0.7552 -1.0162
11137TIP3   OH254825   6.383   6.635   2.092 -0.0402 -0.2101  0.1587
11137TIP3    H154826   6.310   6.613   2.150  0.4507 -0.6347  0.6232
11137TIP3    H254827   6.347   6.697   2.029 -1.1780 -1.5108 -0.5034
11138TIP3   OH254828   0.354   1.012   1.107  0.1877 -0.1547  0.0351
11138TIP3    H154829   0.272   1.054   1.083  0.1410  0.0422  0.5314
11138TIP3    H254830   0.401   1.078   1.158 -0.1691 -0.9336  1.3914
11139TIP3   OH254831   6.101   2.051  11.312 -0.4724 -0.4933 -0.2887
11139TIP3    H154832   6.048   1.981  11.276 -1.1421 -0.4973  0.6886
11139TIP3    H254833   6.051   2.131  11.295  1.4007  0.0919 -3.5943
11140TIP3   OH254834   0.696   4.997  16.647 -0.0701  0.1006  0.1060
11140TIP3    H154835   0.642   5.074  16.633 -0.1061  0.2156  0.8523
11140TIP3    H254836   0.773   5.029  16.694 -0.1525 -0.3390  0.5488
11141TIP3   OH254837   0.136   2.124  15.101 -0.1978 -0.3835  0.4098
11141TIP3    H154838   0.218   2.114  15.054 -0.4896 -1.6089  0.1348
11141TIP3    H254839   0.153   2.085  15.187 -0.6873 -1.3098  0.1031
11142TIP3   OH254840   2.699   4.266  15.240 -0.0615 -0.0840 -0.6994
11142TIP3    H154841   2.717   4.176  15.215 -1.1238 -0.7411  0.8185
11142TIP3    H254842   2.713   4.268  15.334  1.4031  1.7165 -0.9287
11143TIP3   OH254843   1.322   6.717   2.576 -0.3349  0.8446 -0.1422
11143TIP3    H154844   1.334   6.734   2.483 -0.9740 -1.3466 -0.6586
11143TIP3    H254845   1.409   6.691   2.607 -0.0787  1.7660 -0.0649
11144TIP3   OH254846   1.504   4.139  15.516  0.2964 -0.0372 -0.5474
11144TIP3    H154847   1.531   4.073  15.580  2.2706 -1.3744 -2.6201
11144TIP3    H254848   1.468   4.088  15.443 -0.8358  1.3651 -1.0009
11145TIP3   OH254849   2.553   1.703  10.996  0.2793 -0.3417  0.1525
11145TIP3    H154850   2.528   1.758  10.922  2.6197 -0.7434 -1.0038
11145TIP3    H254851   2.472   1.658  11.021 -0.8494  0.8488 -1.2614
11146TIP3   OH254852   4.918   4.738   4.761 -0.9702 -0.0645 -0.0316
11146TIP3    H154853   4.853   4.705   4.823 -0.1824 -2.0428 -0.1972
11146TIP3    H254854   4.923   4.670   4.693  0.8201  0.3297 -0.3348
11147TIP3   OH254855   1.386   4.727  13.923  1.0156  0.2423  0.3594
11147TIP3    H154856   1.393   4.822  13.935  1.0365  0.3432 -0.4211
11147TIP3    H254857   1.294   4.708  13.942  0.8676  0.5099 -0.0692
11148TIP3   OH254858   2.978   4.232   2.698 -0.5564 -0.5120 -0.4593
11148TIP3    H154859   3.048   4.194   2.645 -0.4393  0.9132 -1.3463
11148TIP3    H254860   2.905   4.243   2.637 -0.4844  0.9551 -0.2960
11149TIP3   OH254861   4.080   2.991  14.588  0.3248  0.0054 -0.2229
11149TIP3    H154862   4.135   2.991  14.509  0.3088  1.4212 -0.2491
11149TIP3    H254863   4.001   3.038  14.562  0.0742 -0.0283  0.4750
11150TIP3   OH254864   3.899   3.189  16.727  0.4016  0.1961 -0.2087
11150TIP3    H154865   3.842   3.123  16.766  1.9502 -0.0802  1.6249
11150TIP3    H254866   3.924   3.153  16.642 -0.7547 -0.4348 -0.2888
11151TIP3   OH254867   4.765   5.152   0.201 -0.5699  0.1678  0.0122
11151TIP3    H154868   4.836   5.148   0.264  0.0622  2.6012 -0.4761
11151TIP3    H254869   4.737   5.061   0.189  1.2053 -0.6088  1.6085
11152TIP3   OH254870   4.520   1.534   4.129 -0.4133 -0.0746 -0.5563
11152TIP3    H154871   4.599   1.483   4.112 -0.5148 -0.6315  0.5828
11152TIP3    H254872   4.454   1.468   4.152 -0.6285  0.5301  0.6097
11153TIP3   OH254873   4.411   3.254   1.471 -0.8599  0.2444  0.1676
11153TIP3    H154874   4.355   3.256   1.393 -0.0926  1.4287 -0.3814
11153TIP3    H254875   4.351   3.257   1.545 -1.5178  2.6309 -0.4195
11154TIP3   OH254876   3.068   2.209  11.977 -0.1498  0.3646 -0.2021
11154TIP3    H154877   3.029   2.268  11.912  0.6793  1.7808  0.5878
11154TIP3    H254878   3.070   2.259  12.058  2.0713 -0.1731  0.0962
11155TIP3   OH254879   5.826   4.537   3.880  0.4417 -0.4050  0.1460
11155TIP3    H154880   5.907   4.577   3.911  0.0062  1.2105 -0.7258
11155TIP3    H254881   5.845   4.443   3.876  2.4505  0.0085 -0.5433
11156TIP3   OH254882   0.662   2.028  15.637 -0.0108  0.3417 -0.3395
11156TIP3    H154883   0.684   2.104  15.691  1.8958 -1.0476  0.9285
11156TIP3    H254884   0.720   2.036  15.560  1.9871 -1.0807  0.9711
11157TIP3   OH254885   0.410   6.370   0.125  0.3674 -0.0308 -0.4253
11157TIP3    H154886   0.380   6.306   0.061  0.5450 -0.7052  0.1693
11157TIP3    H254887   0.355   6.447   0.110 -0.1186 -0.4656 -0.8625
11158TIP3   OH254888   2.814   3.416  16.281  0.4353 -0.3689 -0.5047
11158TIP3    H154889   2.875   3.459  16.341  0.3197 -1.0486  0.1056
11158TIP3    H254890   2.860   3.415  16.197  0.2643  1.3461 -0.6470
11159TIP3   OH254891   2.889   1.035   1.198  0.5649  0.1571  0.2237
11159TIP3    H154892   2.943   0.995   1.130  0.7323  1.9158 -0.7075
11159TIP3    H254893   2.826   0.967   1.221  1.2770 -0.8777 -0.8207
11160TIP3   OH254894   0.461   5.736  11.942 -0.0721 -0.1478 -0.1185
11160TIP3    H154895   0.478   5.646  11.916  0.7385 -0.5661  1.8657
11160TIP3    H254896   0.546   5.771  11.966 -0.5780  0.7310  0.4276
11161TIP3   OH254897   1.794   0.077   5.609  0.2586  0.3082  0.1199
11161TIP3    H154898   1.827   0.070   5.520 -1.7263 -0.6951 -0.5628
11161TIP3    H254899   1.793  -0.014   5.641 -2.7730  0.1564 -0.2548
11162TIP3   OH254900   4.896   2.108   2.935 -0.6082  0.1778 -0.1637
11162TIP3    H154901   4.945   2.108   2.853 -1.1254  2.0390 -0.5141
11162TIP3    H254902   4.842   2.030   2.931  2.4356 -2.0323  0.3200
11163TIP3   OH254903   1.421   0.343  13.743 -0.0754  0.1521 -0.3816
11163TIP3    H154904   1.353   0.379  13.800  0.5977  0.1388  0.4328
11163TIP3    H254905   1.495   0.402  13.754  0.9321 -1.2825  0.7257
11164TIP3   OH254906   2.021   6.691  14.098 -0.5672  0.2180 -0.3151
11164TIP3    H154907   2.070   6.704  14.178 -1.1498 -1.2775  0.3070
11164TIP3    H254908   2.087   6.673  14.031 -0.0016  2.6488 -0.4491
11165TIP3   OH254909   4.579   5.102  10.096 -0.1494 -0.0678  0.1144
11165TIP3    H154910   4.530   5.020  10.104  0.0255 -0.0352  1.6742
11165TIP3    H254911   4.521   5.161  10.048 -0.8305 -0.6654  0.2061
11166TIP3   OH254912   6.590   5.523  16.594  0.6553 -0.5521 -0.1807
11166TIP3    H154913   6.503   5.537  16.556  0.6383  1.3732  0.5274
11166TIP3    H254914   6.575   5.518  16.688  1.5077  1.6578  0.0931
11167TIP3   OH254915   5.993   5.209   4.197 -0.2082 -0.2588  0.5141
11167TIP3    H154916   5.966   5.128   4.241 -0.7888  0.4845  1.5474
11167TIP3    H254917   5.942   5.278   4.240  1.1192  0.7984  0.4280
11168TIP3   OH254918   4.788   2.255  11.803  0.3119  0.0047  0.2940
11168TIP3    H154919   4.821   2.178  11.848  1.0082  0.1935  0.1094
11168TIP3    H254920   4.732   2.221  11.733  1.0229 -0.3432 -0.1057
11169TIP3   OH254921   2.200   6.203   4.050  0.1454 -0.1560 -0.1235
11169TIP3    H154922   2.267   6.135   4.044 -0.3927 -0.7430  0.4950
11169TIP3    H254923   2.126   6.168   4.001 -0.4042 -0.3430  0.8415
11170TIP3   OH254924   6.000   5.491   1.836 -0.0406  0.2823 -0.1488
11170TIP3    H154925   6.056   5.469   1.762  0.6712  0.6139  0.2817
11170TIP3    H254926   6.010   5.586   1.845  0.9743  0.0484  1.2493
11171TIP3   OH254927   3.734   3.431  17.189 -0.5614  0.7509  0.4017
11171TIP3    H154928   3.687   3.442  17.107 -0.9004 -0.1273  0.4826
11171TIP3    H254929   3.715   3.342  17.217  0.0366  0.8424  1.1326
11172TIP3   OH254930   2.208   1.265   2.167  0.4142  0.3466  0.5891
11172TIP3    H154931   2.154   1.332   2.209  2.8051  1.9715  1.2185
11172TIP3    H254932   2.211   1.193   2.230 -1.8576 -0.2354  0.0765
11173TIP3   OH254933   1.816   4.273   2.617 -0.1066  0.0970  0.4534
11173TIP3    H154934   1.722   4.287   2.604 -0.4596 -2.5907 -0.0661
11173TIP3    H254935   1.826   4.268   2.712 -0.4272  0.6137  0.5216
11174TIP3   OH254936   0.156   5.114   1.330  0.1602 -0.5142  0.0294
11174TIP3    H154937   0.135   5.189   1.274 -0.4157 -0.9784 -0.3803
11174TIP3    H254938   0.107   5.041   1.292  1.0360 -1.1966  0.1831
11175TIP3   OH254939   2.367   0.659   5.731  0.0528 -0.0353 -0.3045
11175TIP3    H154940   2.412   0.576   5.741  2.6932  1.5572  1.5989
11175TIP3    H254941   2.404   0.697   5.651  0.3907  0.2275 -0.0262
11176TIP3   OH254942   4.505   0.383  12.026 -0.3429 -0.1140 -0.2617
11176TIP3    H154943   4.539   0.433  11.952  0.4683 -0.4269 -0.1079
11176TIP3    H254944   4.461   0.449  12.081 -1.4328  0.0261 -1.2827
11177TIP3   OH254945   3.807   2.437   2.277  0.1538 -0.3891 -0.1991
11177TIP3    H154946   3.850   2.514   2.312  1.8107 -1.7790  0.9240
11177TIP3    H254947   3.718   2.465   2.258  0.4885  1.5575  1.0296
11178TIP3   OH254948   5.755   3.610   6.416  0.5695 -0.4063 -0.1459
11178TIP3    H154949   5.810   3.661   6.356  0.3303 -0.7098 -0.6297
11178TIP3    H254950   5.726   3.536   6.363  2.0113 -1.7776  0.9427
11179TIP3   OH254951   4.373   4.620   0.509  0.7747 -0.1099  0.6089
11179TIP3    H154952   4.455   4.589   0.469  0.1354 -1.1431  0.0833
11179TIP3    H254953   4.313   4.629   0.435 -0.5622 -2.4525  1.3554
11180TIP3   OH254954   6.134   0.190   0.373  0.3663  0.4809 -0.6011
11180TIP3    H154955   6.088   0.226   0.448  1.9139 -0.1846  0.7153
11180TIP3    H254956   6.227   0.208   0.391  0.9965 -2.1935 -0.9442
11181TIP3   OH254957   2.025   6.692   4.396 -0.4733  0.1910  1.0509
11181TIP3    H154958   2.025   6.750   4.472  0.4732 -0.1062  1.2935
11181TIP3    H254959   2.118   6.671   4.382 -0.3217  2.5416 -1.9810
11182TIP3   OH254960   3.116   4.808  12.193 -0.4170 -0.0515 -0.1981
11182TIP3    H154961   3.211   4.819  12.190  0.0612 -3.6382  0.1052
11182TIP3    H254962   3.086   4.841  12.109  1.3140 -0.5508 -1.0452
11183TIP3   OH254963   2.137   0.905   1.509 -0.4713 -0.1919  0.1638
11183TIP3    H154964   2.123   0.956   1.429  0.3822  1.2553  0.9157
11183TIP3    H254965   2.178   0.824   1.479  0.6710  0.7151 -0.7837
11184TIP3   OH254966   1.586   1.522   5.026 -0.0001 -0.4541  0.1272
11184TIP3    H154967   1.493   1.542   5.012  0.0738 -0.6195 -0.6522
11184TIP3    H254968   1.614   1.583   5.094 -0.7628 -0.6354  0.6126
11185TIP3   OH254969   2.927   1.419   0.651  0.4838 -0.4878  0.4160
11185TIP3    H154970   2.970   1.483   0.596 -2.2415  1.9348  0.9499
11185TIP3    H254971   2.887   1.357   0.590 -1.5972  1.5597 -0.3993
11186TIP3   OH254972   5.970   5.587  11.144  0.8375  0.5425 -0.3934
11186TIP3    H154973   6.021   5.507  11.159  1.3611  0.9079 -0.1875
11186TIP3    H254974   5.906   5.587  11.215 -0.2585 -0.5574 -1.3777
11187TIP3   OH254975   6.447   0.995  15.510 -0.1010  0.1539  0.6567
11187TIP3    H154976   6.387   0.921  15.514  0.3831 -0.4660 -2.3329
11187TIP3    H254977   6.407   1.062  15.565 -0.9972 -1.9850  2.6804
11188TIP3   OH254978   3.757   6.152   1.977 -0.5143  0.3270  0.1126
11188TIP3    H154979   3.757   6.147   1.882  2.1774 -2.1432  0.1930
11188TIP3    H254980   3.664   6.154   2.001 -1.2735 -1.7159 -2.4330
11189TIP3   OH254981   2.507   0.537  13.389  0.1202 -0.3209 -1.0690
11189TIP3    H154982   2.477   0.473  13.326 -2.3441 -1.1436  0.8887
11189TIP3    H254983   2.555   0.486  13.455  1.5668  0.3626 -1.5765
11190TIP3   OH254984   4.773   4.815   1.450 -0.1515  0.2665  0.4480
11190TIP3    H154985   4.720   4.752   1.401  0.2701 -0.4452  0.8939
11190TIP3    H254986   4.720   4.895   1.452 -0.5026  0.0600 -0.4985
11191TIP3   OH254987   0.727   5.788   3.651 -0.0069  0.2014  0.2808
11191TIP3    H154988   0.750   5.705   3.609 -0.0028  0.7728 -0.8495
11191TIP3    H254989   0.811   5.822   3.682 -0.0414 -0.3405  0.9968
11192TIP3   OH254990   3.696   1.513  12.695  0.2734 -0.0975  0.1432
11192TIP3    H154991   3.750   1.578  12.649 -0.7382  0.8515  0.2988
11192TIP3    H254992   3.690   1.546  12.785 -0.1658 -0.4533  0.2460
11193TIP3   OH254993   5.801   4.000   3.075  0.2346 -0.4784  0.1034
11193TIP3    H154994   5.726   4.012   3.017 -0.8915 -0.0617  1.6102
11193TIP3    H254995   5.766   4.013   3.163  1.9126 -1.0754  0.8879
11194TIP3   OH254996   6.644   6.548   0.578  0.6197 -0.2864 -0.6911
11194TIP3    H154997   6.573   6.582   0.523 -1.3669  0.6756  2.3428
11194TIP3    H254998   6.712   6.614   0.572  0.4248 -0.1833 -1.9651
11195TIP3   OH254999   4.033   3.020   5.453 -0.9603  0.0950  0.2422
11195TIP3    H155000   3.991   3.098   5.489 -1.7005 -0.9731  1.7534
11195TIP3    H255001   4.079   2.981   5.528 -0.3646 -0.7643 -0.5668
11196TIP3   OH255002   3.573   1.943  13.507  0.2969  0.1941 -0.4460
11196TIP3    H155003   3.511   1.912  13.441  0.7303 -0.2728 -0.6379
11196TIP3    H255004   3.621   1.864  13.534  0.7784  0.5436 -0.2745
11197TIP3   OH255005   1.558   6.092  17.210  0.1041 -0.1875  0.0412
11197TIP3    H155006   1.645   6.110  17.246 -0.6736  0.8744  1.4348
11197TIP3    H255007   1.572   6.083  17.116  1.4632  1.6050  0.0580
11198TIP3   OH255008   2.841   2.931   3.993 -0.3218 -0.5258  0.0562
11198TIP3    H155009   2.893   2.852   4.009  0.8205  0.3724  0.8894
11198TIP3    H255010   2.843   2.978   4.076 -0.0933  0.8952 -0.7417
11199TIP3   OH255011   3.929   1.590   5.650 -0.2272  0.0274 -0.4053
11199TIP3    H155012   3.878   1.558   5.724  1.3411  0.9093  1.1053
11199TIP3    H255013   3.956   1.678   5.675  0.2086  0.4039 -2.0895
11200TIP3   OH255014   5.933   6.015   1.494 -0.1138  0.2011  0.0780
11200TIP3    H155015   5.882   5.939   1.466  1.7079 -1.2647  0.5837
11200TIP3    H255016   5.966   6.052   1.412  0.6210 -0.7546 -0.0702
11201TIP3   OH255017   5.096   1.985   5.958 -0.0344 -0.1275  0.6780
11201TIP3    H155018   5.189   2.008   5.956 -0.1212  0.1248 -1.3116
11201TIP3    H255019   5.088   1.913   5.896 -1.2341  0.0732  0.5997
11202TIP3   OH255020   2.990   2.706  12.552  0.1262  0.0784 -0.3900
11202TIP3    H155021   2.941   2.718  12.634  0.3841 -1.4419  0.0031
11202TIP3    H255022   2.927   2.730  12.484 -0.6898 -0.3489  0.1862
11203TIP3   OH255023   0.022   6.528   5.026 -1.3537 -0.0495  0.2724
11203TIP3    H155024  -0.030   6.543   4.947 -0.7485 -1.8643 -0.4893
11203TIP3    H255025   0.104   6.575   5.010 -1.8770  0.9543  0.5275
11204TIP3   OH255026   2.561   6.280   5.727 -0.5617  0.5780 -0.2321
11204TIP3    H155027   2.611   6.210   5.769  1.0045  2.1253  0.5483
11204TIP3    H255028   2.577   6.269   5.634  1.0767  0.9360  0.0005
11205TIP3   OH255029   2.886   4.048   3.245  0.3812 -0.4540 -0.7455
11205TIP3    H155030   2.892   4.053   3.150 -2.6362  0.8084 -0.9489
11205TIP3    H255031   2.803   4.003   3.262 -0.2338  1.3079  1.2374
11206TIP3   OH255032   4.408   1.931   0.749  0.0555  0.1350 -0.3023
11206TIP3    H155033   4.477   1.880   0.791 -0.7064  1.3825  2.5344
11206TIP3    H255034   4.349   1.956   0.820 -2.4047  0.5630 -2.4076
11207TIP3   OH255035   1.782   5.865  16.879 -0.9690  0.8271 -0.2599
11207TIP3    H155036   1.794   5.953  16.843  0.5855  0.4075 -0.7869
11207TIP3    H255037   1.793   5.877  16.974  0.4917  1.0104 -0.4372
11208TIP3   OH255038   1.585   6.134  16.939 -0.4318  0.9176  0.2918
11208TIP3    H155039   1.650   6.130  16.869 -2.4361  1.1634 -1.6357
11208TIP3    H255040   1.601   6.217  16.983  1.6067  0.2258  0.9376
11209TIP3   OH255041   2.017   0.806   4.975  0.4506 -0.3957 -0.0310
11209TIP3    H155042   2.065   0.738   5.023  1.3157 -0.5849 -1.1401
11209TIP3    H255043   1.942   0.827   5.031  1.4578 -0.5907  1.4039
11210TIP3   OH255044   6.367   6.226   1.543  0.2288 -0.1540 -0.8348
11210TIP3    H155045   6.322   6.190   1.619 -1.1208  0.4758 -1.3203
11210TIP3    H255046   6.323   6.186   1.468 -0.0132  1.0343 -1.3326
11211TIP3   OH255047   1.473   2.649  16.720 -0.1382  0.2213  0.1841
11211TIP3    H155048   1.403   2.602  16.674  0.9732  0.8159 -2.1929
11211TIP3    H255049   1.432   2.730  16.749 -0.3878  0.7364 -1.5231
11212TIP3   OH255050   6.739   5.013   1.669 -0.1310  0.2648 -0.6926
11212TIP3    H155051   6.649   5.003   1.637  0.2810  0.4307 -1.8975
11212TIP3    H255052   6.739   5.098   1.714 -0.3864  0.6010 -1.3295
11213TIP3   OH255053   3.788   5.735  15.853 -0.3202 -0.0307 -0.3721
11213TIP3    H155054   3.804   5.646  15.884  0.3264  0.6586  1.3077
11213TIP3    H255055   3.761   5.724  15.762  1.4374 -1.8369 -0.7201
11214TIP3   OH255056   1.011   3.615  11.870 -0.3114  1.1213 -0.4462
11214TIP3    H155057   1.071   3.648  11.803  0.9327 -0.4409 -0.1195
11214TIP3    H255058   0.965   3.693  11.901  3.9611  2.9244  1.7510
11215TIP3   OH255059   2.791   1.828  15.523 -0.1962  0.4371  0.1953
11215TIP3    H155060   2.759   1.829  15.434  1.1822 -0.7728 -0.3295
11215TIP3    H255061   2.873   1.778  15.519  0.4885  1.3683  1.9062
11216TIP3   OH255062   4.142   6.474   4.133 -0.7672 -0.7182  0.1717
11216TIP3    H155063   4.128   6.398   4.076  1.3310  0.0003 -1.3612
11216TIP3    H255064   4.236   6.489   4.130 -1.4366  4.0990 -2.4636
11217TIP3   OH255065   5.960   2.450  12.611  0.3756  0.2579 -0.0508
11217TIP3    H155066   6.002   2.396  12.544  0.5059 -0.3336  0.5000
11217TIP3    H255067   6.031   2.503  12.647  0.1932  1.0046 -0.7912
11218TIP3   OH255068   2.610   1.646  13.918  0.0300 -0.4231 -0.1027
11218TIP3    H155069   2.651   1.731  13.911  0.4471 -0.6487 -0.4346
11218TIP3    H255070   2.561   1.636  13.836  0.8093 -0.9268 -0.5215
11219TIP3   OH255071   6.461   3.382   3.339  0.1895 -0.3301  0.0169
11219TIP3    H155072   6.369   3.371   3.314  0.2318  0.1041 -0.3158
11219TIP3    H255073   6.477   3.476   3.334  0.9646 -0.5082 -1.0054
11220TIP3   OH255074   3.502   0.380  11.836 -0.0019 -0.2731  0.6449
11220TIP3    H155075   3.412   0.383  11.868 -0.1473  0.6630  0.1584
11220TIP3    H255076   3.494   0.388  11.741  0.6790  1.3518  0.7142
11221TIP3   OH255077   0.358   3.418  15.598 -0.6194 -0.8466 -0.5149
11221TIP3    H155078   0.323   3.507  15.601 -3.2722 -1.8144 -1.7217
11221TIP3    H255079   0.429   3.418  15.662 -0.4579  2.1857 -0.6457
11222TIP3   OH255080   1.053   4.532   3.363 -0.6219 -0.0821  0.6448
11222TIP3    H155081   1.079   4.569   3.278  0.3991 -0.5889  0.7223
11222TIP3    H255082   1.118   4.464   3.380 -2.1671 -1.5736  0.7443
11223TIP3   OH255083   0.013   4.811  14.859 -0.0592  0.2283  0.1757
11223TIP3    H155084   0.061   4.734  14.832 -0.0430  0.0735  0.6388
11223TIP3    H255085   0.026   4.875  14.789  1.1707  0.3409  0.5051
11224TIP3   OH255086   5.087   0.267  16.259  0.2262  0.0753 -0.0675
11224TIP3    H155087   5.161   0.328  16.267  0.5978 -0.5733  1.7291
11224TIP3    H255088   5.028   0.308  16.196  0.3435  2.4339  1.3186
11225TIP3   OH255089   3.748   0.649  13.312 -0.0971 -0.4954  0.1498
11225TIP3    H155090   3.740   0.598  13.231  0.0276  1.5214 -1.1533
11225TIP3    H255091   3.841   0.672  13.316 -0.2898  0.2523  0.3521
11226TIP3   OH255092   0.469   2.163   1.770  0.1236  0.3312 -0.3798
11226TIP3    H155093   0.545   2.113   1.800 -0.7954 -1.5058 -1.1054
11226TIP3    H255094   0.501   2.210   1.693  0.2139 -1.3566 -1.3864
11227TIP3   OH255095   3.527   5.576  14.067 -0.4456  0.3856  0.3649
11227TIP3    H155096   3.531   5.671  14.056  0.0640  0.5501  1.8059
11227TIP3    H255097   3.489   5.564  14.154  0.3577 -0.7100  0.5728
11228TIP3   OH255098   5.302   4.524   5.161  0.8797  0.6534  0.0229
11228TIP3    H155099   5.362   4.536   5.088  1.4047 -1.2092  0.1253
11228TIP3    H255100   5.294   4.429   5.171 -2.1592  0.8340 -0.0528
11229TIP3   OH255101   1.840   5.965  12.133  0.1604  0.2791  0.6538
11229TIP3    H155102   1.803   5.930  12.052 -0.1004  1.8482  0.0765
11229TIP3    H255103   1.886   5.891  12.172 -1.7309 -1.1296  0.2768
11230TIP3   OH255104   6.679   4.889  15.707 -0.9411  0.1638  0.4002
11230TIP3    H155105   6.748   4.956  15.704 -0.6070 -0.1343  1.1184
11230TIP3    H255106   6.600   4.934  15.676 -0.0335 -0.0098 -2.2925
11231TIP3   OH255107   3.573   1.586  14.788  0.5582 -0.7704  0.5029
11231TIP3    H155108   3.572   1.661  14.727 -0.3771  0.0404  1.4948
11231TIP3    H255109   3.516   1.522  14.746  0.2349 -0.3720  0.3198
11232TIP3   OH255110   2.480   1.624   2.708 -0.3076  0.2069 -0.2030
11232TIP3    H155111   2.519   1.539   2.686 -1.3005 -0.3103  0.0329
11232TIP3    H255112   2.555   1.678   2.734  0.1709 -1.0454  1.0807
11233TIP3   OH255113   2.635   1.072   5.766  0.1570  0.4977 -0.1808
11233TIP3    H155114   2.571   1.105   5.704  0.6235  0.8292 -0.4934
11233TIP3    H255115   2.594   1.084   5.852 -0.6811 -0.4039 -0.4540
11234TIP3   OH255116   2.104   0.410   5.492  0.5757  0.0759 -0.1916
11234TIP3    H155117   2.094   0.488   5.438 -0.7679 -0.2570 -0.4252
11234TIP3    H255118   2.049   0.426   5.569  1.7770  0.1646  0.6666
11235TIP3   OH255119   0.129   0.061  16.592  0.0487  0.3330  0.3047
11235TIP3    H155120   0.165   0.020  16.513 -3.5129  1.7139 -2.1417
11235TIP3    H255121   0.055   0.006  16.616 -0.6985  1.5926  0.9332
11236TIP3   OH255122   1.924   1.857   2.604  0.8498  0.0122  0.2111
11236TIP3    H155123   1.994   1.887   2.546  0.5071 -0.0826 -0.2473
11236TIP3    H255124   1.951   1.888   2.691  0.3498  1.9161 -0.2963
11237TIP3   OH255125   5.021   4.718   5.748 -0.4384 -0.2686  0.1319
11237TIP3    H155126   4.980   4.678   5.671  0.0020  0.1724 -0.3415
11237TIP3    H255127   5.115   4.719   5.727 -0.1113 -1.7021  1.4005
11238TIP3   OH255128   0.441   3.272  12.088 -0.3390  0.6156  0.1978
11238TIP3    H155129   0.406   3.284  12.000 -2.1247  1.2268  0.9869
11238TIP3    H255130   0.488   3.353  12.106 -3.0966  2.0052  1.2362
11239TIP3   OH255131   3.732   6.704   2.516  0.8483  0.0590  0.6876
11239TIP3    H155132   3.714   6.790   2.555  0.7086 -0.2250  1.2502
11239TIP3    H255133   3.770   6.653   2.587 -2.4036 -1.5138  1.4145
11240TIP3   OH255134   2.402   2.370  13.182  0.1368  0.6846 -0.5667
11240TIP3    H155135   2.400   2.343  13.090  0.1201 -1.3052 -0.0106
11240TIP3    H255136   2.313   2.354  13.214  0.4275  0.3108  0.0768
11241TIP3   OH255137   2.525   2.238   1.599  0.6812 -0.3681 -0.6297
11241TIP3    H155138   2.533   2.204   1.688  1.0922  0.9543 -0.1581
11241TIP3    H255139   2.482   2.167   1.551 -3.2270  0.4339  1.5068
11242TIP3   OH255140   3.630   4.047   0.879  0.6991 -0.4098  0.5906
11242TIP3    H155141   3.725   4.052   0.872  0.7373 -0.8262  0.7554
11242TIP3    H255142   3.602   4.138   0.891  1.1336 -0.3451  1.1875
11243TIP3   OH255143   4.075   5.629   3.964  0.4442  0.1074  0.6083
11243TIP3    H155144   4.018   5.553   3.964 -2.0975  1.9372  0.8187
11243TIP3    H255145   4.105   5.638   3.873  1.7445 -1.7985  0.8259
11244TIP3   OH255146   2.329   0.851  11.087  0.1218 -0.2090 -0.8045
11244TIP3    H155147   2.399   0.805  11.040  1.1324  2.4791 -1.9789
11244TIP3    H255148   2.269   0.881  11.019 -0.8730 -0.3243  0.0061
11245TIP3   OH255149   3.155   1.245  14.821  0.2586  0.0138  0.5494
11245TIP3    H155150   3.073   1.212  14.785  0.5865  0.0882 -0.2683
11245TIP3    H255151   3.129   1.311  14.885 -0.4183 -1.9705  2.3773
11246TIP3   OH255152   6.587   1.119  11.354 -0.3460  0.7039  0.1011
11246TIP3    H155153   6.620   1.191  11.300  1.0220 -0.2891 -0.4258
11246TIP3    H255154   6.555   1.055  11.290  0.7504 -0.2276  0.4734
11247TIP3   OH255155   4.870   6.764  11.973 -0.5174  0.1678  0.1182
11247TIP3    H155156   4.940   6.738  12.033 -1.6061  1.3357  1.9035
11247TIP3    H255157   4.837   6.681  11.938 -0.8693 -0.6168  2.2604
11248TIP3   OH255158   3.931   5.857  14.892 -0.2315  0.5520  0.4612
11248TIP3    H155159   3.990   5.789  14.924 -1.4285 -0.1969  1.1537
11248TIP3    H255160   3.927   5.921  14.963 -1.4080 -0.1648  1.0799
11249TIP3   OH255161   1.904   3.314  11.161  0.0999  0.1439 -0.2114
11249TIP3    H155162   1.872   3.293  11.248  0.7371  0.1962  0.0433
11249TIP3    H255163   1.856   3.256  11.102  0.4321 -0.6437  0.2853
11250TIP3   OH255164   0.989   2.717  16.644 -0.3668  0.5547 -0.9390
11250TIP3    H155165   1.036   2.752  16.569 -0.1637 -0.1020 -1.1177
11250TIP3    H255166   1.056   2.703  16.711 -0.1077 -1.4843 -1.5949
11251TIP3   OH255167   5.289   2.089  12.371 -0.6288 -0.2477 -0.3811
11251TIP3    H155168   5.287   2.010  12.318 -2.3220 -0.7911  0.4696
11251TIP3    H255169   5.279   2.058  12.461  1.8526  0.6783  0.2722
11252TIP3   OH255170   3.426   6.458   0.338 -0.4271 -0.0282 -0.4870
11252TIP3    H155171   3.436   6.371   0.376 -0.1472  0.2012 -0.0267
11252TIP3    H255172   3.439   6.445   0.244 -1.8983 -0.7192 -0.6024
11253TIP3   OH255173   3.090   3.959   1.027 -0.2470 -0.3507  0.4796
11253TIP3    H155174   3.061   3.957   1.118 -2.8396 -3.2411 -0.3369
11253TIP3    H255175   3.150   4.034   1.023  0.0410 -0.2435  4.5566
11254TIP3   OH255176   0.599   0.137   4.811 -0.2258  0.0877  0.1696
11254TIP3    H155177   0.676   0.110   4.761  0.7992 -0.9298  2.2068
11254TIP3    H255178   0.621   0.225   4.843 -0.6067  0.4718 -0.6242
11255TIP3   OH255179   4.164   5.417   4.369  0.0438 -0.2766 -0.1478
11255TIP3    H155180   4.131   5.400   4.281 -1.2346 -0.4686  0.3601
11255TIP3    H255181   4.249   5.372   4.371  1.3127  1.8845 -2.0995
11256TIP3   OH255182   6.305   6.357   1.989  0.3569 -0.2626 -0.6105
11256TIP3    H155183   6.337   6.437   1.946 -0.8555 -0.2467 -1.4956
11256TIP3    H255184   6.325   6.287   1.928  2.4287 -0.8041  0.6555
11257TIP3   OH255185   3.832   4.694  13.752 -0.4079 -0.3657 -0.2596
11257TIP3    H155186   3.905   4.635  13.772 -1.0625 -1.0022  0.2763
11257TIP3    H255187   3.836   4.706  13.657  1.4208  0.9628 -0.0294
11258TIP3   OH255188   3.504   2.846   3.610  0.7560 -0.1600 -0.5996
11258TIP3    H155189   3.454   2.857   3.691  0.1706 -0.5712 -0.9030
11258TIP3    H255190   3.445   2.798   3.551  0.9340  0.7001 -1.4989
11259TIP3   OH255191   1.512   6.117   1.264  0.0968  0.5985 -0.2494
11259TIP3    H155192   1.423   6.152   1.259  0.5535  1.7211 -0.7435
11259TIP3    H255193   1.520   6.063   1.186 -1.2763 -2.2691  1.5131
11260TIP3   OH255194   1.081   5.145   2.149 -0.4346  0.0629  0.3614
11260TIP3    H155195   1.078   5.098   2.065 -0.1111  2.6932 -1.2004
11260TIP3    H255196   1.161   5.113   2.191  2.9559  3.2206 -3.2495
11261TIP3   OH255197   1.783   4.577   2.297 -0.5708 -0.2708 -0.0982
11261TIP3    H155198   1.798   4.565   2.391 -1.1281  1.7436  0.2744
11261TIP3    H255199   1.703   4.629   2.292  0.4909  1.2835 -1.6162
11262TIP3   OH255200   1.619   5.578   4.736  0.0493  0.0206  0.2492
11262TIP3    H155201   1.648   5.642   4.801 -1.9763 -0.6827  1.8988
11262TIP3    H255202   1.525   5.571   4.749 -0.3251 -0.5955 -2.3881
11263TIP3   OH255203   4.463   2.443   6.220  0.4165 -0.8011  0.0828
11263TIP3    H155204   4.382   2.418   6.264 -0.1406 -0.5316 -0.7765
11263TIP3    H255205   4.533   2.411   6.278 -0.2616  1.4702  2.2445
11264TIP3   OH255206   2.495   0.890  11.751  0.5051  0.2170  0.0019
11264TIP3    H155207   2.409   0.877  11.790  0.4393  0.5415 -0.0345
11264TIP3    H255208   2.510   0.984  11.756  1.9237 -0.0957  2.2468
11265TIP3   OH255209   2.960   0.682   4.519  0.0861 -0.2695 -0.0903
11265TIP3    H155210   2.922   0.634   4.445  0.0406 -0.4299  0.0341
11265TIP3    H255211   2.897   0.752   4.536  0.3655  0.0891 -0.5436
11266TIP3   OH255212   4.548   1.022  11.134  0.8952  0.0143 -0.2132
11266TIP3    H155213   4.572   1.049  11.223 -0.2967 -0.5212  0.2823
11266TIP3    H255214   4.608   0.950  11.114  0.4309 -0.6057  0.5987
11267TIP3   OH255215   3.048   2.287  15.231 -0.3926 -0.2178 -0.1388
11267TIP3    H155216   3.038   2.230  15.307 -0.1747 -0.6277 -0.4203
11267TIP3    H255217   3.093   2.364  15.265 -0.7769 -0.1684  0.2617
11268TIP3   OH255218   1.498   1.036  12.462  0.0004 -0.2275 -1.0518
11268TIP3    H155219   1.542   1.121  12.462 -0.8675  0.2656  1.4306
11268TIP3    H255220   1.569   0.972  12.454  1.0515  0.6286  0.9378
11269TIP3   OH255221   3.558   6.737  12.435  0.2372  0.0446  0.4056
11269TIP3    H155222   3.552   6.645  12.408  1.5002 -0.0448  0.3892
11269TIP3    H255223   3.489   6.781  12.386  1.7862 -0.3123 -2.1977
11270TIP3   OH255224   4.813   6.762   0.115  0.5245 -0.5094 -0.0726
11270TIP3    H155225   4.755   6.837   0.103 -0.4111 -1.2678 -0.4102
11270TIP3    H255226   4.826   6.755   0.210  0.0345 -0.3499  0.0051
11271TIP3   OH255227   2.510   0.780   5.017  0.0770  0.5564 -0.0104
11271TIP3    H155228   2.464   0.708   5.060  1.9613  0.0977  1.2839
11271TIP3    H255229   2.553   0.827   5.089  0.3172  1.9288 -1.0317
11272TIP3   OH255230   5.153   4.873   1.981 -0.3153  0.2635  0.3268
11272TIP3    H155231   5.082   4.904   1.925  1.4094  2.0862 -0.9355
11272TIP3    H255232   5.158   4.938   2.051 -0.2587 -0.1646  0.7199
11273TIP3   OH255233   1.826   4.797  12.776  0.5490 -0.0705 -0.7556
11273TIP3    H155234   1.891   4.821  12.710  0.9885 -0.6373 -0.5323
11273TIP3    H255235   1.830   4.868  12.841  0.5185  0.1986 -1.0501
11274TIP3   OH255236   4.310   0.071   1.252 -0.1556  0.0709 -0.0026
11274TIP3    H155237   4.289   0.156   1.213 -0.4571  0.4638  0.9935
11274TIP3    H255238   4.301   0.085   1.346  3.0791 -0.1859  0.3885
11275TIP3   OH255239   4.705   0.022   5.017 -0.5822  0.4739 -0.3730
11275TIP3    H155240   4.742  -0.032   4.947 -0.5130 -0.4941  0.4034
11275TIP3    H255241   4.688   0.106   4.975 -0.2044  0.0195 -1.4676
11276TIP3   OH255242   4.295   4.676  16.325 -0.0575  0.2708  0.0447
11276TIP3    H155243   4.366   4.640  16.272 -0.0259 -0.1123  0.3442
11276TIP3    H255244   4.237   4.602  16.342 -0.2281  0.4554  0.2902
11277TIP3   OH255245   2.465   3.665  12.946  0.1586 -0.1066 -0.8086
11277TIP3    H155246   2.433   3.688  13.033  0.1409 -0.5870 -0.6868
11277TIP3    H255247   2.430   3.733  12.889 -2.9684 -1.8488 -1.0432
11278TIP3   OH255248   1.296   6.692   4.274 -0.4467  0.0596 -0.3450
11278TIP3    H155249   1.270   6.618   4.330 -0.9872 -1.0580 -2.0555
11278TIP3    H255250   1.213   6.729   4.243 -0.1294  0.1717 -1.0579
11279TIP3   OH255251   1.326   3.215   5.435  0.0450  0.1348  0.2201
11279TIP3    H155252   1.270   3.293   5.440 -0.5192 -0.3180  1.0445
11279TIP3    H255253   1.305   3.175   5.351 -0.0340  0.5862  0.0223
11280TIP3   OH255254   6.607   6.363   3.189 -0.0231 -0.1035  0.1530
11280TIP3    H155255   6.679   6.352   3.128 -0.6294  0.0680 -0.5936
11280TIP3    H255256   6.650   6.382   3.273  0.8650 -2.1589  0.2054
11281TIP3   OH255257   1.482   4.992   4.521 -0.5514 -0.6080 -0.6490
11281TIP3    H155258   1.530   5.074   4.517  0.2811 -0.9964  0.8695
11281TIP3    H255259   1.443   4.982   4.434  0.3662  0.7641 -1.2240
11282TIP3   OH255260   1.495   4.858  17.059 -0.1812  0.5311 -0.2737
11282TIP3    H155261   1.483   4.837  16.967 -0.4866  1.3828 -0.4360
11282TIP3    H255262   1.585   4.892  17.064  0.6750 -1.7228  0.1642
11283TIP3   OH255263   6.648   2.697  15.375 -0.4087  0.0546 -0.5863
11283TIP3    H155264   6.579   2.652  15.325 -3.3592  3.5402  0.1545
11283TIP3    H255265   6.717   2.713  15.311 -1.1104 -1.6993 -1.8461
11284TIP3   OH255266   2.263   0.415  11.426  0.0825 -0.2484  0.2529
11284TIP3    H155267   2.333   0.478  11.408 -0.5464  0.4926  0.3691
11284TIP3    H255268   2.303   0.352  11.487  0.8367 -0.1929 -0.1757
11285TIP3   OH255269   2.233   1.129  17.038 -0.7839  0.0027 -0.2206
11285TIP3    H155270   2.299   1.061  17.028 -1.5968 -0.7915 -0.2652
11285TIP3    H255271   2.279   1.203  17.077 -0.3703 -1.3306  1.8406
11286TIP3   OH255272   5.469   3.655  15.194  0.0172 -0.4996  0.2237
11286TIP3    H155273   5.513   3.724  15.145 -1.5380  0.2973 -0.0799
11286TIP3    H255274   5.400   3.623  15.135 -0.6913 -0.7799  1.1847
11287TIP3   OH255275   3.689   3.025   6.174  0.0268  0.3982 -0.0524
11287TIP3    H155276   3.704   3.042   6.267 -1.3335  0.2078  0.2146
11287TIP3    H255277   3.720   3.104   6.130  0.0181  0.7772  0.6158
11288TIP3   OH255278   4.673   2.719  15.418  0.0706 -0.0160 -0.3167
11288TIP3    H155279   4.600   2.768  15.381  0.8300  0.0613 -1.7229
11288TIP3    H255280   4.711   2.777  15.484 -1.5008 -0.2972  0.8847
11289TIP3   OH255281   1.406   1.495   4.656  1.1470  0.3283  0.3200
11289TIP3    H155282   1.463   1.567   4.681 -0.0846  0.7714  1.9041
11289TIP3    H255283   1.391   1.447   4.737 -0.8449  0.3014 -0.0446
11290TIP3   OH255284   5.909   2.904  15.155 -0.0180 -0.1338  0.0462
11290TIP3    H155285   5.970   2.932  15.223  0.0049  1.7138 -0.6932
11290TIP3    H255286   5.876   2.986  15.117 -2.0268 -1.0974 -0.3895
11291TIP3   OH255287   5.284   6.782  14.037  0.1372 -0.0759 -0.0603
11291TIP3    H155288   5.350   6.713  14.024 -0.0856 -0.3206  0.1295
11291TIP3    H255289   5.206   6.750  13.993 -0.4246 -0.6102  1.2949
11292TIP3   OH255290   5.678   3.853   0.322  0.3281 -0.1009  0.5690
11292TIP3    H155291   5.763   3.886   0.352 -0.0214  1.6344 -0.3235
11292TIP3    H255292   5.689   3.840   0.228 -0.4070  0.1699  0.4451
11293TIP3   OH255293   5.356   1.515   5.139  0.3452  0.2367  0.2972
11293TIP3    H155294   5.274   1.541   5.097 -0.4615 -2.1202  0.3366
11293TIP3    H255295   5.377   1.588   5.198 -2.0013  0.6455  0.6828
11294TIP3   OH255296   6.672   6.032   5.662  0.4031 -0.1393 -0.0655
11294TIP3    H155297   6.624   6.098   5.611  0.7462  0.0460 -0.1548
11294TIP3    H255298   6.650   5.949   5.621  1.3705  0.0890 -1.0844
11295TIP3   OH255299   1.784   5.719   5.873  0.0028 -0.2617  0.6050
11295TIP3    H155300   1.785   5.813   5.857 -1.3870 -0.3079  0.1193
11295TIP3    H255301   1.738   5.682   5.797 -1.5469 -1.0786  1.8940
11296TIP3   OH255302   5.444   1.034  12.747 -0.2246  0.2668 -0.0711
11296TIP3    H155303   5.360   1.001  12.715 -0.4734 -0.4941  1.3290
11296TIP3    H255304   5.452   0.998  12.835  2.0694 -0.5558 -0.5769
11297TIP3   OH255305   5.192   3.248  14.375 -0.3436  0.3122 -0.1022
11297TIP3    H155306   5.212   3.261  14.283 -0.7639 -1.5506 -0.4807
11297TIP3    H255307   5.272   3.210  14.412 -0.4590  0.2813  0.1162
11298TIP3   OH255308   6.468   5.306   5.304 -0.1854  0.3127  0.0785
11298TIP3    H155309   6.492   5.277   5.216 -2.6280 -3.2750  0.4682
11298TIP3    H255310   6.546   5.289   5.357  0.7893  1.0636 -1.0902
11299TIP3   OH255311   4.889   4.319   3.234 -0.1519 -0.2385 -0.0370
11299TIP3    H155312   4.873   4.272   3.316  0.1389  0.7611  0.6006
11299TIP3    H255313   4.803   4.353   3.209  0.0623  0.9202  0.7715
11300TIP3   OH255314   1.878   2.841   2.400  0.4885  0.0228 -0.3301
11300TIP3    H155315   1.871   2.899   2.475 -1.4541 -0.6983  0.0842
11300TIP3    H255316   1.898   2.755   2.437  1.1399 -0.0249 -0.7736
11301TIP3   OH255317   3.806   6.177  13.538 -0.1102  0.5043  0.6083
11301TIP3    H155318   3.748   6.208  13.607 -0.4596 -0.6527  0.8442
11301TIP3    H255319   3.862   6.112  13.581  0.0627  0.2066 -0.0646
11302TIP3   OH255320   5.835   6.559  13.041  0.1016 -0.0053 -0.2018
11302TIP3    H155321   5.805   6.567  12.950 -0.0849  3.5125  0.1165
11302TIP3    H255322   5.917   6.607  13.044  1.3500 -2.1137  1.0000
11303TIP3   OH255323   0.823   3.893  13.270  0.2615 -0.2072 -0.0706
11303TIP3    H155324   0.864   3.868  13.187  1.4195  0.6439  0.2389
11303TIP3    H255325   0.735   3.857  13.265  0.7556 -1.2943 -1.1229
11304TIP3   OH255326   6.178   4.331  11.530 -0.7370 -0.0275  0.0115
11304TIP3    H155327   6.119   4.380  11.588 -0.5762 -0.3692  0.4640
11304TIP3    H255328   6.259   4.322  11.580 -0.2462  0.5697 -0.6706
11305TIP3   OH255329   2.643   5.243   2.926 -0.0081  0.0744 -0.1252
11305TIP3    H155330   2.640   5.304   2.852 -3.4154 -1.2890 -1.2058
11305TIP3    H255331   2.626   5.297   3.003  1.2767  1.1342 -0.5625
11306TIP3   OH255332   0.885   3.924  15.323 -0.7930 -0.2706  0.1426
11306TIP3    H155333   0.824   3.993  15.298 -0.0319  0.2894 -0.1911
11306TIP3    H255334   0.856   3.896  15.410 -1.4681  0.0467  0.0202
11307TIP3   OH255335   4.538   2.000   2.522  0.0493  0.1604  0.1093
11307TIP3    H155336   4.599   2.037   2.458  0.7769 -2.3365 -0.6576
11307TIP3    H255337   4.593   1.966   2.592 -0.6081  0.0230  0.5715
11308TIP3   OH255338   0.003   1.873   6.043 -0.5059  0.0486  0.5601
11308TIP3    H155339  -0.067   1.935   6.022 -0.5442 -0.6419 -1.4307
11308TIP3    H255340  -0.022   1.837   6.128 -0.3771  2.8669  1.8387
11309TIP3   OH255341   1.900   3.483  14.010  0.6286 -0.5455  0.0605
11309TIP3    H155342   1.914   3.577  14.009  0.5333 -0.5352 -1.1408
11309TIP3    H255343   1.948   3.452  14.088  0.7191  0.4701  0.4114
11310TIP3   OH255344   2.030   5.382  13.419 -0.1878 -0.1549  0.0551
11310TIP3    H155345   1.968   5.365  13.490  0.2106 -0.2294  0.3851
11310TIP3    H255346   2.068   5.467  13.441 -1.4931  0.7468 -1.1012
11311TIP3   OH255347   5.722   2.397  15.497  0.0307  0.1403 -0.4337
11311TIP3    H155348   5.688   2.319  15.541  1.0762 -0.6671 -1.0449
11311TIP3    H255349   5.648   2.458  15.497 -0.1046  0.0586  2.1530
11312TIP3   OH255350   3.758   2.929   4.041 -0.6648 -0.1830 -0.4943
11312TIP3    H155351   3.821   3.000   4.048  0.0404 -1.0016  1.7271
11312TIP3    H255352   3.805   2.860   3.995 -0.4095 -0.2742 -0.0962
11313TIP3   OH255353   5.667   0.298   0.199 -0.2309 -0.6154 -0.1671
11313TIP3    H155354   5.621   0.301   0.115 -1.1436 -1.0290  0.3081
11313TIP3    H255355   5.663   0.388   0.232 -1.0834 -0.7270  0.0623
11314TIP3   OH255356   4.776   1.939  11.667  0.4203 -0.1075  0.1455
11314TIP3    H155357   4.701   1.998  11.667  0.4263 -0.1046  0.8561
11314TIP3    H255358   4.794   1.920  11.759 -0.6669 -2.6008 -0.1028
11315TIP3   OH255359   2.676   4.470   6.606  0.0171 -0.1896  0.0990
11315TIP3    H155360   2.756   4.431   6.571 -0.1024 -0.7619  0.4595
11315TIP3    H255361   2.606   4.441   6.546  0.3804  2.1506 -1.5342
11316TIP3   OH255362   5.112   2.058  13.330  0.0198 -0.0762 -0.2642
11316TIP3    H155363   5.119   2.144  13.289 -2.0361 -0.0230 -0.5463
11316TIP3    H255364   5.035   2.018  13.291  0.8745 -2.0313 -0.0493
11317TIP3   OH255365   2.809   4.406   1.655  0.3016  0.0757 -0.1964
11317TIP3    H155366   2.763   4.388   1.573 -0.3926  1.0106 -0.0174
11317TIP3    H255367   2.899   4.424   1.628  0.1251  0.1775 -0.7364
11318TIP3   OH255368   4.303   5.217  15.920  0.2909  0.0331  0.4409
11318TIP3    H155369   4.381   5.271  15.922 -0.0053  0.4356  1.6134
11318TIP3    H255370   4.267   5.223  16.009 -2.6088  2.1137 -0.8047
11319TIP3   OH255371   1.693   0.701   0.555  0.3993  0.3356 -0.6219
11319TIP3    H155372   1.677   0.712   0.461  1.5465 -0.0852 -0.8749
11319TIP3    H255373   1.618   0.742   0.597 -0.5390 -0.1833 -1.7453
11320TIP3   OH255374   3.544   2.321  10.656 -0.5551 -0.2700  0.5608
11320TIP3    H155375   3.550   2.415  10.671  0.9073 -0.0500 -1.1122
11320TIP3    H255376   3.625   2.286  10.694 -1.6750 -1.0258  2.2848
11321TIP3   OH255377   2.042   3.587   2.943 -0.3239 -0.6271  0.1509
11321TIP3    H155378   2.076   3.515   2.890  2.5767  1.2495 -0.6604
11321TIP3    H255379   2.076   3.570   3.031  0.3580 -0.2455 -0.0395
11322TIP3   OH255380   0.115   3.104   4.970  0.1019  0.5798  0.3628
11322TIP3    H155381   0.045   3.043   4.947 -1.4628  2.2238  0.7312
11322TIP3    H255382   0.148   3.071   5.053  1.0779 -1.3027 -0.7213
11323TIP3   OH255383   3.081   6.441  11.352 -0.1746  0.2063  0.0317
11323TIP3    H155384   3.092   6.494  11.431 -0.8230  0.5828 -0.1316
11323TIP3    H255385   3.087   6.504  11.280  0.8568 -0.1939 -0.2445
11324TIP3   OH255386   0.495   3.048   3.200  0.4372  0.2030 -0.2083
11324TIP3    H155387   0.447   2.991   3.260 -0.1161  0.8496 -0.0296
11324TIP3    H255388   0.578   3.003   3.185  0.4872 -0.0683  0.8668
11325TIP3   OH255389   4.519   2.393   4.614 -0.0412 -0.4611 -0.0589
11325TIP3    H155390   4.593   2.440   4.650 -0.7847  2.1453 -1.8368
11325TIP3    H255391   4.451   2.400   4.681  0.3605 -0.4091  0.3445
11326TIP3   OH255392   0.775   4.696  16.771  0.0551  0.0972  0.4370
11326TIP3    H155393   0.846   4.726  16.827 -0.4246 -1.8263  2.1646
11326TIP3    H255394   0.813   4.628  16.717 -0.3126 -0.5509  0.9798
11327TIP3   OH255395   3.743   4.502  14.411 -0.3336  0.1901  0.1693
11327TIP3    H155396   3.763   4.595  14.422  0.8788  0.0539 -0.7181
11327TIP3    H255397   3.682   4.481  14.481 -0.2597  1.5525  0.6428
11328TIP3   OH255398   5.731   1.042  11.192  0.5990 -0.3420 -0.2403
11328TIP3    H155399   5.766   1.096  11.263  0.9180 -1.0050  0.1167
11328TIP3    H255400   5.731   1.100  11.116  1.0779  0.1146  0.1000
11329TIP3   OH255401   4.646   4.593  11.938 -0.0901  0.5314  0.1520
11329TIP3    H155402   4.677   4.514  11.982 -1.5828  0.7079  1.5932
11329TIP3    H255403   4.561   4.568  11.901 -0.1038  1.1773 -0.2582
11330TIP3   OH255404   3.951   5.665  14.662 -0.0222 -0.0103  0.2882
11330TIP3    H155405   3.949   5.744  14.717  0.0486  1.9614 -2.4725
11330TIP3    H255406   3.860   5.634  14.662 -0.0839  0.1250  1.2390
11331TIP3   OH255407   3.645   4.446  13.114 -0.2536 -0.2839  0.3251
11331TIP3    H155408   3.700   4.492  13.050  0.2150  0.2576  1.1210
11331TIP3    H255409   3.616   4.515  13.175 -1.2519 -0.6805  0.3152
11332TIP3   OH255410   5.944   2.479   4.145  0.1163 -0.2171  0.4085
11332TIP3    H155411   5.947   2.392   4.184  2.6138  0.1246  1.0711
11332TIP3    H255412   5.959   2.539   4.218  1.8823  0.5756 -0.5731
11333TIP3   OH255413   2.430   5.873   3.238 -0.8382  0.2121  0.3413
11333TIP3    H155414   2.504   5.830   3.282 -1.2448 -0.2675  0.5643
11333TIP3    H255415   2.353   5.829   3.273 -1.2802  1.2943  0.7644
11334TIP3   OH255416   1.741   1.606   2.286 -0.0987  0.1801 -0.0539
11334TIP3    H155417   1.723   1.532   2.228 -0.4747 -0.5230  0.9313
11334TIP3    H255418   1.769   1.565   2.368 -0.8994  1.1150  0.6973
11335TIP3   OH255419   3.405   2.012  14.436  0.0748  0.1528 -0.4118
11335TIP3    H155420   3.410   2.065  14.357  1.2894  1.1566  0.3347
11335TIP3    H255421   3.475   1.947  14.427  0.9489  0.9826  0.3552
11336TIP3   OH255422   6.323   1.596  12.714  0.3458  0.4209  0.2842
11336TIP3    H155423   6.326   1.526  12.778 -0.0490 -0.9545 -1.1820
11336TIP3    H255424   6.326   1.677  12.767 -0.2770 -0.6666  2.0224
11337TIP3   OH255425   0.527   6.600   4.269 -0.1871 -0.4209  0.5648
11337TIP3    H155426   0.475   6.669   4.310 -0.1547  0.0691 -0.2062
11337TIP3    H255427   0.548   6.634   4.182 -0.5709 -1.6054 -0.0029
11338TIP3   OH255428   1.927   3.932   1.667  0.8050 -0.2743 -0.5559
11338TIP3    H155429   1.951   4.007   1.720  0.4755  0.3866 -1.3220
11338TIP3    H255430   2.005   3.912   1.615  0.4666  0.3710 -1.3125
11339TIP3   OH255431   5.160   3.899   4.578 -0.6083 -0.3869  0.2926
11339TIP3    H155432   5.079   3.860   4.610 -2.3230  1.5128 -1.6137
11339TIP3    H255433   5.176   3.973   4.637 -1.2438  0.3191 -0.4174
11340TIP3   OH255434   4.322   1.852  12.779  0.0836 -0.6308  0.1211
11340TIP3    H155435   4.399   1.822  12.731  2.4333  3.0078  1.3961
11340TIP3    H255436   4.312   1.790  12.851  1.7441 -1.2047 -0.1430
11341TIP3   OH255437   5.814   1.881   1.766  0.4542 -1.0023 -0.3412
11341TIP3    H155438   5.896   1.924   1.743  1.3279 -2.3381  0.2063
11341TIP3    H255439   5.762   1.950   1.809  1.7393 -0.4336  0.3352
11342TIP3   OH255440   1.215   0.059  16.767  0.1500 -0.9019 -0.0380
11342TIP3    H155441   1.142   0.108  16.729  1.5193  0.2913 -1.2330
11342TIP3    H255442   1.194   0.052  16.860 -0.4656  1.3398  0.0319
11343TIP3   OH255443   2.149   1.639   0.455 -0.7544  0.0391 -0.0222
11343TIP3    H155444   2.228   1.693   0.455 -1.1842  0.6753  0.5760
11343TIP3    H255445   2.179   1.552   0.482 -0.5335  0.7000  1.9171
11344TIP3   OH255446   3.471   0.013  12.984  0.4737  0.3152 -0.6177
11344TIP3    H155447   3.499  -0.067  12.939  1.0383 -0.9880  1.9710
11344TIP3    H255448   3.382  -0.006  13.013 -0.2578  1.5288 -2.0357
11345TIP3   OH255449   2.899   3.520   0.250  0.4281 -0.1856  0.3328
11345TIP3    H155450   2.833   3.479   0.194 -1.0177  1.1377  1.0504
11345TIP3    H255451   2.892   3.472   0.333  0.7567 -0.4044  0.2357
11346TIP3   OH255452   5.069   1.413   2.946  0.3764 -0.6435  0.3293
11346TIP3    H155453   5.045   1.323   2.967  0.8787 -0.5943  1.1327
11346TIP3    H255454   5.121   1.406   2.866 -2.0798 -0.7627 -1.2793
11347TIP3   OH255455   5.859   3.246   0.740 -0.1355  0.0749  0.0794
11347TIP3    H155456   5.892   3.333   0.760 -1.3297  0.4394  0.5385
11347TIP3    H255457   5.800   3.259   0.666 -0.0534 -0.3959 -0.0706
11348TIP3   OH255458   4.614   5.500  15.045  0.1486 -0.1016  0.2971
11348TIP3    H155459   4.644   5.449  15.121  1.4532 -1.8203 -1.3215
11348TIP3    H255460   4.604   5.589  15.078 -0.3838 -1.0320  2.7465
11349TIP3   OH255461   1.455   2.170   0.381  0.2650 -0.2839 -0.2979
11349TIP3    H155462   1.491   2.127   0.303  1.4153  1.2083 -0.6103
11349TIP3    H255463   1.495   2.123   0.454 -1.3792 -2.1648 -0.5760
11350TIP3   OH255464   0.973   3.392   0.040  0.6520 -0.3473  0.4854
11350TIP3    H155465   0.957   3.421   0.129 -0.6090 -3.1106  1.1929
11350TIP3    H255466   1.065   3.413   0.024  0.9721 -0.0982  2.5397
11351TIP3   OH255467   4.545   0.334  10.706  0.3292 -0.5339  0.2025
11351TIP3    H155468   4.461   0.335  10.752  0.3017  0.4550  0.1492
11351TIP3    H255469   4.607   0.373  10.769  0.1692  1.3912 -0.8167
11352TIP3   OH255470   1.112   2.861   0.995 -0.0870  0.6436 -0.0726
11352TIP3    H155471   1.110   2.811   1.077 -0.8523 -1.4775 -1.3329
11352TIP3    H255472   1.154   2.944   1.018  0.5133 -0.2713  2.2636
11353TIP3   OH255473   5.087   2.047  12.132 -0.0479  0.3804  0.2316
11353TIP3    H155474   5.100   2.012  12.221  0.4846  0.7293  0.2943
11353TIP3    H255475   5.093   1.970  12.076  2.4661  0.5072  0.2583
11354TIP3   OH255476   4.480   0.979  15.287  0.3144 -0.0090  0.2536
11354TIP3    H155477   4.444   1.063  15.258  1.7330  1.2056  1.9104
11354TIP3    H255478   4.406   0.934  15.328 -1.0439 -0.6123 -2.7161
11355TIP3   OH255479   1.366   1.058  12.717 -0.3130  0.4974  0.0867
11355TIP3    H155480   1.301   1.070  12.786  0.2376  1.5635  0.4412
11355TIP3    H255481   1.408   0.974  12.736 -1.5722 -0.1795 -0.1326
11356TIP3   OH255482   6.614   5.843   2.729  0.2575 -0.4018  0.9059
11356TIP3    H155483   6.580   5.843   2.818  3.7339  0.1614  2.3148
11356TIP3    H255484   6.671   5.920   2.725  1.4679 -1.3576 -1.2587
11357TIP3   OH255485   4.425   4.480  11.825 -0.4475  0.2149 -0.4023
11357TIP3    H155486   4.488   4.416  11.792  0.1758  1.0294 -0.8312
11357TIP3    H255487   4.344   4.462  11.776 -0.4614 -0.6405 -0.0677
11358TIP3   OH255488   2.556   1.444   0.235 -0.7362 -0.1574 -0.0386
11358TIP3    H155489   2.615   1.374   0.263 -1.4634 -0.2370  1.3745
11358TIP3    H255490   2.569   1.513   0.300 -1.7637  0.0490 -0.0452
11359TIP3   OH255491   4.860   4.013  16.444  0.2139 -0.0121 -0.4721
11359TIP3    H155492   4.898   4.059  16.370 -0.7303  1.3638 -0.1156
11359TIP3    H255493   4.820   4.082  16.498  0.0654 -1.0849  0.8261
11360TIP3   OH255494   1.497   1.671  10.712  0.1207  0.5150 -0.2870
11360TIP3    H155495   1.541   1.593  10.677  0.1183  0.3367  0.1070
11360TIP3    H255496   1.558   1.706  10.777  0.4713  1.2970 -1.0244
11361TIP3   OH255497   5.750   2.078  13.369  0.3183 -0.1586 -0.0837
11361TIP3    H155498   5.659   2.050  13.372 -0.0625  0.9375 -1.1643
11361TIP3    H255499   5.799   2.003  13.403 -0.8888 -1.1633 -0.5298
11362TIP3   OH255500   0.606   0.793   3.502 -0.2332  0.0218  0.0976
11362TIP3    H155501   0.649   0.717   3.463  0.7406  0.0340  1.0955
11362TIP3    H255502   0.605   0.773   3.596 -0.6283  0.9076  0.2822
11363TIP3   OH255503   2.784   1.190   3.355  0.1081  0.6244  0.8222
11363TIP3    H155504   2.783   1.286   3.354 -0.6709  0.6253  0.7906
11363TIP3    H255505   2.765   1.165   3.264  0.4509  0.4416  0.8014
11364TIP3   OH255506   0.489   0.033  14.611  0.2178 -0.2608  0.6073
11364TIP3    H155507   0.454   0.087  14.540  0.0694 -1.1064  0.0352
11364TIP3    H255508   0.545   0.093  14.661 -0.8022  0.7041  0.6158
11365TIP3   OH255509   0.156   2.975  14.794 -0.1712 -0.2166 -0.2233
11365TIP3    H155510   0.149   2.884  14.821 -0.5266 -0.5148 -1.3142
11365TIP3    H255511   0.243   3.002  14.824  0.0149 -0.9720 -0.0866
11366TIP3   OH255512   3.548   2.465   5.775  0.3215 -0.0884 -0.3092
11366TIP3    H155513   3.487   2.537   5.787  0.7365  0.5385 -1.8980
11366TIP3    H255514   3.633   2.501   5.803  0.6595  0.2766 -1.7871
11367TIP3   OH255515   0.324   2.648  12.870  0.5215  0.1500  0.5791
11367TIP3    H155516   0.360   2.736  12.864  2.6092 -0.7444 -0.7478
11367TIP3    H255517   0.272   2.637  12.791  0.8282 -0.0390  0.4022
11368TIP3   OH255518   5.885   2.245   0.447  0.4682  0.1153 -0.4968
11368TIP3    H155519   5.969   2.202   0.429 -0.5241 -2.8346  1.4566
11368TIP3    H255520   5.824   2.206   0.385  0.2694  1.3613 -1.0978
11369TIP3   OH255521   3.927   0.048  11.397 -0.3159 -0.2070 -0.3495
11369TIP3    H155522   4.014   0.008  11.396  0.1172  0.7332 -0.9792
11369TIP3    H255523   3.872  -0.015  11.443  0.6255 -0.9628 -0.2490
11370TIP3   OH255524   1.977   2.302  12.416  0.5899  0.2076 -0.0599
11370TIP3    H155525   1.978   2.230  12.353  1.1039  1.3352 -1.3874
11370TIP3    H255526   1.916   2.274  12.484 -1.2622 -0.3725 -1.9092
11371TIP3   OH255527   4.502   4.008   4.884 -0.2974 -0.1883 -0.1607
11371TIP3    H155528   4.423   3.976   4.839 -1.0093  0.3608  0.6859
11371TIP3    H255529   4.525   3.938   4.945 -0.0301 -0.4186 -0.5233
11372TIP3   OH255530   5.275   3.904  14.467 -0.4263 -0.1037  0.3801
11372TIP3    H155531   5.319   3.865  14.392  1.3418  2.5489 -0.0299
11372TIP3    H255532   5.236   3.830  14.514  1.1194 -2.1012 -1.4307
11373TIP3   OH255533   1.712   1.372  14.460  0.5318  0.5903  0.1610
11373TIP3    H155534   1.779   1.305  14.475  0.7728  0.6955 -0.4683
11373TIP3    H255535   1.631   1.322  14.448  0.9462  0.3388 -1.6880
11374TIP3   OH255536   4.081   6.746  15.225  0.4017  0.4192  0.9429
11374TIP3    H155537   4.173   6.744  15.251  0.5783 -0.5848  0.2681
11374TIP3    H255538   4.045   6.823  15.269  1.7000  1.1444  0.7568
11375TIP3   OH255539   4.661   1.748  14.458 -0.3542 -0.6339 -0.5088
11375TIP3    H155540   4.755   1.761  14.473 -0.7349  1.3835  0.3014
11375TIP3    H255541   4.623   1.744  14.545 -1.4233  2.0015 -0.8035
11376TIP3   OH255542   0.077   4.055  11.939  0.2581  0.0278 -0.4290
11376TIP3    H155543   0.107   4.049  11.849  0.7608  2.4975 -0.4698
11376TIP3    H255544   0.155   4.081  11.988 -0.0485 -1.1374  0.6963
11377TIP3   OH255545   1.482   2.388  11.134 -0.4857 -0.3090 -0.0812
11377TIP3    H155546   1.477   2.483  11.139 -0.2085 -0.3706  1.6346
11377TIP3    H255547   1.475   2.368  11.041  1.5239  1.5188 -0.6574
11378TIP3   OH255548   3.397   5.822   1.699  0.0092  0.0356 -0.0379
11378TIP3    H155549   3.425   5.822   1.791  2.4264 -0.8067 -0.7504
11378TIP3    H255550   3.301   5.815   1.704  0.1806 -1.2263  2.4080
11379TIP3   OH255551   3.779   2.947  16.779 -0.2359  0.0769  0.2364
11379TIP3    H155552   3.789   2.867  16.727  0.8943  2.0459 -2.7510
11379TIP3    H255553   3.687   2.972  16.768 -0.2398 -0.0511 -0.0223
11380TIP3   OH255554   0.026   3.908  12.702  0.4353  0.1783  0.0960
11380TIP3    H155555   0.038   3.882  12.793 -0.9096 -3.7490 -0.7423
11380TIP3    H255556  -0.025   3.989  12.706 -1.4792 -1.0930  2.8429
11381TIP3   OH255557   3.075   0.621  13.622 -0.5727 -0.6771  0.0830
11381TIP3    H155558   3.136   0.629  13.695  0.3641  0.4939 -0.8018
11381TIP3    H255559   3.078   0.529  13.598 -0.2368 -0.9029  0.9725
11382TIP3   OH255560   4.379   1.360  10.531  0.0259 -0.1807  0.2618
11382TIP3    H155561   4.313   1.368  10.600 -0.5491  0.9564 -0.3917
11382TIP3    H255562   4.454   1.410  10.563  0.0395 -0.2962  0.4040
11383TIP3   OH255563   5.965   1.310  16.788  0.0093 -0.3611 -0.4191
11383TIP3    H155564   6.011   1.235  16.827 -0.2442 -0.4058 -0.2018
11383TIP3    H255565   5.912   1.345  16.859 -0.8793 -0.7771 -0.8609
11384TIP3   OH255566   2.803   6.119  10.957  0.1971 -0.2996  0.1184
11384TIP3    H155567   2.730   6.108  11.019 -1.2234 -0.7602 -1.5901
11384TIP3    H255568   2.854   6.039  10.965 -0.9939 -1.1444 -0.5884
11385TIP3   OH255569   4.724   5.200   1.225 -0.2988 -0.2754 -0.1645
11385TIP3    H155570   4.734   5.172   1.316 -1.3664 -0.9380 -0.2486
11385TIP3    H255571   4.630   5.217   1.216 -0.2667 -0.6826 -1.2838
11386TIP3   OH255572   3.093   1.817  11.796 -0.1744  0.1588  0.2619
11386TIP3    H155573   3.016   1.872  11.781  0.2705  0.7247  0.0498
11386TIP3    H255574   3.120   1.838  11.885 -0.6031 -0.4649  0.5439
11387TIP3   OH255575   2.402   4.431   5.626 -0.3367  0.3336  0.1157
11387TIP3    H155576   2.413   4.344   5.663  1.9053 -0.2027 -1.6793
11387TIP3    H255577   2.411   4.490   5.700  0.5556 -0.8641  0.9918
11388TIP3   OH255578   1.134   1.846  13.197 -0.0739  0.3879 -0.3900
11388TIP3    H155579   1.060   1.789  13.176 -0.8190  1.4951 -0.8660
11388TIP3    H255580   1.168   1.814  13.280 -1.4935  0.2576  0.1431
11389TIP3   OH255581   3.499   5.699   3.851 -0.1467  0.2918 -0.3970
11389TIP3    H155582   3.561   5.632   3.821 -1.3664 -0.3620 -1.5044
11389TIP3    H255583   3.553   5.775   3.871  1.2974 -1.0546  1.0240
11390TIP3   OH255584   2.726   1.663   2.335 -0.0533  0.0128  0.3514
11390TIP3    H155585   2.699   1.659   2.243 -0.3829  2.4255  0.2961
11390TIP3    H255586   2.652   1.706   2.380  1.4546  1.8506  1.1347
11391TIP3   OH255587   4.142   6.414  16.296  0.2956  0.2532 -0.3986
11391TIP3    H155588   4.206   6.343  16.305  0.6237  0.3746 -1.6947
11391TIP3    H255589   4.133   6.426  16.201 -0.4044  1.3632 -0.1970
11392TIP3   OH255590   6.131   0.830  13.512 -0.3629 -0.3701  0.1832
11392TIP3    H155591   6.196   0.799  13.575 -0.5137 -0.3363  0.3561
11392TIP3    H255592   6.102   0.751  13.466  0.8280 -0.1990 -0.8770
11393TIP3   OH255593   1.437   3.407   1.360  0.0219  0.7710 -0.3647
11393TIP3    H155594   1.441   3.420   1.455  1.5156  1.3310 -0.4853
11393TIP3    H255595   1.516   3.357   1.339  0.5085  1.9600 -1.4874
11394TIP3   OH255596   1.699   1.707  12.350 -0.6968  0.0777  0.5918
11394TIP3    H155597   1.695   1.645  12.423  0.6688  1.4988  1.9055
11394TIP3    H255598   1.728   1.789  12.389  0.4450  0.7720 -1.6199
11395TIP3   OH255599   0.202   4.061   5.496 -0.0651  0.2512  0.3150
11395TIP3    H155600   0.187   4.087   5.405  0.7965 -0.2054  0.0442
11395TIP3    H255601   0.118   4.078   5.539  0.0722  2.1936 -0.1498
11396TIP3   OH255602   2.074   4.758  11.267  0.5841  0.0315  0.1891
11396TIP3    H155603   2.081   4.714  11.352 -1.9245 -2.3469 -0.7562
11396TIP3    H255604   2.141   4.717  11.213  2.0364  1.3944  0.9165
11397TIP3   OH255605   6.595   6.383   0.813 -0.5090 -0.5243 -0.5736
11397TIP3    H155606   6.610   6.446   0.884 -1.7332 -0.8631  0.0009
11397TIP3    H255607   6.604   6.433   0.733  0.5429 -0.0572 -0.1778
11398TIP3   OH255608   1.729   2.684   1.804 -0.1980  0.1327  0.0205
11398TIP3    H155609   1.816   2.687   1.843 -0.9936  1.9162  1.6806
11398TIP3    H255610   1.738   2.730   1.721  0.1318  1.4943  0.8114
11399TIP3   OH255611   3.575   2.028  11.963  0.0720  0.1406  0.5422
11399TIP3    H155612   3.552   1.939  11.936  1.7643  0.4667 -2.2288
11399TIP3    H255613   3.505   2.083  11.926 -0.2344  0.1197  1.0782
11400TIP3   OH255614   3.953   2.889  12.048  0.1557 -0.2626 -0.8218
11400TIP3    H155615   3.906   2.896  12.131  0.9492  1.3203 -0.4886
11400TIP3    H255616   4.002   2.807  12.055  2.9895  1.5537  1.7658
11401TIP3   OH255617   3.231   2.544   4.448  0.4252 -0.2770  0.0182
11401TIP3    H155618   3.271   2.512   4.368 -0.0517  0.5942 -0.5760
11401TIP3    H255619   3.152   2.490   4.459 -0.5314  0.8513 -1.1338
11402TIP3   OH255620   4.744   1.826  15.279  0.2824 -0.6092  0.4484
11402TIP3    H155621   4.763   1.760  15.346  0.4429  0.4863  1.4924
11402TIP3    H255622   4.658   1.860  15.303  0.7890  0.5079  0.6911
11403TIP3   OH255623   4.128   6.648   4.917  0.3250  1.1761  0.8087
11403TIP3    H155624   4.035   6.669   4.904 -0.6785 -3.0157  0.1640
11403TIP3    H255625   4.153   6.698   4.995 -2.8332  1.4920  1.7188
11404TIP3   OH255626   4.464   3.676  16.253 -0.1013  0.0158  0.0292
11404TIP3    H155627   4.548   3.633  16.244  0.2121  0.9447 -1.6382
11404TIP3    H255628   4.409   3.638  16.185 -1.2055 -0.9320  1.4087
11405TIP3   OH255629   6.435   3.526  14.554 -0.5704  0.2340 -0.4502
11405TIP3    H155630   6.381   3.588  14.604 -1.6371  0.0402 -1.3381
11405TIP3    H255631   6.463   3.461  14.619 -1.0910  0.5532  0.0991
11406TIP3   OH255632   6.091   4.172   5.950 -0.1452 -0.6142  0.0916
11406TIP3    H155633   6.101   4.261   5.916 -1.8186 -0.3445  0.2552
11406TIP3    H255634   6.172   4.156   5.999 -0.0486  1.0252  0.5005
11407TIP3   OH255635   0.257   1.077  16.192 -0.1419 -0.1021  0.3636
11407TIP3    H155636   0.182   1.040  16.239  0.2733 -1.8017 -0.2946
11407TIP3    H255637   0.245   1.049  16.101  1.4770 -0.6802  0.3173
11408TIP3   OH255638   4.413   3.935   4.373 -0.7248 -0.0319  0.6234
11408TIP3    H155639   4.318   3.945   4.370 -0.6623  0.5198  0.2908
11408TIP3    H255640   4.439   3.976   4.455 -0.6396  1.0454  0.0654
11409TIP3   OH255641   2.405   4.321  14.309 -0.1808  0.4969  0.1793
11409TIP3    H155642   2.477   4.369  14.269  0.0439 -0.7750 -0.9682
11409TIP3    H255643   2.327   4.356  14.267 -0.2031  1.4042  0.9452
11410TIP3   OH255644   2.152   3.259  16.634 -0.2357 -0.6766 -0.5987
11410TIP3    H155645   2.175   3.296  16.719  1.5646 -1.9600 -0.4815
11410TIP3    H255646   2.062   3.229  16.644 -0.3659  0.0877  0.5356
11411TIP3   OH255647   5.414   6.216   1.419  0.1856  0.5612 -0.2534
11411TIP3    H155648   5.486   6.263   1.462  0.1350 -1.9760  2.7383
11411TIP3    H255649   5.450   6.130   1.400 -0.5767  0.8614 -3.2152
11412TIP3   OH255650   5.971   3.396   1.529 -0.1205  0.0628  0.6844
11412TIP3    H155651   5.907   3.398   1.599  0.7587  1.9970  1.4726
11412TIP3    H255652   5.968   3.483   1.491  0.6293 -0.4374 -0.5596
11413TIP3   OH255653   5.274   6.663  16.982  0.2212 -0.2941 -0.3769
11413TIP3    H155654   5.273   6.651  16.888  0.1797  0.2148 -0.4417
11413TIP3    H255655   5.197   6.615  17.014  1.0530 -1.7259 -0.4429
11414TIP3   OH255656   4.737   4.002  13.999  0.0238  0.2294  0.9320
11414TIP3    H155657   4.777   3.947  13.932 -0.1497  0.6098  0.5128
11414TIP3    H255658   4.713   3.942  14.069 -0.3014 -0.2459  0.4119
11415TIP3   OH255659   4.751   3.268   0.063  0.1225  0.2820 -0.0383
11415TIP3    H155660   4.725   3.350   0.022  1.8104  0.1487 -1.4668
11415TIP3    H255661   4.676   3.210   0.052 -1.3547  1.8317  1.6165
11416TIP3   OH255662   5.640   2.931  14.513 -0.2408 -0.3341 -0.3475
11416TIP3    H155663   5.612   2.993  14.580 -0.3961 -0.3776 -0.3727
11416TIP3    H255664   5.627   2.977  14.430  3.4518  1.1723 -0.2074
11417TIP3   OH255665   3.373   6.688  14.614  0.1272  0.4068 -0.1189
11417TIP3    H155666   3.462   6.692  14.579 -0.0234 -1.0992 -0.6943
11417TIP3    H255667   3.384   6.662  14.705  0.3752  2.1195  0.3690
11418TIP3   OH255668   0.358   2.508   2.196  0.5441 -0.0722 -0.3027
11418TIP3    H155669   0.434   2.468   2.154  0.5193  0.4857 -0.8799
11418TIP3    H255670   0.299   2.435   2.212  2.2543 -0.9400  2.5000
11419TIP3   OH255671   5.636   4.302   0.078  0.5998  0.2071  0.6268
11419TIP3    H155672   5.694   4.342   0.143 -1.0335  1.9665  1.0670
11419TIP3    H255673   5.564   4.267   0.130  0.3410 -0.2753 -0.0547
11420TIP3   OH255674   1.109   3.930  12.527 -0.5635 -0.2765  0.3414
11420TIP3    H155675   1.116   3.987  12.451 -1.4194  0.1299  0.5578
11420TIP3    H255676   1.172   3.860  12.511 -1.9158 -1.0805 -1.4986
11421TIP3   OH255677   5.267   5.150  11.792 -0.0858  0.1348 -0.5118
11421TIP3    H155678   5.209   5.224  11.778  0.2141  0.3303 -0.7127
11421TIP3    H255679   5.344   5.168  11.738  0.4094  0.1491  0.1763
11422TIP3   OH255680   2.049   0.907  16.878 -0.0180  0.5210 -0.5908
11422TIP3    H155681   1.969   0.950  16.846 -2.0259 -2.0702  0.7383
11422TIP3    H255682   2.053   0.931  16.971  0.0909 -0.2968 -0.3813
11423TIP3   OH255683   2.987   2.340   0.090  0.3463 -0.1551 -0.0925
11423TIP3    H155684   3.056   2.290   0.046 -0.8744  0.0705 -2.3867
11423TIP3    H255685   2.906   2.295   0.066 -0.7159  2.4379 -1.6029
11424TIP3   OH255686   2.659   3.515   4.940  0.0194 -0.2693  0.1294
11424TIP3    H155687   2.645   3.610   4.945  2.9178  0.1871  0.0371
11424TIP3    H255688   2.606   3.487   4.865 -1.1102  1.1958  0.3443
11425TIP3   OH255689   5.007   3.762   5.125  0.3212  0.1424 -0.5432
11425TIP3    H155690   4.959   3.839   5.093 -0.1330  0.6230  1.2461
11425TIP3    H255691   5.094   3.794   5.145 -0.1267  0.4162  1.0499
11426TIP3   OH255692   2.846   2.695   5.915 -0.4739  0.0724 -0.2392
11426TIP3    H155693   2.857   2.607   5.951  1.6625  0.7925  0.9069
11426TIP3    H255694   2.817   2.748   5.990  0.8773  0.9087 -0.3014
11427TIP3   OH255695   1.842   6.164   6.286  0.1534 -0.0893 -0.2669
11427TIP3    H155696   1.899   6.232   6.321  0.8241 -1.1298  0.6727
11427TIP3    H255697   1.899   6.107   6.235 -0.2246 -0.4998 -0.2447
11428TIP3   OH255698   0.176   3.915   4.587 -0.0165 -0.2942 -0.1193
11428TIP3    H155699   0.153   3.837   4.537  0.0960  0.4490 -1.3496
11428TIP3    H255700   0.257   3.946   4.547 -0.0417  0.4285  0.3848
11429TIP3   OH255701   6.430   3.365   4.027  0.2870  0.9033 -0.2107
11429TIP3    H155702   6.383   3.424   4.086  0.1527  1.3607 -0.7740
11429TIP3    H255703   6.370   3.292   4.012 -1.3199  2.7532 -3.0476
11430TIP3   OH255704   5.825   3.005  12.599 -0.1451 -0.0276  0.0423
11430TIP3    H155705   5.833   2.910  12.607  0.5896 -0.0688 -0.9827
11430TIP3    H255706   5.914   3.035  12.581 -0.3461  0.8760  0.5068
11431TIP3   OH255707   2.301   4.111  15.850 -0.0105  0.2120  0.1756
11431TIP3    H155708   2.234   4.118  15.918 -0.7182  1.3129 -0.6180
11431TIP3    H255709   2.282   4.029  15.806 -2.8387  1.9881 -2.0969
11432TIP3   OH255710   5.746   3.589  12.135  0.3496 -0.4371 -0.4643
11432TIP3    H155711   5.693   3.640  12.196 -0.1965  0.1062 -1.3832
11432TIP3    H255712   5.683   3.531  12.092  0.2771  1.0900 -2.4728
11433TIP3   OH255713   2.501   4.145   3.397 -0.5433 -0.7653 -0.1231
11433TIP3    H155714   2.449   4.095   3.460 -0.8118 -0.1329  0.1592
11433TIP3    H255715   2.549   4.208   3.451 -2.2470  1.0886 -0.7198
11434TIP3   OH255716   3.108   0.902  16.776 -0.4986 -0.1943  0.2446
11434TIP3    H155717   3.066   0.876  16.858 -0.1549 -1.5886 -0.0013
11434TIP3    H255718   3.125   0.996  16.785 -1.6609 -0.0823  1.2291
11435TIP3   OH255719   2.035   0.767  13.416  0.1373 -0.1034  0.2548
11435TIP3    H155720   2.126   0.784  13.393 -0.1382 -0.9027 -1.5405
11435TIP3    H255721   2.031   0.672  13.431 -0.4146 -0.1011  0.1547
11436TIP3   OH255722   0.110   0.764  12.805 -0.0516 -0.3974  0.2617
11436TIP3    H155723   0.096   0.704  12.732 -1.3407  1.8755 -1.4401
11436TIP3    H255724   0.022   0.788  12.834  0.4060  1.3772  0.2776
11437TIP3   OH255725   4.473   5.372  16.477  0.2222 -0.1154 -0.2057
11437TIP3    H155726   4.414   5.324  16.536 -0.1766  1.4566  0.6956
11437TIP3    H255727   4.422   5.448  16.448  1.8811  1.4124  0.7897
11438TIP3   OH255728   0.579   6.284  11.024 -0.3422  0.1729  0.1357
11438TIP3    H155729   0.488   6.252  11.022 -0.4042  0.3016  0.7828
11438TIP3    H255730   0.632   6.205  11.013 -0.5215 -0.0238  0.6231
11439TIP3   OH255731   2.002   5.807   4.785  0.1580  0.2649 -0.0307
11439TIP3    H155732   2.010   5.833   4.693 -2.0513  1.4758  0.0882
11439TIP3    H255733   2.084   5.836   4.825  0.8081  0.4351 -1.4372
11440TIP3   OH255734   3.521   5.640  15.902  0.0693  0.3119 -0.6685
11440TIP3    H155735   3.565   5.555  15.893 -1.5702 -0.7460  0.9010
11440TIP3    H255736   3.501   5.647  15.995 -0.1918  2.2504 -0.8468
11441TIP3   OH255737   2.967   1.188  15.970 -0.1855 -0.3123  0.0218
11441TIP3    H155738   2.897   1.226  15.917  0.0669 -2.3642 -1.8757
11441TIP3    H255739   2.922   1.144  16.041 -0.7104  0.0635 -0.0734
11442TIP3   OH255740   4.930   1.721  14.452  0.3755  0.3125  0.5756
11442TIP3    H155741   4.970   1.714  14.539 -0.2452  0.6702  0.8950
11442TIP3    H255742   4.960   1.643  14.405 -0.2466 -0.4971  1.5033
11443TIP3   OH255743   2.774   5.961   0.410  0.1106 -0.0561 -0.1975
11443TIP3    H155744   2.704   5.981   0.471  0.8839  0.9596  0.3821
11443TIP3    H255745   2.852   5.955   0.465  0.5479 -0.7341 -0.8864
11444TIP3   OH255746   3.385   1.978  15.959 -0.5293  0.1399  0.2776
11444TIP3    H155747   3.456   2.033  15.927 -1.4433  0.7490 -0.7439
11444TIP3    H255748   3.347   2.027  16.032 -0.0716 -0.0675  0.6581
11445TIP3   OH255749   1.624   0.681  11.660  0.0806 -0.1748 -0.0973
11445TIP3    H155750   1.620   0.700  11.566  0.4050 -0.3756 -0.1532
11445TIP3    H255751   1.538   0.707  11.693 -0.6134 -1.6181 -0.7362
11446TIP3   OH255752   5.117   3.939   0.154  0.1241 -0.4754 -0.3519
11446TIP3    H155753   5.200   3.978   0.125 -0.1329 -1.4784 -2.5120
11446TIP3    H255754   5.070   3.919   0.073 -1.9963 -0.4804  0.8298
11447TIP3   OH255755   0.944   2.055   3.904 -0.3098  0.0161  0.4102
11447TIP3    H155756   0.855   2.080   3.927 -1.0591 -1.7898 -0.4718
11447TIP3    H255757   0.997   2.132   3.925 -2.2524  1.5687 -0.2843
11448TIP3   OH255758   4.707   4.978  17.072  0.4346  0.3880 -0.0593
11448TIP3    H155759   4.782   4.926  17.103 -0.4661 -0.4175  0.8123
11448TIP3    H255760   4.721   5.064  17.111  1.3900  0.5073 -0.6496
11449TIP3   OH255761   1.528   0.716  15.632  0.0544 -0.3306 -0.6022
11449TIP3    H155762   1.566   0.696  15.717  0.7294  1.0120 -0.5742
11449TIP3    H255763   1.521   0.631  15.588  0.1095 -0.9730  0.6141
11450TIP3   OH255764   3.018   0.753   2.266  0.1385 -0.5113 -0.2780
11450TIP3    H155765   3.061   0.683   2.316  1.8829 -0.1384 -1.2070
11450TIP3    H255766   3.047   0.834   2.309  0.4637 -0.2529 -0.9758
11451TIP3   OH255767   0.064   0.892  11.843 -0.0751 -0.2914  0.4277
11451TIP3    H155768   0.143   0.885  11.790  0.8024  0.6157  1.5777
11451TIP3    H255769   0.045   0.803  11.871  0.8351 -0.4434  0.5594
11452TIP3   OH255770   6.016   1.305  12.535 -0.2767 -0.2011 -0.4697
11452TIP3    H155771   6.050   1.395  12.534  0.1681 -0.3365  0.6910
11452TIP3    H255772   6.025   1.275  12.445 -0.0674  0.7904 -0.7910
11453TIP3   OH255773   0.143   5.036   3.939  0.0173 -0.5262 -0.6372
11453TIP3    H155774   0.149   5.121   3.983  2.5913 -0.4114 -1.0980
11453TIP3    H255775   0.152   4.972   4.010  0.9542 -0.3684 -0.6047
11454TIP3   OH255776   5.936   1.268   3.924  0.4494  0.0418  0.0590
11454TIP3    H155777   5.868   1.248   3.859 -0.7508  1.6469  0.7586
11454TIP3    H255778   5.924   1.203   3.993  0.7649 -0.7654 -0.6501
11455TIP3   OH255779   5.573   5.122   0.987  0.1721 -0.2149  0.5053
11455TIP3    H155780   5.606   5.038   0.953 -0.2763 -0.7974  1.4859
11455TIP3    H255781   5.633   5.187   0.951  0.1044 -0.8827 -0.8658
11456TIP3   OH255782   3.207   0.046  14.471  0.5490 -0.4654  0.7269
11456TIP3    H155783   3.277  -0.012  14.501  0.7984 -0.3800  0.3063
11456TIP3    H255784   3.245   0.093  14.397 -1.0632 -2.8138 -1.6355
11457TIP3   OH255785   6.559   1.256   4.537  0.7787 -0.2440 -0.5332
11457TIP3    H155786   6.638   1.242   4.485  1.9065 -0.9541  1.3100
11457TIP3    H255787   6.577   1.212   4.620 -2.4617 -2.4345 -0.8912
11458TIP3   OH255788   3.430   5.827  16.782 -0.1911 -0.0795  0.5222
11458TIP3    H155789   3.521   5.856  16.776 -0.0620 -0.6710 -0.4925
11458TIP3    H255790   3.380   5.892  16.733 -0.4910  0.9267  2.1107
11459TIP3   OH255791   0.316   4.979  15.303  0.6653 -0.0465 -0.4692
11459TIP3    H155792   0.307   5.061  15.254 -1.6070 -0.8115 -1.3517
11459TIP3    H255793   0.318   4.911  15.236  1.2514 -0.8248  0.3351
11460TIP3   OH255794   0.657   0.081   0.166 -0.7865 -1.0655 -0.2510
11460TIP3    H155795   0.615   0.122   0.242 -0.1610 -0.3497 -0.2859
11460TIP3    H255796   0.606   0.001   0.151 -1.6617 -0.5984  0.1749
11461TIP3   OH255797   0.675   1.997   2.554  0.6639  0.5189 -0.0320
11461TIP3    H155798   0.706   1.946   2.479  2.1862  1.8581 -0.3309
11461TIP3    H255799   0.703   1.947   2.630 -2.6259 -1.9081 -0.2710
11462TIP3   OH255800   6.669   1.656   3.334  0.0123  0.2843 -0.1337
11462TIP3    H155801   6.648   1.588   3.270  1.1848 -0.6740  0.4746
11462TIP3    H255802   6.712   1.608   3.406 -0.1180  1.5206  0.7727
11463TIP3   OH255803   0.852   2.020   5.235  0.3906 -0.5059  0.1325
11463TIP3    H155804   0.871   2.037   5.143  2.2587 -0.8034  0.4435
11463TIP3    H255805   0.829   1.928   5.239  1.2430 -0.7230  0.0983
11464TIP3   OH255806   1.884   6.065  16.516 -0.2223 -0.0697  0.2922
11464TIP3    H155807   1.803   6.056  16.467  0.0087  1.7680 -0.4739
11464TIP3    H255808   1.952   6.033  16.456 -0.3085 -0.9672  0.6749
11465TIP3   OH255809   1.615   1.809   4.210  0.5955  1.2405 -0.4213
11465TIP3    H155810   1.621   1.894   4.166 -1.0906  1.0713 -0.9870
11465TIP3    H255811   1.522   1.798   4.231  1.0501  0.3522  1.3003
11466TIP3   OH255812   0.174   2.828   2.829  0.0326  0.2653 -0.2205
11466TIP3    H155813   0.186   2.769   2.754  0.0926 -0.8159  0.6257
11466TIP3    H255814   0.091   2.872   2.812 -0.9981 -1.5302  0.1041
11467TIP3   OH255815   4.057   3.468   5.257 -0.6311 -0.1473 -0.1801
11467TIP3    H155816   4.098   3.395   5.212  1.6047  0.8293  0.1889
11467TIP3    H255817   4.016   3.519   5.188 -0.7820 -0.8733 -0.6238
11468TIP3   OH255818   4.228   0.125   4.013 -0.0890  0.5294 -0.6808
11468TIP3    H155819   4.299   0.098   4.072  0.7013  3.3234 -0.2791
11468TIP3    H255820   4.153   0.073   4.041  0.9142  0.0336  1.1955
11469TIP3   OH255821   5.693   3.338   1.378 -0.1786 -0.4523 -0.0338
11469TIP3    H155822   5.733   3.408   1.429 -0.5261  0.2446 -0.7089
11469TIP3    H255823   5.738   3.341   1.293 -0.4827 -0.7743 -0.2070
11470TIP3   OH255824   6.226   4.037  11.680  0.2533 -0.4437 -0.3707
11470TIP3    H155825   6.294   3.985  11.723  1.5741  2.1935  0.7916
11470TIP3    H255826   6.257   4.127  11.686 -2.8803  0.6985 -0.7220
11471TIP3   OH255827   4.261   1.119  14.972  0.5661  0.1079  0.5548
11471TIP3    H155828   4.277   1.031  14.939 -0.7851 -0.0551  0.3016
11471TIP3    H255829   4.260   1.175  14.895 -1.5264 -0.1135  0.3947
11472TIP3   OH255830   0.767   3.167  12.069 -0.0574  0.2740  0.4851
11472TIP3    H155831   0.693   3.210  12.026  0.6402  0.4758 -0.5175
11472TIP3    H255832   0.840   3.228  12.059  0.7209 -0.7598 -0.2078
11473TIP3   OH255833   3.881   6.083  16.296 -0.0617 -0.4570  0.0243
11473TIP3    H155834   3.918   6.122  16.217 -0.1537  1.5724  0.9364
11473TIP3    H255835   3.932   6.003  16.309 -0.3901 -1.0888 -2.3399
11474TIP3   OH255836   3.900   0.825   5.190 -0.0642  0.8419  0.4029
11474TIP3    H155837   3.891   0.743   5.142  0.9841  0.8459  0.1892
11474TIP3    H255838   3.813   0.842   5.225 -0.0251 -0.9820  1.4462
11475TIP3   OH255839   4.694   3.524  11.976 -0.9198 -0.3682 -0.6573
11475TIP3    H155840   4.610   3.522  11.931 -0.4237  0.0606 -1.6203
11475TIP3    H255841   4.723   3.616  11.969 -1.3536 -0.0399  1.5125
11476TIP3   OH255842   5.431   4.836   5.159  0.2235 -0.3348  0.0463
11476TIP3    H155843   5.482   4.822   5.239 -0.7302 -0.4289  0.6359
11476TIP3    H255844   5.340   4.825   5.186 -0.2146  1.4160 -0.6834
11477TIP3   OH255845   0.616   5.803   4.158  0.2918 -0.0469 -0.2636
11477TIP3    H155846   0.593   5.802   4.065 -1.6937  1.6132  0.1877
11477TIP3    H255847   0.635   5.712   4.179 -2.9896 -1.0533 -1.3922
11478TIP3   OH255848   4.455   1.719   5.388 -0.1694  0.4910 -0.5341
11478TIP3    H155849   4.383   1.730   5.450  0.9990 -2.7873  1.5222
11478TIP3    H255850   4.531   1.756   5.432 -0.0137  1.4508 -1.5685
11479TIP3   OH255851   0.596   3.176   3.483  0.2311 -0.2504 -0.2064
11479TIP3    H155852   0.546   3.152   3.405  0.3903 -2.4613  0.3437
11479TIP3    H255853   0.683   3.200   3.449 -0.1243  0.1428 -0.8400
11480TIP3   OH255854   1.430   5.077   3.071  0.3715  0.3693  0.2654
11480TIP3    H155855   1.450   5.106   2.982  1.3831 -2.0105 -0.3224
11480TIP3    H255856   1.335   5.063   3.071  0.2250  1.3715 -0.1426
11481TIP3   OH255857   5.444   3.380   3.291 -0.4879  0.1501 -0.3874
11481TIP3    H155858   5.510   3.367   3.223 -1.2423 -0.0569 -1.0820
11481TIP3    H255859   5.370   3.420   3.245 -0.6366  0.9170  0.4979
11482TIP3   OH255860   2.764   2.992   1.724 -0.2243  0.1151  0.2930
11482TIP3    H155861   2.840   2.972   1.668 -0.2775 -0.0752  0.2870
11482TIP3    H255862   2.692   2.944   1.684 -0.3387  0.2624  0.3238
11483TIP3   OH255863   4.947   5.830  16.897  0.5032  0.1015  0.0348
11483TIP3    H155864   4.868   5.831  16.843 -1.1480  0.9693  2.3751
11483TIP3    H255865   4.965   5.737  16.910 -0.4946 -0.1076 -0.0139
11484TIP3   OH255866   5.547   5.340   2.668  0.1314  0.1513 -0.1780
11484TIP3    H155867   5.599   5.271   2.627  2.1664  1.0929  0.6763
11484TIP3    H255868   5.553   5.321   2.762 -1.3970  0.0833 -0.0854
11485TIP3   OH255869   3.560   2.373   3.090  0.4117  0.1562  1.0413
11485TIP3    H155870   3.501   2.445   3.113  0.3937  0.0289  1.4004
11485TIP3    H255871   3.512   2.294   3.114  0.6672  0.0473  1.2015
11486TIP3   OH255872   1.881   2.104   5.442  0.5246 -0.3607  0.6045
11486TIP3    H155873   1.858   2.141   5.357  0.0779 -0.6932  0.5805
11486TIP3    H255874   1.835   2.020   5.445 -0.6844  0.3245  1.7930
11487TIP3   OH255875   2.006   4.212   3.668 -0.0037 -0.3695 -0.1384
11487TIP3    H155876   2.071   4.192   3.601  0.4863  1.4839 -0.2361
11487TIP3    H255877   1.939   4.262   3.623 -1.8662 -2.7812 -0.1797
11488TIP3   OH255878   6.729   4.254  11.427 -0.2426 -0.7108 -0.0408
11488TIP3    H155879   6.695   4.343  11.419  2.5925  0.2791 -1.4650
11488TIP3    H255880   6.674   4.213  11.494 -0.8654  2.4320  1.4159
11489TIP3   OH255881   3.656   5.413   5.321  0.4082 -0.1666 -0.4972
11489TIP3    H155882   3.663   5.445   5.411  0.2013  0.1369 -0.5873
11489TIP3    H255883   3.736   5.444   5.278  0.7457 -0.7399 -0.2890
11490TIP3   OH255884   6.722   0.875   2.467 -0.4409 -0.2294 -0.2527
11490TIP3    H155885   6.788   0.898   2.402 -0.5376 -0.2407 -0.3568
11490TIP3    H255886   6.687   0.792   2.436 -1.3105  0.3390 -0.8319
11491TIP3   OH255887   3.953   4.073  11.698 -0.3294  0.5415 -0.1153
11491TIP3    H155888   4.049   4.069  11.703 -0.1746  3.3788  0.3460
11491TIP3    H255889   3.934   4.095  11.607 -0.4459  1.2353  0.0674
11492TIP3   OH255890   4.214   2.527   2.070  0.8201  0.3468  0.1480
11492TIP3    H155891   4.216   2.461   2.001 -3.5509  2.0351 -1.7851
11492TIP3    H255892   4.276   2.593   2.042 -0.1503  0.5052 -1.6848
11493TIP3   OH255893   2.611   3.103   4.845  0.1458 -0.6209  0.0013
11493TIP3    H155894   2.535   3.106   4.787  0.6485 -0.9898 -0.6768
11493TIP3    H255895   2.574   3.117   4.932 -0.8063 -1.5773 -0.2355
11494TIP3   OH255896   0.466   4.731   4.863  0.7976  0.2359 -0.1536
11494TIP3    H155897   0.370   4.733   4.870  0.9148  2.1557  1.6862
11494TIP3    H255898   0.487   4.640   4.844 -1.2233 -1.0829  3.3365
11495TIP3   OH255899   2.576   1.249  12.236  0.5501 -0.4202 -0.6805
11495TIP3    H155900   2.579   1.216  12.326 -1.3809  0.0395 -0.4381
11495TIP3    H255901   2.492   1.219  12.202  1.4507 -0.9487 -2.4955
11496TIP3   OH255902   0.661   3.828   5.387 -0.0269  0.1173 -0.4296
11496TIP3    H155903   0.600   3.880   5.439 -0.9115 -1.1607 -0.1666
11496TIP3    H255904   0.609   3.798   5.312 -0.0610 -1.8479  0.3271
11497TIP3   OH255905   3.189   0.472   3.422  0.2333  0.4678  0.4076
11497TIP3    H155906   3.111   0.528   3.416 -2.2525 -2.6073  2.3487
11497TIP3    H255907   3.231   0.500   3.504 -1.9537 -1.5311  2.2883
11498TIP3   OH255908   3.486   0.981   5.103 -0.2145 -0.2505 -0.1905
11498TIP3    H155909   3.403   0.962   5.058  0.4396 -1.0695 -1.0571
11498TIP3    H255910   3.459   1.013   5.189 -1.5017  1.7576 -1.3005
11499TIP3   OH255911   1.621   4.447  13.485  0.2858 -0.1697 -0.0796
11499TIP3    H155912   1.664   4.414  13.406  0.4338  0.8328 -0.4318
11499TIP3    H255913   1.670   4.526  13.507 -1.5101  1.1171 -0.6201
11500TIP3   OH255914   6.209   2.119  13.381  1.2378 -0.2256  0.4216
11500TIP3    H155915   6.265   2.085  13.451  0.8683  0.0211  0.8474
11500TIP3    H255916   6.120   2.114  13.417  1.1543  0.9791  0.4180
11501TIP3   OH255917   5.967   6.738  12.368 -0.3341  0.6698 -0.2260
11501TIP3    H155918   5.909   6.807  12.335 -0.9843 -1.0239 -2.7377
11501TIP3    H255919   5.910   6.661  12.378  0.4918  0.3129  2.0213
11502TIP3   OH255920   2.721   6.176  11.491  0.2251  0.3055 -0.4237
11502TIP3    H155921   2.775   6.152  11.566  0.3733  1.3580 -0.1839
11502TIP3    H255922   2.715   6.271  11.496 -0.8850  0.2707 -0.9790
11503TIP3   OH255923   4.013   1.485  11.648 -0.2871  0.6209 -0.1194
11503TIP3    H155924   3.958   1.493  11.570  0.9755 -0.1441 -1.1198
11503TIP3    H255925   4.007   1.392  11.672 -1.0264  0.9368  0.9862
11504TIP3   OH255926   3.575   1.643  15.587  0.7898  0.2315  0.4597
11504TIP3    H155927   3.555   1.737  15.585 -2.6688 -0.4390  1.6297
11504TIP3    H255928   3.525   1.606  15.515  0.9836 -0.9482  0.9270
11505TIP3   OH255929   2.514   5.362   0.957  0.5986 -0.2462 -0.8746
11505TIP3    H155930   2.569   5.317   1.021  0.2400 -2.4190 -2.0638
11505TIP3    H255931   2.531   5.317   0.875 -0.8788  0.8689 -1.8082
11506TIP3   OH255932   2.417   6.168   1.540 -0.1937 -0.5568 -0.5804
11506TIP3    H155933   2.363   6.117   1.479 -1.4927  0.0476  0.0468
11506TIP3    H255934   2.465   6.229   1.484 -0.2181 -1.0399 -1.1350
11507TIP3   OH255935   2.104   5.136   1.573 -0.3770 -0.1502 -0.2093
11507TIP3    H155936   2.160   5.068   1.536  0.4329 -0.1428  0.9953
11507TIP3    H255937   2.033   5.087   1.616 -0.6041 -0.1836 -0.6110
11508TIP3   OH255938   1.146   0.600   1.984 -0.4714 -0.2218 -0.3496
11508TIP3    H155939   1.211   0.564   1.923 -0.4499 -1.6696  0.5061
11508TIP3    H255940   1.156   0.695   1.976  1.1325 -0.4155 -0.8996
11509TIP3   OH255941   1.782   5.730  13.484 -0.7741 -0.0879  0.8226
11509TIP3    H155942   1.768   5.750  13.576 -1.9490 -1.9470  1.0757
11509TIP3    H255943   1.857   5.670  13.483  0.2087  1.1160  0.4136
11510TIP3   OH255944   4.190   6.482   2.208  0.3406  0.7265 -0.5138
11510TIP3    H155945   4.099   6.466   2.182  0.6127  0.5575 -1.3957
11510TIP3    H255946   4.225   6.538   2.139  1.1338  0.1357 -0.5963
11511TIP3   OH255947   3.981   6.457  10.512  0.0849 -0.6455 -0.0370
11511TIP3    H155948   4.053   6.405  10.478  0.1835 -1.7764  1.8602
11511TIP3    H255949   3.992   6.543  10.470  1.1473 -1.4901 -1.5484
11512TIP3   OH255950   3.658   0.080  11.801  0.1276  0.2354  0.5142
11512TIP3    H155951   3.717   0.146  11.765 -0.6241  0.0265 -1.1203
11512TIP3    H255952   3.645   0.106  11.892  0.1335  2.1217 -0.0162
11513TIP3   OH255953   5.965   3.913   0.045  0.1914  0.1501  0.3583
11513TIP3    H155954   5.953   3.845  -0.022  0.8811 -1.4287  1.7850
11513TIP3    H255955   5.878   3.950   0.057 -0.2612 -0.6875 -0.2499
11514TIP3   OH255956   3.042   6.780   0.058  0.4151 -0.4026  0.1272
11514TIP3    H155957   2.979   6.807  -0.009  0.1140 -0.6098  0.3241
11514TIP3    H255958   3.126   6.778   0.012  0.6626  2.0985  0.4096
11515TIP3   OH255959   5.187   2.951   1.299 -0.4047 -0.2353 -0.5544
11515TIP3    H155960   5.214   3.000   1.221 -1.6196  1.2944 -0.0346
11515TIP3    H255961   5.147   2.871   1.265  1.5106 -0.8521 -1.4189
11516TIP3   OH255962   1.927   5.032  16.320  0.0410  0.3370 -0.4031
11516TIP3    H155963   1.963   5.105  16.270 -0.2922  2.6346  2.5737
11516TIP3    H255964   1.987   5.020  16.394 -0.4828 -1.7039 -0.2652
11517TIP3   OH255965   1.429   5.742  12.193 -0.3330 -0.0649  0.0913
11517TIP3    H155966   1.418   5.679  12.122  2.0201  0.2994 -0.6273
11517TIP3    H255967   1.339   5.761  12.222 -1.2457 -1.2267 -1.8710
11518TIP3   OH255968   1.094   5.937  14.892  0.1024  0.0136 -0.5527
11518TIP3    H155969   1.143   5.985  14.825  0.9199 -1.1204 -0.7831
11518TIP3    H255970   1.147   5.859  14.909 -1.2570 -0.8572 -0.2632
11519TIP3   OH255971   5.556   4.923   2.858 -0.2904 -0.3362  0.2288
11519TIP3    H155972   5.486   4.978   2.823 -0.6927 -0.6832  0.4951
11519TIP3    H255973   5.527   4.901   2.946  0.5924  0.3138  0.6970
11520TIP3   OH255974   3.775   4.128  13.545  0.5056  0.4996  0.1490
11520TIP3    H155975   3.822   4.178  13.479  2.4234 -0.3697  0.8116
11520TIP3    H255976   3.766   4.041  13.507 -0.1288  0.5227  0.2402
11521TIP3   OH255977   1.646   2.475  10.720  0.3263 -0.0877 -0.6688
11521TIP3    H155978   1.570   2.434  10.761  0.1032 -1.1651 -2.0942
11521TIP3    H255979   1.611   2.512  10.639  0.6592  2.3840  0.2862
11522TIP3   OH255980   3.599   3.682  11.771 -0.2820 -0.3205 -0.7225
11522TIP3    H155981   3.567   3.706  11.858 -1.8262 -1.7261 -0.8843
11522TIP3    H255982   3.648   3.759  11.741 -1.0016  0.7309  0.7653
11523TIP3   OH255983   4.484   2.055  14.085  0.4586  0.1454  0.1175
11523TIP3    H155984   4.576   2.072  14.106  0.6685 -0.3628 -0.3720
11523TIP3    H255985   4.447   2.141  14.068  1.1309  0.2695 -0.8037
11524TIP3   OH255986   5.702   6.091  15.048  0.4314  0.2425  0.4043
11524TIP3    H155987   5.732   6.037  14.975 -0.3140 -0.8582  0.9121
11524TIP3    H255988   5.623   6.048  15.079 -1.2937  2.6870 -0.4107
11525TIP3   OH255989   0.252   4.845  14.367 -0.2130  0.5080 -0.3860
11525TIP3    H155990   0.272   4.792  14.290 -0.9923  0.2437 -0.4129
11525TIP3    H255991   0.232   4.932  14.332 -2.7884 -0.1734 -0.7043
11526TIP3   OH255992   4.268   4.574  13.652 -0.2569 -0.3657 -0.2199
11526TIP3    H155993   4.196   4.583  13.714  0.7606 -1.7457  1.1963
11526TIP3    H255994   4.309   4.661  13.650 -0.9055 -0.0424  0.2498
11527TIP3   OH255995   3.604   5.384   2.739 -0.4124  0.1979  0.0556
11527TIP3    H155996   3.558   5.452   2.691  2.1633  0.8200 -1.6223
11527TIP3    H255997   3.631   5.321   2.673  0.6026 -0.4515  1.0616
11528TIP3   OH255998   1.873   0.747   1.875  0.3283  0.7945 -0.3145
11528TIP3    H155999   1.938   0.786   1.933  0.8366 -0.0919 -0.2954
11528TIP3    H256000   1.802   0.720   1.933  1.1450 -0.7356 -0.0232
11529TIP3   OH256001   5.610   1.472   1.605  0.5216 -0.2003  0.9253
11529TIP3    H156002   5.695   1.509   1.582  0.3907  0.2964  1.2447
11529TIP3    H256003   5.557   1.547   1.631 -0.0113 -0.5110  0.7452
11530TIP3   OH256004   3.521   6.468  12.399 -0.2916  0.5313  0.0267
11530TIP3    H156005   3.533   6.476  12.305  1.5485  0.8330  0.2674
11530TIP3    H256006   3.447   6.408  12.409 -0.6275  0.6506 -1.5939
11531TIP3   OH256007   0.289   4.315  12.287 -0.2633 -0.0697 -0.4154
11531TIP3    H156008   0.356   4.247  12.277 -1.0262 -0.6758 -1.5597
11531TIP3    H256009   0.336   4.397  12.272  0.4538 -0.4210 -0.1044
11532TIP3   OH256010   4.996   4.515  16.196  0.3656 -0.0795 -0.1157
11532TIP3    H156011   5.081   4.554  16.217 -0.5691  1.8133  0.2054
11532TIP3    H256012   4.975   4.549  16.109 -0.6822  0.5292  0.3657
11533TIP3   OH256013   2.724   5.589   6.291 -0.1776 -0.5186  0.0005
11533TIP3    H156014   2.719   5.494   6.300 -0.1048 -0.7058 -1.7149
11533TIP3    H256015   2.816   5.606   6.268 -0.5242 -0.1956 -1.2031
11534TIP3   OH256016   1.092   6.413   3.218  0.3592  0.3524 -0.7145
11534TIP3    H156017   1.157   6.431   3.150 -0.8797  1.3739 -1.6589
11534TIP3    H256018   1.054   6.329   3.193  0.2123  0.5192 -1.0646
11535TIP3   OH256019   5.305   1.144   1.579  0.7468  0.1938 -0.3180
11535TIP3    H156020   5.292   1.050   1.589  0.2625  0.0349 -2.3163
11535TIP3    H256021   5.216   1.180   1.577  0.7541  0.2127 -3.7048
11536TIP3   OH256022   2.088   5.922  17.000  0.2864 -0.1320 -0.2753
11536TIP3    H156023   1.995   5.910  16.980  0.3389  0.3709 -0.8298
11536TIP3    H256024   2.090   5.995  17.063  0.1821 -1.2073  0.9964
11537TIP3   OH256025   3.847   3.479   5.869  0.4052  0.3923  0.1280
11537TIP3    H156026   3.821   3.570   5.883 -0.2645  0.1037  0.8140
11537TIP3    H256027   3.907   3.460   5.941 -0.4873 -0.1006  0.7584
11538TIP3   OH256028   2.228   1.073   0.344 -0.2460 -0.0147 -0.3423
11538TIP3    H156029   2.317   1.065   0.377 -1.1277 -1.5836  1.7271
11538TIP3    H256030   2.206   0.986   0.310 -0.5165  0.7266 -2.1503
11539TIP3   OH256031   0.369   3.491  13.532 -0.0226 -0.2657 -0.1589
11539TIP3    H156032   0.410   3.446  13.606  0.2559 -0.7226 -0.5915
11539TIP3    H256033   0.386   3.584  13.549 -2.1421 -0.1624  1.6705
11540TIP3   OH256034   6.394   3.962   4.264  0.1332 -0.8596  0.6875
11540TIP3    H156035   6.475   3.943   4.313 -0.6003 -0.2328  2.1799
11540TIP3    H256036   6.345   3.880   4.267  0.8141 -1.3198 -0.4414
11541TIP3   OH256037   2.584   2.802  11.350  0.4734  0.3193  0.0821
11541TIP3    H156038   2.549   2.758  11.272 -0.3477  1.5599 -0.2599
11541TIP3    H256039   2.636   2.735  11.394  1.1294 -0.3305 -1.6497
11542TIP3   OH256040   6.766   2.000   1.018 -0.2058  0.0100  0.5255
11542TIP3    H156041   6.689   2.028   0.968 -0.6950  0.2117  1.3764
11542TIP3    H256042   6.732   1.979   1.105  0.7281  0.2939  0.9749
11543TIP3   OH256043   5.685   0.164  12.866  0.0173  0.0433 -0.1431
11543TIP3    H156044   5.679   0.259  12.861  1.7915  0.1227 -1.4043
11543TIP3    H256045   5.649   0.141  12.951 -0.9656  1.7888 -0.0765
11544TIP3   OH256046   1.943   0.063  11.967 -1.1061 -0.7446 -0.1511
11544TIP3    H156047   2.026   0.078  12.011 -1.5485 -0.7968  0.7152
11544TIP3    H256048   1.947   0.117  11.888 -0.1840 -0.8876 -0.2105
11545TIP3   OH256049   2.408   1.528  14.234 -0.3479 -0.0638  0.1389
11545TIP3    H156050   2.316   1.527  14.260 -0.6355  0.5783 -0.8050
11545TIP3    H256051   2.426   1.438  14.206 -0.7181 -0.1663  0.2296
11546TIP3   OH256052   3.809   1.900   3.923 -0.1206 -0.5250 -0.5780
11546TIP3    H156053   3.759   1.969   3.880 -1.6765 -1.0490  0.3492
11546TIP3    H256054   3.806   1.826   3.863 -2.4978 -1.3381  0.4887
11547TIP3   OH256055   0.953   5.629  12.309  0.9914 -0.5990  0.2984
11547TIP3    H156056   0.942   5.564  12.240  0.5833  1.6712 -1.8469
11547TIP3    H256057   0.880   5.689  12.297  1.5182  0.4275  2.0528
11548TIP3   OH256058   2.920   3.838  13.501 -0.2922  0.2288 -0.3109
11548TIP3    H156059   3.012   3.820  13.517 -0.6477 -0.1088  1.4737
11548TIP3    H256060   2.902   3.798  13.416  0.9297 -0.6512 -0.1650
11549TIP3   OH256061   4.824   4.444   0.288  0.0612  0.0433 -0.4769
11549TIP3    H156062   4.856   4.498   0.216  2.3544  0.1881  0.6127
11549TIP3    H256063   4.862   4.358   0.273  1.7025  0.4250  1.2683
11550TIP3   OH256064   3.525   2.401  12.952  0.3670  0.0877  0.4285
11550TIP3    H156065   3.514   2.447  12.868  1.5629 -0.3697  0.0128
11550TIP3    H256066   3.539   2.471  13.016  2.6668  0.3030 -0.2805
11551TIP3   OH256067   0.263   5.126  11.548 -0.6831 -0.0449 -0.5910
11551TIP3    H156068   0.257   5.120  11.644 -0.2481 -1.1067 -0.6189
11551TIP3    H256069   0.235   5.215  11.528 -3.3351 -0.6373  0.3190
11552TIP3   OH256070   2.544   4.605  16.015  0.3943  0.7601  0.3324
11552TIP3    H156071   2.471   4.623  15.956 -1.4712 -1.3687  1.9167
11552TIP3    H256072   2.591   4.688  16.021 -2.3123  2.3780 -0.1386
11553TIP3   OH256073   4.316   3.092   4.661  0.2292  0.0788  0.0171
11553TIP3    H156074   4.353   3.007   4.685  1.5924  0.8349  0.6566
11553TIP3    H256075   4.236   3.099   4.713 -2.2530 -2.6466 -3.2041
11554TIP3   OH256076   2.083   5.243  16.244  0.3419 -0.2651 -0.7277
11554TIP3    H156077   2.038   5.304  16.186 -1.7183 -0.0676  1.0005
11554TIP3    H256078   2.126   5.299  16.308 -1.3882 -0.5697  0.7442
11555TIP3   OH256079   6.350   3.085  15.212  0.1488 -0.1694 -0.1137
11555TIP3    H156080   6.363   3.180  15.211  0.1705 -0.1543 -2.1968
11555TIP3    H256081   6.417   3.052  15.270  1.9450  0.8768 -1.5305
11556TIP3   OH256082   5.508   4.962   3.473 -0.1736 -0.7522 -0.2054
11556TIP3    H156083   5.554   4.898   3.527 -1.1367 -1.7064 -0.4764
11556TIP3    H256084   5.468   5.022   3.535 -0.5990 -1.3661  0.1249
11557TIP3   OH256085   2.652   1.585  12.068 -0.2128  0.3224  0.2663
11557TIP3    H156086   2.670   1.592  12.161 -0.2084 -1.7640  0.4652
11557TIP3    H256087   2.648   1.490  12.052  0.7167  0.6357 -2.0208
11558TIP3   OH256088   1.383   2.983  14.274 -0.0109  0.0213 -0.3839
11558TIP3    H156089   1.408   2.899  14.314  0.7270  0.7777  0.7988
11558TIP3    H256090   1.400   2.972  14.181  0.6491 -0.9507 -0.1535
11559TIP3   OH256091   4.909   1.139  15.194  0.4362  0.0920 -0.4004
11559TIP3    H156092   4.824   1.181  15.187 -0.4583 -1.5088  0.5902
11559TIP3    H256093   4.971   1.206  15.166 -0.7691  2.7568  3.0160
11560TIP3   OH256094   3.798   0.918   3.255 -0.0169 -0.0417 -0.0519
11560TIP3    H156095   3.758   0.882   3.334 -1.5447 -1.0497 -1.2551
11560TIP3    H256096   3.846   0.845   3.217  0.9298  0.5090  0.0875
11561TIP3   OH256097   2.626   3.091  16.329 -0.0143  0.1310  0.2026
11561TIP3    H156098   2.588   3.021  16.382 -0.4149  0.5340  0.4527
11561TIP3    H256099   2.654   3.156  16.393 -0.3536  0.5485 -0.0732
11562TIP3   OH256100   0.553   1.597  15.831  0.2645  0.0537 -0.5932
11562TIP3    H156101   0.604   1.516  15.831  2.6886  1.5218 -0.1749
11562TIP3    H256102   0.462   1.569  15.822  1.0155 -2.7351  0.2415
11563TIP3   OH256103   4.131   2.245  14.820  0.2575 -0.1054  0.0177
11563TIP3    H156104   4.106   2.295  14.898 -0.4266  1.9547 -1.4755
11563TIP3    H256105   4.210   2.288  14.788  0.3231 -0.7049 -0.6449
11564TIP3   OH256106   3.065   4.547  14.086 -0.1201 -0.2839  0.5765
11564TIP3    H156107   3.082   4.491  14.011 -0.5314  0.5075 -0.1165
11564TIP3    H256108   2.985   4.512  14.125 -0.3445 -0.2133  0.1798
11565TIP3   OH256109   3.952   0.608  11.608 -1.0510 -0.2586 -0.0255
11565TIP3    H156110   3.900   0.605  11.688 -1.1478  0.5409 -0.0547
11565TIP3    H256111   3.895   0.572  11.541 -1.3111 -0.0488  0.0829
11566TIP3   OH256112   5.804   2.142  12.433  0.1166 -0.2605 -0.0533
11566TIP3    H156113   5.739   2.074  12.453 -1.0606  0.6622 -0.6320
11566TIP3    H256114   5.851   2.109  12.357 -1.1147 -0.0082 -0.9429
11567TIP3   OH256115   5.585   2.598   4.387 -0.4350  0.0984 -0.3510
11567TIP3    H156116   5.501   2.640   4.406 -0.7818 -0.0326 -1.5716
11567TIP3    H256117   5.564   2.505   4.380 -0.2785  0.1223 -1.1597
11568TIP3   OH256118   2.274   3.567  14.947 -0.6476 -0.1983 -0.0159
11568TIP3    H156119   2.184   3.544  14.925 -0.5601  0.3373 -1.0100
11568TIP3    H256120   2.273   3.584  15.041 -1.4594 -0.7445  0.0782
11569TIP3   OH256121   3.086   0.335  13.536 -0.1345 -0.8062 -0.0215
11569TIP3    H156122   3.045   0.255  13.570  1.0073 -0.4480  2.2623
11569TIP3    H256123   3.173   0.306  13.507 -0.3368 -0.7022 -0.7395
11570TIP3   OH256124   4.002   2.340   2.785  0.1224 -0.5136  0.3069
11570TIP3    H156125   3.949   2.277   2.835  0.7127 -1.1696  0.1167
11570TIP3    H256126   3.944   2.371   2.716 -0.0282 -1.1817  0.1336
11571TIP3   OH256127   5.759   1.503   0.712 -0.2140  0.0076  0.0752
11571TIP3    H156128   5.757   1.411   0.738 -1.0164  0.3299  1.1729
11571TIP3    H256129   5.776   1.551   0.793  0.0564  0.8421 -0.4619
11572TIP3   OH256130   2.934   1.681   6.332 -0.0561 -0.0057  0.0365
11572TIP3    H156131   2.888   1.683   6.248 -0.4883 -0.3468  0.2696
11572TIP3    H256132   3.003   1.616   6.320  0.1423  0.2436 -0.1904
11573TIP3   OH256133   4.353   3.648  13.886 -0.2190 -0.4864 -1.0808
11573TIP3    H156134   4.391   3.676  13.802  1.4539 -0.0293 -0.2026
11573TIP3    H256135   4.416   3.679  13.952 -1.0781 -1.5917  0.2841
11574TIP3   OH256136   5.911   6.350  15.336  0.2693  0.3117  0.2897
11574TIP3    H156137   5.826   6.372  15.298  2.1272  2.2994 -2.9648
11574TIP3    H256138   5.934   6.266  15.296  1.0603  1.1365 -1.0135
11575TIP3   OH256139   4.436   2.745   5.018  0.1039 -0.2704 -0.8803
11575TIP3    H156140   4.350   2.721   5.054  0.7644 -1.1318  0.1242
11575TIP3    H256141   4.471   2.810   5.079 -0.0623  0.5012 -1.5921
11576TIP3   OH256142   5.166   6.152   1.575 -0.1994  0.0966  0.2675
11576TIP3    H156143   5.238   6.211   1.551 -0.3025  0.2958  0.4467
11576TIP3    H256144   5.087   6.201   1.553 -0.2803 -0.1571 -0.0090
11577TIP3   OH256145   4.073   1.311  14.814  0.5481  0.0177  0.2313
11577TIP3    H156146   4.007   1.287  14.880  0.6729 -0.4091  0.2021
11577TIP3    H256147   4.051   1.401  14.790  0.5268  0.1898  0.8923
11578TIP3   OH256148   3.587   3.877  14.631  0.2048  0.2033  0.4378
11578TIP3    H156149   3.576   3.900  14.538  0.8874  0.0422  0.3183
11578TIP3    H256150   3.577   3.960  14.677 -0.9345  0.1596  0.2813
11579TIP3   OH256151   0.717   3.524  17.228  0.2885  0.2577 -0.5812
11579TIP3    H156152   0.807   3.512  17.260 -0.3502 -0.6222  0.9345
11579TIP3    H256153   0.716   3.481  17.142  1.1390 -0.3112 -0.3157
11580TIP3   OH256154   2.077   3.128  14.066 -0.0666 -0.5441 -0.2238
11580TIP3    H156155   2.042   3.113  13.979 -1.8007  1.3425  0.1195
11580TIP3    H256156   2.138   3.201  14.055 -0.7598  0.1093  0.2521
11581TIP3   OH256157   6.770   5.935  14.156 -0.5750 -0.3555  0.4598
11581TIP3    H156158   6.786   5.842  14.144 -0.2305 -0.5287  2.0378
11581TIP3    H256159   6.799   5.976  14.075 -0.2685 -1.5770 -0.0455
11582TIP3   OH256160   5.956   6.120  15.173  0.4060 -0.1717  0.7653
11582TIP3    H156161   5.888   6.054  15.161  0.5198 -0.1049 -0.3021
11582TIP3    H256162   6.038   6.072  15.162  0.4687  0.4493 -1.7263
11583TIP3   OH256163   4.149   4.932   5.928 -0.7947  0.0321 -0.3640
11583TIP3    H156164   4.102   4.998   5.979  0.0844 -0.2130  0.7903
11583TIP3    H256165   4.108   4.849   5.952  1.6746 -0.4565  2.4237
11584TIP3   OH256166   3.677   6.281   2.226 -0.2528  0.4415 -0.3067
11584TIP3    H156167   3.658   6.222   2.298 -3.5504  1.1984 -0.4460
11584TIP3    H256168   3.656   6.368   2.260  2.6410  1.3634 -0.7331
11585TIP3   OH256169   3.164   5.577   0.602 -0.1599  0.6546 -0.9050
11585TIP3    H156170   3.197   5.571   0.692  0.5190 -0.8171 -1.2404
11585TIP3    H256171   3.080   5.532   0.605 -0.2149  0.7516 -0.9760
11586TIP3   OH256172   1.858   3.412  14.477 -0.1875  0.1164  0.2040
11586TIP3    H156173   1.930   3.387  14.536  0.4283  1.4701  0.0514
11586TIP3    H256174   1.817   3.487  14.520 -1.5348 -0.6524  0.2925
11587TIP3   OH256175   6.692   3.469  14.748 -0.1424 -0.5248  0.0348
11587TIP3    H156176   6.767   3.426  14.789  0.3059  0.5867  0.4041
11587TIP3    H256177   6.616   3.436  14.797  0.3121  0.1355  1.2075
11588TIP3   OH256178   4.553   2.450  13.199  0.1947  0.3173  0.6647
11588TIP3    H156179   4.494   2.525  13.204  0.7949  0.8311  0.1291
11588TIP3    H256180   4.510   2.390  13.138 -0.8022 -0.2460  1.9147
11589TIP3   OH256181   1.608   5.454  13.834 -0.2130  0.0788  0.4872
11589TIP3    H156182   1.566   5.398  13.769 -1.5781  0.1856  1.2461
11589TIP3    H256183   1.698   5.463  13.804  0.0435 -2.5509  0.3851
11590TIP3   OH256184   3.689   6.731   4.534 -0.5060  0.1992  0.5523
11590TIP3    H156185   3.781   6.728   4.561  0.1605  2.7194 -1.2782
11590TIP3    H256186   3.688   6.697   4.445 -1.2106  0.9406  0.2667
11591TIP3   OH256187   2.480   1.171  11.744 -0.2388 -0.2067 -0.0647
11591TIP3    H156188   2.548   1.207  11.688 -0.1985  0.7106  0.5702
11591TIP3    H256189   2.399   1.183  11.694 -0.5302  2.7237  0.9950
11592TIP3   OH256190   2.751   0.042   6.621  0.2454 -0.2676 -0.1069
11592TIP3    H156191   2.688   0.113   6.608  1.0604  0.3490 -0.7481
11592TIP3    H256192   2.758   0.001   6.534  0.9973 -0.1086 -0.1161
11593TIP3   OH256193   5.174   2.980   1.985  0.1200  0.2031 -0.0239
11593TIP3    H156194   5.248   2.919   1.993  0.7591  1.0452  0.5401
11593TIP3    H256195   5.213   3.061   1.954 -0.7612  0.2935 -0.9407
11594TIP3   OH256196   1.057   2.606  12.680 -0.0491 -0.0847  0.3468
11594TIP3    H156197   1.013   2.655  12.610  0.3831  0.0947  0.2033
11594TIP3    H256198   1.116   2.547  12.635 -0.7717 -0.9482  0.5114
11595TIP3   OH256199   5.222   3.606  13.033 -0.1773 -0.2652 -0.8429
11595TIP3    H156200   5.168   3.685  13.023 -2.0569 -1.6811 -2.3568
11595TIP3    H256201   5.258   3.613  13.122 -1.0611  1.8195 -0.6108
11596TIP3   OH256202   5.710   2.379   0.067  0.0908 -0.5166  0.1766
11596TIP3    H156203   5.620   2.399   0.093 -0.7760 -1.2288 -2.0814
11596TIP3    H256204   5.722   2.287   0.091 -0.3081 -0.8357 -0.7923
11597TIP3   OH256205   0.583   3.514   5.701 -0.6207 -0.1011  0.2316
11597TIP3    H156206   0.550   3.572   5.770  1.7029  0.7597  0.6543
11597TIP3    H256207   0.513   3.512   5.636 -2.6408 -0.4993  2.3463
11598TIP3   OH256208   4.971   3.186   0.208  0.2545  0.4343  0.5486
11598TIP3    H156209   4.925   3.221   0.285  0.2534  1.1987  0.1992
11598TIP3    H256210   4.928   3.228   0.134  0.7551  0.2636  0.1623
11599TIP3   OH256211   2.618   1.034   3.590 -0.0984 -0.0075  0.3376
11599TIP3    H156212   2.700   1.025   3.639  0.5758 -0.2518 -0.8179
11599TIP3    H256213   2.644   1.033   3.498 -1.3616  0.3210 -0.0426
11600TIP3   OH256214   1.932   2.473  16.796 -0.0730 -0.2379 -0.4710
11600TIP3    H156215   1.973   2.475  16.883  0.2596 -0.0736 -0.6316
11600TIP3    H256216   1.854   2.418  16.808  1.8575 -3.1587 -0.8837
11601TIP3   OH256217   2.721   1.421  11.190 -0.3445 -0.5454  0.0353
11601TIP3    H156218   2.722   1.389  11.099  0.5213 -0.1495 -0.1017
11601TIP3    H256219   2.809   1.402  11.222 -0.5134 -0.2742  0.6522
11602TIP3   OH256220   3.209   1.027  14.314  0.4044 -0.0254 -0.5248
11602TIP3    H156221   3.292   1.032  14.363  0.1487 -1.5067  0.0722
11602TIP3    H256222   3.208   0.940  14.276 -0.5884  0.2228 -1.0841
11603TIP3   OH256223   4.107   3.681  10.950  0.6126  0.1037 -0.3526
11603TIP3    H156224   4.013   3.665  10.959  0.8512 -1.4952 -0.4811
11603TIP3    H256225   4.124   3.758  11.004 -0.7997  0.5076 -0.4798
11604TIP3   OH256226   6.458   6.620  16.868 -0.4572 -0.2312  0.1797
11604TIP3    H156227   6.509   6.577  16.800 -0.1865  0.4250 -0.0378
11604TIP3    H256228   6.378   6.568  16.875 -0.7189  0.0027 -1.0124
11605TIP3   OH256229   4.441   3.889   2.311  0.6443 -0.4174 -0.2307
11605TIP3    H156230   4.373   3.822   2.320  0.0219  0.2373 -0.0106
11605TIP3    H256231   4.436   3.939   2.392 -0.2501  1.1388 -1.2214
11606TIP3   OH256232   6.481   2.804  14.198 -0.1681  0.0247  0.3042
11606TIP3    H156233   6.457   2.716  14.224 -0.9685  0.3811  0.7888
11606TIP3    H256234   6.435   2.818  14.115 -1.1033  0.4588  0.8889
11607TIP3   OH256235   6.424   2.283  15.050 -0.2604  0.0826 -0.3664
11607TIP3    H156236   6.356   2.337  15.088 -1.9452 -0.6712 -2.2008
11607TIP3    H256237   6.420   2.302  14.956  1.1059 -1.0177 -0.6687
11608TIP3   OH256238   4.898   0.257  14.904  0.1948 -0.5657 -0.0139
11608TIP3    H156239   4.818   0.265  14.852 -0.0968 -1.1575  0.3449
11608TIP3    H256240   4.878   0.301  14.986 -0.2644 -1.9825  0.6476
11609TIP3   OH256241   4.697   1.447  14.529 -0.4542 -0.3782 -0.1174
11609TIP3    H156242   4.789   1.461  14.503 -0.3967  0.8630  0.7169
11609TIP3    H256243   4.703   1.412  14.618 -0.8123 -0.0624  0.0264
11610TIP3   OH256244   5.465   6.701  11.282  0.3979 -0.4206  0.2551
11610TIP3    H156245   5.419   6.716  11.200  0.0459 -0.4687  0.4439
11610TIP3    H256246   5.558   6.700  11.258  0.3573  0.7369  0.0395
11611TIP3   OH256247   4.862   3.504   4.625  0.1552  0.4071  0.2596
11611TIP3    H156248   4.857   3.459   4.540 -1.0448  1.6828 -0.3562
11611TIP3    H256249   4.926   3.453   4.675 -0.1165 -1.1502 -0.9310
11612TIP3   OH256250   5.641   3.505  11.541  0.2058  0.0225  0.3715
11612TIP3    H156251   5.556   3.467  11.562 -1.3465  3.4680  0.7037
11612TIP3    H256252   5.649   3.497  11.446  0.0311 -1.3531  0.4732
11613TIP3   OH256253   2.887   1.071  11.139  0.3578  1.3099 -1.0077
11613TIP3    H156254   2.828   0.999  11.117  2.6142 -0.8547 -0.1982
11613TIP3    H256255   2.855   1.145  11.088 -0.9149 -0.7438 -3.2643
11614TIP3   OH256256   3.080   3.076   0.096  0.4189 -0.0295 -0.5963
11614TIP3    H156257   3.067   3.130   0.173  2.4740 -0.1425 -0.1214
11614TIP3    H256258   2.992   3.060   0.062 -0.2399  3.7312 -0.8781
11615TIP3   OH256259   6.460   1.652  14.212 -0.1644  0.0056  0.1850
11615TIP3    H156260   6.424   1.693  14.291 -0.5998  0.4669 -0.2469
11615TIP3    H256261   6.511   1.722  14.170 -0.5410 -0.0193 -0.3211
11616TIP3   OH256262   3.122   4.710   4.667 -0.0447  0.0426  0.3366
11616TIP3    H156263   3.097   4.797   4.635  0.6064  0.2141  0.2997
11616TIP3    H256264   3.126   4.656   4.588 -2.4780 -0.5348  0.5633
11617TIP3   OH256265   0.026   4.401  12.370  0.0089  0.0742 -0.0761
11617TIP3    H156266   0.046   4.316  12.331 -0.7950 -0.3331  0.3985
11617TIP3    H256267   0.097   4.458  12.340 -0.2747 -0.3760 -1.6451
11618TIP3   OH256268   5.139   4.721  15.741  0.4691 -0.0347  0.7490
11618TIP3    H156269   5.198   4.774  15.795 -0.6489  1.2480  0.7254
11618TIP3    H256270   5.096   4.784  15.684 -0.2283 -1.0907  0.1055
11619TIP3   OH256271   6.624   3.017   1.593  0.1781  0.1599  0.6605
11619TIP3    H156272   6.568   2.946   1.561 -0.7486  1.1453  0.0394
11619TIP3    H256273   6.662   3.054   1.513  0.7125  0.3180  0.9886
11620TIP3   OH256274   6.539   4.735   4.461 -0.0622  0.8166  0.4504
11620TIP3    H156275   6.615   4.737   4.520 -1.8893 -0.9750  2.9906
11620TIP3    H256276   6.474   4.790   4.504 -1.2644 -0.1688 -0.0740
11621TIP3   OH256277   5.287   0.487  16.629  0.2197 -0.0001  0.4117
11621TIP3    H156278   5.195   0.495  16.603  0.2799 -0.7459 -0.0657
11621TIP3    H256279   5.307   0.569  16.674  0.2677  1.6117 -2.4404
11622TIP3   OH256280   2.664   3.357  15.136 -0.4044  0.8628  0.3890
11622TIP3    H156281   2.601   3.372  15.206 -0.4980  1.1201  0.2522
11622TIP3    H256282   2.611   3.351  15.056 -0.2102  1.8421  0.1668
11623TIP3   OH256283   2.743   4.545   2.465  0.7707 -0.2123  0.2556
11623TIP3    H156284   2.833   4.550   2.434 -0.5062  0.2890 -3.7076
11623TIP3    H256285   2.700   4.620   2.425 -1.4358 -0.4788  2.0308
11624TIP3   OH256286   1.413   0.608  11.298  0.3680 -0.8956 -0.1683
11624TIP3    H156287   1.367   0.584  11.218 -1.7324 -1.0419  1.0441
11624TIP3    H256288   1.438   0.700  11.284 -5.1273  0.9903  1.2326
11625TIP3   OH256289   2.016   3.215   1.789  0.2225  0.3796  0.0031
11625TIP3    H156290   2.034   3.282   1.854 -1.3760  1.6276 -0.8072
11625TIP3    H256291   2.024   3.259   1.704  1.0254 -0.9110 -0.6226
11626TIP3   OH256292   0.183   4.677   0.859 -0.3109 -0.5184 -0.0826
11626TIP3    H156293   0.228   4.596   0.834 -1.7582 -0.9964 -1.1774
11626TIP3    H256294   0.234   4.747   0.817 -0.1207 -1.0021 -0.6621
11627TIP3   OH256295   5.121   0.165   1.098  0.3497  0.1694  0.7393
11627TIP3    H156296   5.203   0.206   1.126 -0.6601  1.6770  1.5811
11627TIP3    H256297   5.119   0.179   1.004  1.1345 -0.0044  0.6909
11628TIP3   OH256298   4.808   3.057  13.019  0.1933 -0.1177  0.8634
11628TIP3    H156299   4.729   3.071  12.969 -1.0638  0.9414  3.0517
11628TIP3    H256300   4.841   2.972  12.990 -0.5094  0.4443 -1.6450
11629TIP3   OH256301   1.968   6.380   3.717 -0.4320 -0.2968 -0.1364
11629TIP3    H156302   2.023   6.438   3.665 -0.8570 -1.3651 -1.8042
11629TIP3    H256303   1.964   6.422   3.803  0.5864  1.2924 -0.8429
11630TIP3   OH256304   1.497   2.099  11.759 -0.2771 -0.5432  0.3722
11630TIP3    H156305   1.562   2.157  11.718  1.1554 -1.7392  0.9276
11630TIP3    H256306   1.478   2.140  11.843 -0.6883  0.1123 -0.0328
11631TIP3   OH256307   0.472   5.774  14.454 -0.2592  0.0654 -0.0004
11631TIP3    H156308   0.507   5.842  14.512 -0.6487  3.5966 -3.6697
11631TIP3    H256309   0.378   5.793  14.449 -0.5968 -1.5892  0.0246
11632TIP3   OH256310   1.338   6.784  16.531  0.1775 -0.1414 -0.7606
11632TIP3    H156311   1.290   6.775  16.614 -0.2517  1.1977 -0.8568
11632TIP3    H256312   1.277   6.753  16.464  0.3655 -0.7988 -0.6406
11633TIP3   OH256313   5.459   5.801   2.067  0.4170  0.4080 -0.0434
11633TIP3    H156314   5.442   5.709   2.089 -0.9190  0.5285 -0.4854
11633TIP3    H256315   5.378   5.830   2.025 -0.2261  2.6050  2.5938
11634TIP3   OH256316   4.554   2.021   5.882 -0.5169  0.0798 -0.2364
11634TIP3    H156317   4.491   1.955   5.853  1.4188 -1.0645 -1.9270
11634TIP3    H256318   4.633   1.971   5.903  0.0184  1.5553  1.3228
11635TIP3   OH256319   5.951   2.912  11.014  0.1967  0.6142  0.5179
11635TIP3    H156320   6.041   2.896  11.041  0.3031  0.8015  0.2746
11635TIP3    H256321   5.902   2.920  11.096  0.1174 -1.0753  0.6516
11636TIP3   OH256322   0.867   0.636   3.080  0.2953 -0.3522  0.5638
11636TIP3    H156323   0.834   0.563   3.133 -0.2849 -0.2078  0.3995
11636TIP3    H256324   0.947   0.663   3.125  0.8088 -1.4361  0.3257
11637TIP3   OH256325   4.304   2.003   3.426 -0.5463  0.4388 -0.3294
11637TIP3    H156326   4.233   1.963   3.375 -1.7253  0.5693  1.1825
11637TIP3    H256327   4.353   1.929   3.461  1.2461  0.3218 -2.8952
11638TIP3   OH256328   3.621   0.891  11.849  0.0402 -0.1152  0.1967
11638TIP3    H156329   3.668   0.935  11.920  0.3546 -1.2759  0.7318
11638TIP3    H256330   3.542   0.856  11.890 -0.0772 -0.2726 -0.1583
11639TIP3   OH256331   1.754   3.833   1.951  0.7912 -0.1143 -0.0772
11639TIP3    H156332   1.834   3.868   1.990  0.2852  0.7317  0.2133
11639TIP3    H256333   1.719   3.906   1.899  0.8897 -0.8879 -1.2611
11640TIP3   OH256334   2.117   6.667  14.373 -0.3803 -0.0811  0.3624
11640TIP3    H156335   2.209   6.684  14.353 -0.6809 -0.3063 -1.3556
11640TIP3    H256336   2.118   6.609  14.448  1.0148 -3.3264 -2.0493
11641TIP3   OH256337   0.776   0.438  15.640  0.2656  0.3051 -0.1022
11641TIP3    H156338   0.825   0.406  15.564  1.4080  2.0637 -0.1323
11641TIP3    H256339   0.738   0.359  15.679  0.4233 -0.7261 -1.9580
11642TIP3   OH256340   6.184   0.443  12.110 -0.0156 -0.5635 -0.2976
11642TIP3    H156341   6.125   0.371  12.088 -0.7794 -0.0462  0.0159
11642TIP3    H256342   6.159   0.513  12.050  0.7625 -0.5762 -0.6366
11643TIP3   OH256343   1.449   2.778   1.135 -0.3697  0.0567  0.4084
11643TIP3    H156344   1.495   2.717   1.193 -0.6322 -1.3460 -0.8404
11643TIP3    H256345   1.382   2.725   1.092  0.7312  0.7084 -2.2360
11644TIP3   OH256346   6.111   2.948  17.230  0.2962  0.5072  0.1927
11644TIP3    H156347   6.149   3.025  17.189  1.1256 -1.0501 -2.0842
11644TIP3    H256348   6.185   2.888  17.242 -0.8251 -1.2136 -1.1246
11645TIP3   OH256349   5.419   6.501   3.071  0.4542  0.1612 -0.4688
11645TIP3    H156350   5.504   6.522   3.110  0.2437  1.2886 -0.6064
11645TIP3    H256351   5.420   6.544   2.985 -0.8614  1.5512  0.1728
11646TIP3   OH256352   0.268   1.744   4.214  0.1836 -0.4594  0.7249
11646TIP3    H156353   0.312   1.685   4.275 -0.8584 -2.1378 -0.1101
11646TIP3    H256354   0.179   1.710   4.207 -0.3736  1.0898  0.0569
11647TIP3   OH256355   1.747   5.926  11.515 -0.0722 -0.6352  0.5279
11647TIP3    H156356   1.817   5.866  11.541 -0.7123 -2.1687 -1.1510
11647TIP3    H256357   1.673   5.900  11.570  0.0967 -0.3546  0.8880
11648TIP3   OH256358   2.853   5.391  14.361 -0.3141 -0.4762  0.0092
11648TIP3    H156359   2.932   5.387  14.308 -0.4998 -0.8159 -0.2362
11648TIP3    H256360   2.786   5.427  14.303 -0.9747 -2.5381 -0.5334
11649TIP3   OH256361   2.411   0.561   3.975  0.1757  0.1647 -0.1655
11649TIP3    H156362   2.491   0.597   3.937  0.3310  1.1880  1.0806
11649TIP3    H256363   2.399   0.477   3.931  0.4681  1.1910 -2.2905
11650TIP3   OH256364   3.324   1.103   3.269 -0.1236 -0.2628  0.3905
11650TIP3    H156365   3.243   1.135   3.230  0.4705 -0.3300 -0.9237
11650TIP3    H256366   3.309   1.009   3.281  0.2205 -0.5145 -1.0544
11651TIP3   OH256367   2.571   1.055   5.126 -0.0422  0.4901 -0.1913
11651TIP3    H156368   2.647   1.049   5.184 -1.8350 -2.2918  2.0264
11651TIP3    H256369   2.502   1.095   5.180 -1.7157 -2.0590 -0.3559
11652TIP3   OH256370   4.667   1.608  13.812  0.0000  0.3086 -0.3067
11652TIP3    H156371   4.726   1.542  13.847 -1.1020 -0.1562  0.7026
11652TIP3    H256372   4.614   1.562  13.747 -0.2417  0.3874 -0.1660
11653TIP3   OH256373   0.939   1.301  11.094 -0.3944 -0.1147  0.0680
11653TIP3    H156374   0.870   1.328  11.154 -1.3678 -0.4446 -0.8796
11653TIP3    H256375   1.019   1.340  11.130 -1.3795  1.9829  0.0603
11654TIP3   OH256376   4.817   2.780   2.281  0.2196  0.2471 -0.1491
11654TIP3    H156377   4.859   2.864   2.261  0.4387 -0.0569 -1.0070
11654TIP3    H256378   4.730   2.787   2.241  0.3948 -0.0912 -0.5963
11655TIP3   OH256379   5.721   2.634   1.096 -0.1358  0.0983 -0.0282
11655TIP3    H156380   5.643   2.685   1.120 -0.0262 -1.0430  2.9330
11655TIP3    H256381   5.687   2.546   1.077  0.0512  0.4469 -2.0537
11656TIP3   OH256382   1.229   3.908   3.079  0.4008  0.5551  0.0494
11656TIP3    H156383   1.259   3.860   3.002  0.9464 -2.6583  2.1505
11656TIP3    H256384   1.308   3.948   3.115  0.1941  1.8094 -0.8702
11657TIP3   OH256385   6.152   5.366  11.078  0.5506  0.4446 -0.0960
11657TIP3    H156386   6.137   5.428  11.007 -1.6690  0.1129  0.0562
11657TIP3    H256387   6.146   5.280  11.037 -1.6062  0.2275  0.6049
11658TIP3   OH256388   4.107   4.743   2.852 -0.1006  0.3292  0.6175
11658TIP3    H156389   4.183   4.796   2.828  0.3815 -0.3089  0.7139
11658TIP3    H256390   4.039   4.806   2.872 -0.0546  0.8844 -0.9649
11659TIP3   OH256391   1.556   5.608  14.659 -0.8583  0.3858  0.3932
11659TIP3    H156392   1.541   5.514  14.660 -0.9450  0.4085  1.5227
11659TIP3    H256393   1.569   5.629  14.567  1.1687 -1.0584  0.3210
11660TIP3   OH256394   6.519   2.910  11.202 -0.3349 -0.2600  0.1994
11660TIP3    H156395   6.504   3.004  11.189 -0.2290 -0.3219 -0.3449
11660TIP3    H256396   6.590   2.888  11.142 -0.8936 -0.8568 -0.2489
11661TIP3   OH256397   0.984   4.279  11.433 -0.0723 -0.2029 -0.0641
11661TIP3    H156398   1.055   4.341  11.415 -0.4858 -0.1872 -1.7120
11661TIP3    H256399   1.025   4.193  11.422  0.1163 -0.2125  0.6958
11662TIP3   OH256400   0.713   4.852  14.606 -0.1806 -0.0690 -0.0922
11662TIP3    H156401   0.707   4.918  14.536 -0.0272  1.2386  1.1152
11662TIP3    H256402   0.638   4.795  14.591 -1.9522  2.0454  0.5389
11663TIP3   OH256403   2.434   1.456  14.801 -0.1756  0.5605 -0.5144
11663TIP3    H156404   2.516   1.475  14.755  1.8974 -2.0539  1.8873
11663TIP3    H256405   2.408   1.370  14.768  0.8452 -0.9260  2.3378
11664TIP3   OH256406   4.603   6.184  17.065 -0.5593 -0.8989 -0.0877
11664TIP3    H156407   4.631   6.095  17.046  0.3777 -0.4235 -0.9873
11664TIP3    H256408   4.562   6.214  16.984  1.1995  0.2664 -0.5839
11665TIP3   OH256409   0.873   1.381  16.222 -0.3806 -0.6140  0.6731
11665TIP3    H156410   0.968   1.373  16.210 -0.2599 -0.6067  1.6334
11665TIP3    H256411   0.837   1.367  16.134  0.5843  0.6970  0.0387
11666TIP3   OH256412   4.965   4.770  15.032 -0.0190  0.6589 -0.1430
11666TIP3    H156413   4.993   4.849  14.986  0.6367  0.3752 -0.2402
11666TIP3    H256414   4.947   4.707  14.962  1.9973 -0.1110 -0.0038
11667TIP3   OH256415   5.006   5.578  11.994 -0.5507  0.0604 -0.1283
11667TIP3    H156416   5.022   5.507  11.932  0.8111 -2.3667  2.8905
11667TIP3    H256417   4.994   5.655  11.939 -1.3119 -2.3234 -3.4801
11668TIP3   OH256418   1.510   4.420  12.883 -0.1858  0.0578 -0.4202
11668TIP3    H156419   1.497   4.347  12.823 -0.2793 -2.3561  2.4453
11668TIP3    H256420   1.603   4.441  12.874  0.6979 -2.8282  1.2969
11669TIP3   OH256421   6.008   5.178   0.980  0.4386 -0.3555 -0.0806
11669TIP3    H156422   6.008   5.106   0.918 -1.2408 -0.7177  0.3262
11669TIP3    H256423   5.968   5.251   0.933  0.3376 -0.2537  0.1600
11670TIP3   OH256424   6.568   5.380   2.737 -0.6120 -0.3670 -0.1890
11670TIP3    H156425   6.591   5.401   2.827 -2.3060  1.9215 -0.2499
11670TIP3    H256426   6.617   5.444   2.684  0.1623 -1.5226 -0.8931
11671TIP3   OH256427   6.542   0.418  14.111 -0.0256  0.6466 -0.7259
11671TIP3    H156428   6.582   0.461  14.187  1.6630  0.7609 -1.6526
11671TIP3    H256429   6.455   0.391  14.142 -0.0785  2.3197  0.6912
11672TIP3   OH256430   0.383   3.161   2.983  0.4453  0.4514  0.1681
11672TIP3    H156431   0.416   3.120   3.063 -0.1050  1.1192  0.7446
11672TIP3    H256432   0.289   3.143   2.985  0.4442  0.4057 -0.3657
11673TIP3   OH256433   2.677   3.244   4.463  0.1159  0.3999 -0.1793
11673TIP3    H156434   2.689   3.305   4.535  1.6736 -0.3094  0.1849
11673TIP3    H256435   2.726   3.282   4.390  0.3818  0.0198 -0.2021
11674TIP3   OH256436   2.115   4.424  15.216  0.5906 -0.0340  0.1998
11674TIP3    H156437   2.141   4.347  15.166 -1.0505  0.1010 -0.8785
11674TIP3    H256438   2.101   4.493  15.150  0.9165  0.8652  1.0494
11675TIP3   OH256439   6.111   2.958  11.370  0.0861  0.1047 -0.2603
11675TIP3    H156440   6.023   2.937  11.339  0.7631 -1.7397 -1.0048
11675TIP3    H256441   6.162   2.878  11.354  2.3525  1.7538 -1.5962
11676TIP3   OH256442   3.719   3.442   5.617  0.3101  0.3344  0.2574
11676TIP3    H156443   3.727   3.531   5.583  2.1253 -0.1770 -0.7337
11676TIP3    H256444   3.744   3.449   5.709 -0.8719  1.0708  0.5298
11677TIP3   OH256445   2.491   3.468  13.324 -0.2089  0.0805  0.4126
11677TIP3    H156446   2.470   3.377  13.345  0.3052  0.2103  1.5116
11677TIP3    H256447   2.407   3.513  13.322 -0.6049 -0.6813 -1.4753
11678TIP3   OH256448   1.089   2.260  11.833  0.1889  0.0440  0.5015
11678TIP3    H156449   1.096   2.281  11.926  1.2888  0.9653  0.2205
11678TIP3    H256450   1.069   2.166  11.832  1.1888 -0.2037  1.6486
11679TIP3   OH256451   4.302   0.960   2.099 -0.0556 -0.3655 -0.3764
11679TIP3    H156452   4.212   0.992   2.092 -0.3520 -0.7295  1.5679
11679TIP3    H256453   4.293   0.867   2.118  0.7686 -0.8013 -2.0615
11680TIP3   OH256454   1.551   5.104  16.538  0.1037  0.1161 -0.0548
11680TIP3    H156455   1.504   5.185  16.562 -2.2696 -1.6619  1.5348
11680TIP3    H256456   1.631   5.107  16.590 -0.4039  1.0146  0.7123
11681TIP3   OH256457   2.658   2.162  12.309  0.4467  0.1063  0.0292
11681TIP3    H156458   2.591   2.225  12.336  0.5327  0.9528 -1.7116
11681TIP3    H256459   2.615   2.077  12.314 -0.6722  0.6202 -0.7651
11682TIP3   OH256460   5.368   5.359  16.265 -0.1865  0.0762 -0.5178
11682TIP3    H156461   5.434   5.298  16.233  0.0000  0.2147 -0.4081
11682TIP3    H256462   5.376   5.435  16.207 -1.9232 -0.8662 -2.0448
11683TIP3   OH256463   0.062   4.096  13.371  0.0765  0.0481  0.2056
11683TIP3    H156464   0.002   4.170  13.376 -0.6581 -0.5671  0.5137
11683TIP3    H256465   0.018   4.032  13.315  1.1542  0.2458 -0.8963
11684TIP3   OH256466   6.279   0.027  14.456 -0.6573  0.2700 -0.2111
11684TIP3    H156467   6.354   0.086  14.463 -1.3495  1.1290  0.0047
11684TIP3    H256468   6.263   0.020  14.362 -0.3863  0.1824 -0.2518
11685TIP3   OH256469   4.796   4.782  15.335  0.0520 -0.2329  0.0541
11685TIP3    H156470   4.880   4.819  15.363  0.8006 -1.3256 -0.6804
11685TIP3    H256471   4.821   4.709  15.278 -1.4080 -0.6172 -0.0942
11686TIP3   OH256472   4.550   3.986   0.385  0.0218  0.4575  0.3010
11686TIP3    H156473   4.633   3.971   0.340 -0.3087  0.2191 -0.2305
11686TIP3    H256474   4.483   3.965   0.320 -0.4838 -2.0683  1.5940
11687TIP3   OH256475   5.840   4.861   5.453 -0.0696 -0.2245  0.8476
11687TIP3    H156476   5.844   4.871   5.549  1.2029  0.2659  0.7487
11687TIP3    H256477   5.914   4.804   5.432 -0.1528 -0.0543  0.1050
11688TIP3   OH256478   2.980   3.507  12.235 -0.5080 -0.5206 -0.5759
11688TIP3    H156479   3.042   3.468  12.174  0.5034 -1.0616  0.7581
11688TIP3    H256480   3.036   3.546  12.303 -1.6240 -1.0650  0.6654
11689TIP3   OH256481   6.624   1.461   0.037  0.1578 -0.2308 -0.4764
11689TIP3    H156482   6.548   1.430   0.085 -0.8503  0.9067 -1.3053
11689TIP3    H256483   6.593   1.473  -0.053  1.0526  1.1883 -0.6163
11690TIP3   OH256484   4.419   6.687  16.905 -0.5640 -0.1399  0.4079
11690TIP3    H156485   4.366   6.753  16.948 -0.7317 -0.6267  0.9651
11690TIP3    H256486   4.417   6.612  16.965  1.5367  0.1688  0.9075
11691TIP3   OH256487   0.547   3.945   0.776 -0.4301  1.0982  0.4426
11691TIP3    H156488   0.609   3.993   0.721  0.8208  0.9860  1.7335
11691TIP3    H256489   0.586   3.858   0.787 -1.7833  0.3667 -0.3497
11692TIP3   OH256490   0.773   1.921  16.137  0.4072 -0.0934 -0.1296
11692TIP3    H156491   0.707   1.990  16.149 -0.0549 -0.4556 -0.5533
11692TIP3    H256492   0.743   1.872  16.061  0.7662 -0.7253  0.1278
11693TIP3   OH256493   5.318   0.334   0.393  0.4569 -0.2798  0.0211
11693TIP3    H156494   5.323   0.285   0.311  0.8368 -1.2825  0.6357
11693TIP3    H256495   5.225   0.358   0.401  0.1274 -1.5494  0.0797
11694TIP3   OH256496   0.658   6.289   2.711 -0.4747 -0.0684 -0.1412
11694TIP3    H156497   0.692   6.291   2.800  0.0477  0.8627 -0.3635
11694TIP3    H256498   0.733   6.310   2.655 -0.1404 -3.2647 -1.0141
11695TIP3   OH256499   5.440   2.204   1.866 -0.2920  0.3598 -0.8299
11695TIP3    H156500   5.396   2.119   1.856  0.5458 -0.0464 -1.0505
11695TIP3    H256501   5.400   2.259   1.799 -1.3331  0.3447 -0.2309
11696TIP3   OH256502   3.521   3.485   6.636 -0.1495  0.3089 -0.1595
11696TIP3    H156503   3.545   3.396   6.610  0.6357  0.9604 -1.7573
11696TIP3    H256504   3.560   3.540   6.569 -2.5151  1.7109 -0.4350
11697TIP3   OH256505   2.716   4.961   3.205 -0.3979  0.5437  0.0419
11697TIP3    H156506   2.799   4.916   3.189 -0.8118 -0.1098 -0.3124
11697TIP3    H256507   2.707   5.023   3.133  1.6191  3.3779  2.1290
11698TIP3   OH256508   5.583   0.018  16.110  0.2798 -0.4145  0.0556
11698TIP3    H156509   5.668  -0.025  16.103  0.8792  0.3654  2.1255
11698TIP3    H256510   5.604   0.109  16.133 -1.0845  0.0214 -0.3952
11699TIP3   OH256511   0.299   5.413   5.424 -0.1787  0.6700  0.0201
11699TIP3    H156512   0.381   5.387   5.466 -0.9094  0.2432  1.1982
11699TIP3    H256513   0.233   5.402   5.492 -1.3085  0.3910 -1.1110
11700TIP3   OH256514   5.592   4.579   2.394 -0.2516 -0.2053 -0.2279
11700TIP3    H156515   5.503   4.544   2.400  0.2381 -1.5123 -0.2132
11700TIP3    H256516   5.608   4.618   2.479  0.1698 -2.4727  0.7817
11701TIP3   OH256517   5.726   5.301   3.061 -0.3017  0.5797  0.0419
11701TIP3    H156518   5.654   5.329   3.004  1.0678  2.1885 -0.9583
11701TIP3    H256519   5.725   5.363   3.134 -0.0237  0.5080  0.1074
11702TIP3   OH256520   6.034   0.525   2.854  0.4175 -0.3225 -0.1617
11702TIP3    H156521   6.033   0.612   2.893  3.2363 -0.9864  1.5285
11702TIP3    H256522   6.068   0.538   2.765 -0.3644  0.4394 -0.3503
11703TIP3   OH256523   2.833   4.419  14.045  0.2016 -0.4039 -0.8490
11703TIP3    H156524   2.856   4.338  14.092  1.7974 -0.1755 -1.2073
11703TIP3    H256525   2.833   4.394  13.953 -1.2025 -0.4377 -0.8457
11704TIP3   OH256526   5.544   3.047  11.021 -0.4921  0.5765  0.1250
11704TIP3    H156527   5.451   3.046  11.043 -0.8015 -0.3181 -1.1692
11704TIP3    H256528   5.588   3.035  11.106 -1.6031 -0.5495  0.5682
11705TIP3   OH256529   3.888   0.971  13.173 -0.2427  0.7867  0.1712
11705TIP3    H156530   3.903   1.001  13.083 -0.3627 -0.0429 -0.1321
11705TIP3    H256531   3.796   0.948  13.175 -0.1815  0.5624  0.4325
11706TIP3   OH256532   4.331   4.762   1.641  0.3209  0.4322  0.1979
11706TIP3    H156533   4.310   4.788   1.730 -0.7423 -0.9921  0.3833
11706TIP3    H256534   4.252   4.716   1.610 -0.1218  2.6553 -2.1872
11707TIP3   OH256535   6.680   4.719  11.153  0.5079 -0.1721 -0.1977
11707TIP3    H156536   6.747   4.752  11.094  0.2371 -1.8509 -1.4615
11707TIP3    H256537   6.713   4.634  11.182  0.0106  0.0372  1.0120
11708TIP3   OH256538   5.394   2.828  11.507  0.0947  0.2131 -0.2239
11708TIP3    H156539   5.341   2.874  11.572  0.2371  3.5162 -2.3321
11708TIP3    H256540   5.346   2.839  11.425  0.7728 -2.4419 -1.0294
11709TIP3   OH256541   6.413   3.256   4.401  0.2569  0.2253 -0.1004
11709TIP3    H156542   6.496   3.264   4.448  0.2242 -0.8338  0.1587
11709TIP3    H256543   6.422   3.176   4.350  0.0477  1.0382 -1.4282
11710TIP3   OH256544   5.917   5.146   1.790  0.0687  0.7414 -0.2026
11710TIP3    H156545   5.913   5.157   1.695 -0.2435  0.8689 -0.1731
11710TIP3    H256546   5.855   5.210   1.825  0.8538  1.3392  0.1329
11711TIP3   OH256547   1.743   1.543  16.215 -0.6935 -0.2408  0.2146
11711TIP3    H156548   1.806   1.492  16.164 -0.2394 -1.4116  1.9016
11711TIP3    H256549   1.702   1.479  16.274  0.0317  1.3442  2.5177
11712TIP3   OH256550   2.474   6.135   1.901  0.1863  0.5200  0.1757
11712TIP3    H156551   2.399   6.128   1.843  0.0874  1.6627  0.1668
11712TIP3    H256552   2.438   6.168   1.983  0.1722 -1.9026  1.2110
11713TIP3   OH256553   4.295   3.682   0.093 -0.0241 -0.6515  0.3069
11713TIP3    H156554   4.319   3.721   0.009 -1.7031 -0.4486 -0.1073
11713TIP3    H256555   4.283   3.589   0.074 -1.5206 -0.4224  0.0483
11714TIP3   OH256556   5.738   5.632   2.324  0.9534  0.2619  0.1006
11714TIP3    H156557   5.683   5.568   2.280 -0.0993  1.6372 -0.6604
11714TIP3    H256558   5.813   5.583   2.357  0.2801 -1.2859 -0.6601
11715TIP3   OH256559   6.735   3.040   6.312 -0.1855 -0.8582 -0.9081
11715TIP3    H156560   6.780   2.970   6.359  0.0236 -1.8526 -2.5872
11715TIP3    H256561   6.790   3.117   6.326  0.5983 -1.4541 -0.6845
11716TIP3   OH256562   1.711   3.222  12.925 -0.6166  0.6724  0.4934
11716TIP3    H156563   1.806   3.230  12.930 -0.6311  0.7064  0.7384
11716TIP3    H256564   1.688   3.256  12.838 -0.5077  1.6810  0.8534
11717TIP3   OH256565   4.010   3.504  14.097 -0.1554  0.2242  0.5559
11717TIP3    H156566   4.078   3.558  14.057 -0.7747 -0.4525 -1.4584
11717TIP3    H256567   3.975   3.451  14.025 -3.5887  1.3493  1.2981
11718TIP3   OH256568   6.476   1.706   3.044  0.5221  0.6708  0.2158
11718TIP3    H156569   6.558   1.721   3.091  0.4608  1.2308  0.1380
11718TIP3    H256570   6.453   1.791   3.007 -0.3199  0.6163  0.6022
11719TIP3   OH256571   5.116   2.043   1.311  0.0368  0.1141  0.1303
11719TIP3    H156572   5.131   1.990   1.232 -0.1849 -0.1702  0.2779
11719TIP3    H256573   5.021   2.054   1.314  0.3094  3.5316 -1.8611
11720TIP3   OH256574   1.629   4.677  12.159  0.5652 -0.2305  0.3022
11720TIP3    H156575   1.600   4.731  12.232 -1.4114 -0.9060  0.0429
11720TIP3    H256576   1.705   4.629  12.193  1.0769  1.1671  1.1705
11721TIP3   OH256577   3.019   5.373   2.417 -0.0702  0.2277  0.3450
11721TIP3    H156578   2.945   5.343   2.363 -0.6748  0.1814  1.1875
11721TIP3    H256579   3.075   5.420   2.356 -0.6625  0.0324 -0.3648
11722TIP3   OH256580   6.036   4.895  14.193  0.3230  0.6023 -0.1034
11722TIP3    H156581   6.038   4.844  14.274 -1.2777  1.4855  0.4993
11722TIP3    H256582   6.098   4.967  14.208 -0.5764  1.2286  0.6589
11723TIP3   OH256583   0.807   2.758   3.417 -0.4289 -0.2785 -0.6787
11723TIP3    H156584   0.806   2.837   3.470 -1.9053  0.8454 -2.3128
11723TIP3    H256585   0.741   2.701   3.455  0.9457 -0.9362  0.7708
11724TIP3   OH256586   6.744   4.376  11.699 -0.2365 -0.5346 -0.5416
11724TIP3    H156587   6.761   4.325  11.778 -0.2544 -0.6176 -0.5909
11724TIP3    H256588   6.707   4.312  11.637 -0.0698 -0.5043 -0.6722
11725TIP3   OH256589   0.569   3.912  16.117 -0.0434 -0.3791 -0.2550
11725TIP3    H156590   0.582   3.941  16.026 -1.0709 -2.2916 -1.0361
11725TIP3    H256591   0.526   3.827  16.109  2.4264 -1.8783  2.0270
11726TIP3   OH256592   3.808   1.470  17.179 -0.2390 -0.1505  0.2833
11726TIP3    H156593   3.821   1.516  17.262 -2.8677 -1.6231  1.5487
11726TIP3    H256594   3.847   1.384  17.193  0.2927 -0.0279 -0.4029
11727TIP3   OH256595   0.602   4.456  13.435 -0.1499 -0.4183  0.2186
11727TIP3    H156596   0.647   4.378  13.402 -1.0769 -1.3310  1.0589
11727TIP3    H256597   0.510   4.432  13.435 -0.6086  1.2421 -0.9787
11728TIP3   OH256598   3.368   3.907   4.478  0.8380 -0.1126  0.6048
11728TIP3    H156599   3.282   3.918   4.436 -0.1549 -1.2883  2.2823
11728TIP3    H256600   3.425   3.875   4.408  0.2275  1.8560 -0.8263
11729TIP3   OH256601   3.858   4.218   3.058 -0.1901 -0.4819  0.4493
11729TIP3    H156602   3.874   4.225   2.964  0.0566 -0.2914  0.5051
11729TIP3    H256603   3.943   4.196   3.095 -0.4945 -1.5778  0.5179
11730TIP3   OH256604   6.337   2.789   1.281 -0.2580 -0.5792  0.2737
11730TIP3    H156605   6.377   2.764   1.365  2.8698  1.8961 -0.3990
11730TIP3    H256606   6.393   2.748   1.215 -0.6725  0.3124 -0.6461
11731TIP3   OH256607   3.385   1.474  15.452 -0.6755 -0.0107 -0.0684
11731TIP3    H156608   3.440   1.400  15.480 -1.0475  0.2458  1.3893
11731TIP3    H256609   3.296   1.440  15.457 -0.7969  0.2933 -0.1900
11732TIP3   OH256610   1.118   2.430  13.291  0.2741  0.4168 -0.5158
11732TIP3    H156611   1.195   2.483  13.270  3.0649 -3.3743 -0.2718
11732TIP3    H256612   1.087   2.397  13.207  0.9156 -0.7325 -0.3008
11733TIP3   OH256613   0.016   5.225  16.671  0.5931 -0.1251 -0.3091
11733TIP3    H156614   0.044   5.145  16.717  0.8810 -0.6855 -1.4375
11733TIP3    H256615   0.065   5.295  16.714  0.0506 -0.4961  0.9443
11734TIP3   OH256616   4.611   0.454   3.696 -0.5534 -0.5096 -0.2747
11734TIP3    H156617   4.529   0.486   3.659 -1.4526 -2.1961  0.2534
11734TIP3    H256618   4.659   0.420   3.620 -0.3639  0.3846 -0.5665
11735TIP3   OH256619   4.873   6.097  16.700 -0.1355  0.3723  0.6156
11735TIP3    H156620   4.924   6.177  16.700 -0.8858  0.8555  0.9252
11735TIP3    H256621   4.799   6.115  16.641 -0.9385  0.3278  1.5869
11736TIP3   OH256622   5.260   1.326   5.303 -0.3463  0.7427 -0.0044
11736TIP3    H156623   5.252   1.381   5.381  0.7778 -0.4259  0.9314
11736TIP3    H256624   5.268   1.389   5.231  0.9708  1.8250  1.0564
11737TIP3   OH256625   0.581   3.987  17.113 -0.2584  0.6725 -0.4821
11737TIP3    H156626   0.514   3.950  17.171 -1.3525  0.9695 -1.5490
11737TIP3    H256627   0.658   3.933  17.129 -1.7119 -1.8511 -1.7422
11738TIP3   OH256628   2.342   1.505  10.982 -0.1069 -0.1813 -0.2408
11738TIP3    H156629   2.272   1.570  10.972 -0.5442 -0.8230 -1.4689
11738TIP3    H256630   2.297   1.423  11.003  0.4854  0.0241  1.9513
11739TIP3   OH256631   1.927   2.718   5.027  0.5671  0.5920 -0.1924
11739TIP3    H156632   1.923   2.748   4.936 -3.3540  0.6037 -0.0801
11739TIP3    H256633   1.953   2.626   5.020  0.5494  0.6559 -1.2856
11740TIP3   OH256634   0.593   0.712  17.025 -0.2137  0.3270 -0.0517
11740TIP3    H156635   0.552   0.763  16.955 -2.0924 -0.3399  0.5244
11740TIP3    H256636   0.599   0.623  16.990 -0.6750  0.1023  0.4344
11741TIP3   OH256637   3.229   2.927   0.777 -0.1673  0.0325  0.1549
11741TIP3    H156638   3.196   2.905   0.690 -0.8141  1.0556  0.1308
11741TIP3    H256639   3.316   2.886   0.781 -0.9631 -1.7312 -0.2021
11742TIP3   OH256640   3.008   4.761   4.214 -0.3067 -0.7005  0.1791
11742TIP3    H156641   3.049   4.831   4.265 -1.7190 -0.6281  1.2494
11742TIP3    H256642   2.956   4.807   4.147 -0.1002 -0.7510 -0.0155
11743TIP3   OH256643   2.973   2.388  10.882  0.0960  0.0736  0.8014
11743TIP3    H156644   2.990   2.297  10.905  2.1637  0.4152  0.6795
11743TIP3    H256645   3.047   2.437  10.917 -0.5513  1.6040  0.1018
11744TIP3   OH256646   3.404   3.665  16.920  0.6873  0.0172 -0.0613
11744TIP3    H156647   3.473   3.695  16.860 -0.1632  2.3930  0.0892
11744TIP3    H256648   3.323   3.683  16.873  0.1118 -0.9876  0.5490
11745TIP3   OH256649   3.059   3.648  15.757 -0.0577  0.5245 -0.7400
11745TIP3    H156650   3.067   3.739  15.726 -3.6900  0.4788 -2.1068
11745TIP3    H256651   3.027   3.656  15.847  0.2591  0.5966 -0.6334
11746TIP3   OH256652   2.516   3.480   3.747 -0.1902  0.8889  0.5817
11746TIP3    H156653   2.597   3.527   3.729 -0.0243  0.0717 -0.8429
11746TIP3    H256654   2.545   3.393   3.776 -0.5195  1.3035  2.2121
11747TIP3   OH256655   6.527   0.424   3.092 -0.4070 -0.2113 -0.1607
11747TIP3    H156656   6.434   0.441   3.081 -0.4930  0.3628  1.3272
11747TIP3    H256657   6.537   0.402   3.184  0.9859  0.0813 -0.2232
11748TIP3   OH256658   0.783   4.328   2.858 -0.0077 -0.8873 -0.1068
11748TIP3    H156659   0.709   4.287   2.903 -0.9954  1.2481  0.3036
11748TIP3    H256660   0.859   4.305   2.911 -0.7262 -1.0589  0.8600
11749TIP3   OH256661   2.862   4.975  16.935 -0.5911 -0.5189  0.5882
11749TIP3    H156662   2.832   4.885  16.921 -1.4439  0.0390 -1.3422
11749TIP3    H256663   2.931   4.988  16.870  0.2126 -0.0748  1.5059
11750TIP3   OH256664   2.699   5.991   5.352 -0.1765 -0.1804 -0.6176
11750TIP3    H156665   2.659   6.074   5.377 -1.0934 -0.2570 -1.7924
11750TIP3    H256666   2.689   5.936   5.430  0.0502  0.6630  0.0178
11751TIP3   OH256667   3.614   5.950  15.265  0.0767  0.6921  0.1424
11751TIP3    H156668   3.584   5.863  15.238  1.3834  0.1768  0.3076
11751TIP3    H256669   3.672   5.978  15.194  0.8213  0.7937  0.7912
11752TIP3   OH256670   6.023   4.343  15.790  0.3057 -0.4970 -0.1419
11752TIP3    H156671   6.022   4.249  15.809  2.5218 -0.6514 -0.5954
11752TIP3    H256672   5.934   4.372  15.806  0.6017 -1.7774  4.5272
11753TIP3   OH256673   0.122   6.303  15.872  0.4301  0.4339 -0.1643
11753TIP3    H156674   0.193   6.270  15.927  0.7421  1.9121  0.3409
11753TIP3    H256675   0.154   6.290  15.782  0.5587 -0.5914  0.0263
11754TIP3   OH256676   0.904   5.631  13.497 -0.2048  0.0495  0.1695
11754TIP3    H156677   0.921   5.548  13.542 -1.9126 -0.3692  0.0688
11754TIP3    H256678   0.849   5.681  13.557 -1.7253 -0.1348 -1.0386
11755TIP3   OH256679   5.416   0.185  16.892 -0.2649 -0.1499  0.3272
11755TIP3    H156680   5.362   0.130  16.949  1.1401 -1.2082  0.6458
11755TIP3    H256681   5.369   0.185  16.809 -1.8270  0.6203  1.1734
11756TIP3   OH256682   1.668   5.243   1.737  0.1949 -0.7338 -0.1982
11756TIP3    H156683   1.760   5.264   1.752  0.3970  0.3020 -2.6003
11756TIP3    H256684   1.641   5.195   1.815  1.2957  3.5700  2.9832
11757TIP3   OH256685   6.759   3.343  12.832  0.5205 -0.0324  0.1003
11757TIP3    H156686   6.796   3.320  12.917  0.3210  1.1426  0.5089
11757TIP3    H256687   6.672   3.303  12.831  1.0925 -1.3137 -0.1652
11758TIP3   OH256688   4.755   6.603  12.549 -0.3645 -0.8744  0.4860
11758TIP3    H156689   4.739   6.649  12.467 -1.2360 -3.2990 -0.7604
11758TIP3    H256690   4.724   6.663  12.617  0.3226  1.1377 -0.9192
11759TIP3   OH256691   6.680   5.173  10.402  0.0862 -0.0133  0.2957
11759TIP3    H156692   6.773   5.191  10.388  0.4859 -0.3499  2.3579
11759TIP3    H256693   6.641   5.260  10.415 -0.1964  0.2602 -2.1095
11760TIP3   OH256694   6.148   1.835   2.697  0.3267 -0.0870  0.1867
11760TIP3    H156695   6.172   1.853   2.788  2.4941 -0.5846 -0.2659
11760TIP3    H256696   6.146   1.740   2.690 -1.7107 -0.0727  0.1610
11761TIP3   OH256697   4.641   1.775  15.872 -0.9186  0.7474  0.4677
11761TIP3    H156698   4.580   1.795  15.943 -0.2650 -0.7900  1.4792
11761TIP3    H256699   4.725   1.760  15.916  0.1883  2.7529 -0.9028
11762TIP3   OH256700   4.504   1.509   1.487  0.6778 -0.0374  0.0402
11762TIP3    H156701   4.589   1.552   1.497  0.3355  0.3084  1.4998
11762TIP3    H256702   4.444   1.580   1.465  0.9469 -0.4368 -2.1741
11763TIP3   OH256703   6.251   2.519  12.539  0.2464  0.2063  0.2298
11763TIP3    H156704   6.190   2.532  12.466 -0.1332 -2.6573 -0.0306
11763TIP3    H256705   6.319   2.585  12.525 -2.0348  2.5532 -0.2502
11764TIP3   OH256706   3.596   0.991  11.594 -0.6594 -0.4174  0.1094
11764TIP3    H156707   3.614   0.898  11.579  1.6280 -0.1767  1.2137
11764TIP3    H256708   3.603   1.002  11.689  0.0960  1.0766 -0.1085
11765TIP3   OH256709   6.676   1.906   3.107  0.9184 -0.2957 -0.2793
11765TIP3    H156710   6.617   1.981   3.104  0.2547 -0.8688 -2.3041
11765TIP3    H256711   6.739   1.927   3.177  0.7599  2.1275 -0.8401
11766TIP3   OH256712   1.226   0.535  16.753 -0.3205 -0.0813 -0.1702
11766TIP3    H156713   1.283   0.610  16.736  0.8217 -1.0616 -0.7540
11766TIP3    H256714   1.158   0.541  16.686 -0.1366  0.3263 -0.3214
11767TIP3   OH256715   2.195   4.573  11.701 -0.2156 -0.0671  0.2051
11767TIP3    H156716   2.130   4.509  11.729  0.6362  0.5400  3.8033
11767TIP3    H256717   2.279   4.535  11.729  0.5075  1.4632  0.1379
11768TIP3   OH256718   6.566   2.071  13.119  0.7298  0.3809  0.0137
11768TIP3    H156719   6.546   2.163  13.107 -3.6314 -0.5405 -0.6210
11768TIP3    H256720   6.565   2.058  13.214 -0.7989  0.6124  0.0472
11769TIP3   OH256721   1.433   5.849   4.660 -0.0517 -0.1033  0.0853
11769TIP3    H156722   1.499   5.786   4.632  1.0560  1.3587 -0.6818
11769TIP3    H256723   1.469   5.934   4.635 -0.8033  0.9712  2.5008
11770TIP3   OH256724   2.093   3.106  14.336 -0.1306  0.0253 -0.1129
11770TIP3    H156725   2.088   3.104  14.240 -0.7882  1.3025 -0.1074
11770TIP3    H256726   2.181   3.074  14.356 -0.2563 -0.9853 -1.1041
11771TIP3   OH256727   4.514   0.704   1.917  0.3552 -0.1305  0.4907
11771TIP3    H156728   4.472   0.742   1.840  0.5019 -1.9894 -0.5358
11771TIP3    H256729   4.448   0.646   1.955  0.0702  1.2378  2.1418
11772TIP3   OH256730   1.982   6.042   5.377 -0.2741  0.2488 -0.0850
11772TIP3    H156731   2.074   6.033   5.401 -0.1644  0.7346 -0.3201
11772TIP3    H256732   1.983   6.049   5.281 -0.6213 -0.5719 -0.1624
11773TIP3   OH256733   2.350   2.744  11.498  0.0468  0.1858  0.2549
11773TIP3    H156734   2.424   2.750  11.438  0.4446 -0.0841  0.7185
11773TIP3    H256735   2.388   2.762  11.585 -0.0896 -1.7137  0.7323
11774TIP3   OH256736   5.878   3.436   1.160  0.2531  0.4597 -0.1103
11774TIP3    H156737   5.951   3.382   1.131  0.1117 -0.0000  0.3842
11774TIP3    H256738   5.917   3.520   1.186  0.8030 -0.3384  1.6916
11775TIP3   OH256739   4.413   3.567   6.438 -0.0377  0.3377 -0.3649
11775TIP3    H156740   4.454   3.639   6.388 -0.9130  0.6228 -0.6940
11775TIP3    H256741   4.430   3.588   6.529  2.8357 -0.9479 -0.5717
11776TIP3   OH256742   2.007   2.648   1.451  0.4210  0.8454 -0.1889
11776TIP3    H156743   1.980   2.738   1.468 -3.2314 -0.0013 -0.9624
11776TIP3    H256744   1.986   2.601   1.532 -2.0531 -0.1168 -1.3096
11777TIP3   OH256745   6.543   5.709  10.766 -0.6746 -0.4075  0.2938
11777TIP3    H156746   6.513   5.679  10.680  2.5080 -2.2601 -0.2406
11777TIP3    H256747   6.574   5.798  10.750 -2.5129  0.2441  0.1396
11778TIP3   OH256748   1.397   0.791  12.806 -0.0593  0.2758 -0.0783
11778TIP3    H156749   1.307   0.796  12.838 -0.0593 -0.5553  0.0602
11778TIP3    H256750   1.445   0.745  12.876  0.6042  1.2468  0.1248
11779TIP3   OH256751   0.626   4.555   5.120  0.0218  0.0761 -0.3742
11779TIP3    H156752   0.670   4.639   5.135  1.4221 -0.3421 -1.9625
11779TIP3    H256753   0.693   4.500   5.079 -0.9892 -1.7117  0.3070
11780TIP3   OH256754   5.716   6.431  14.473 -0.0851 -0.1036  0.1428
11780TIP3    H156755   5.711   6.396  14.384  0.8388  2.5935 -1.0193
11780TIP3    H256756   5.630   6.411  14.511 -1.4543  1.0415 -2.2528
11781TIP3   OH256757   1.278   5.079   3.423  0.6702  0.3227 -0.5293
11781TIP3    H156758   1.203   5.119   3.380  0.3010 -1.4009 -1.5572
11781TIP3    H256759   1.247   5.055   3.510  0.4644  0.9006 -0.4424
11782TIP3   OH256760   1.735   3.777  14.822  0.1974  0.0719  0.2841
11782TIP3    H156761   1.671   3.727  14.872 -0.7532  0.9675 -0.0149
11782TIP3    H256762   1.720   3.868  14.849  1.0962  0.3238 -0.0633
11783TIP3   OH256763   4.723   1.434  15.640 -0.0356  0.0599 -0.0587
11783TIP3    H156764   4.810   1.453  15.676  0.3681  0.1543 -1.0576
11783TIP3    H256765   4.666   1.426  15.716  0.3282  2.5797  0.5209
11784TIP3   OH256766   2.078   4.269   4.767 -0.6151  0.1721 -0.8329
11784TIP3    H156767   2.021   4.298   4.838 -0.5366 -2.8992  0.5525
11784TIP3    H256768   2.166   4.273   4.804 -0.3344  0.7531 -1.5449
11785TIP3   OH256769   0.990   0.749   2.278  0.5707  0.1670  0.0559
11785TIP3    H156770   0.997   0.702   2.362  1.8486  1.2073  0.5612
11785TIP3    H256771   0.953   0.685   2.218 -1.6064 -0.2072  1.7141
11786TIP3   OH256772   4.398   0.911   3.245  0.2674 -0.4492 -0.0966
11786TIP3    H156773   4.360   0.982   3.194  0.3791 -0.3004  0.0283
11786TIP3    H256774   4.471   0.951   3.292  1.9268 -1.2003 -1.9781
11787TIP3   OH256775   1.843   2.807  16.799  0.4284 -0.0021  0.0481
11787TIP3    H156776   1.849   2.794  16.894 -0.3911  0.8506  0.2201
11787TIP3    H256777   1.875   2.725  16.762  2.0792  0.1830  1.0425
11788TIP3   OH256778   5.220   3.164   4.528 -0.3375 -0.1234 -0.3477
11788TIP3    H156779   5.295   3.150   4.586 -0.2516 -0.3853 -0.5233
11788TIP3    H256780   5.245   3.239   4.474 -0.3085 -0.0489 -0.2334
11789TIP3   OH256781   5.601   0.253  15.650 -0.4403 -0.2820  0.3206
11789TIP3    H156782   5.560   0.170  15.623  0.8918 -0.3625 -1.5156
11789TIP3    H256783   5.530   0.316  15.649 -1.6025 -1.4898  2.2813
11790TIP3   OH256784   4.896   6.130  11.286 -0.5128  0.3625 -0.1582
11790TIP3    H156785   4.910   6.212  11.333  2.4736  0.7769 -1.6219
11790TIP3    H256786   4.967   6.073  11.316 -1.8215 -1.2631 -0.1037
11791TIP3   OH256787   1.191   4.508  13.382 -0.7127  0.0206 -0.2523
11791TIP3    H156788   1.211   4.446  13.451  0.1472  0.4007 -0.1518
11791TIP3    H256789   1.274   4.553  13.365 -1.1967  0.7657 -0.6915
11792TIP3   OH256790   3.894   0.149  12.094  0.1505  0.0181 -0.1892
11792TIP3    H156791   3.932   0.235  12.108 -1.4719  0.5672  1.0750
11792TIP3    H256792   3.900   0.135  12.000 -1.7223  2.5771 -0.7419
11793TIP3   OH256793   1.663   4.826  14.709  0.2842  0.1628 -0.0884
11793TIP3    H156794   1.634   4.881  14.637  0.1349 -0.5515 -0.5815
11793TIP3    H256795   1.587   4.823  14.768 -0.2151 -0.6631 -0.7552
11794TIP3   OH256796   1.490   3.697  15.534 -0.6729  0.3480  0.1786
11794TIP3    H156797   1.460   3.633  15.469 -1.5867  2.4378 -1.5318
11794TIP3    H256798   1.524   3.644  15.606 -2.2972 -2.0589 -0.7559
11795TIP3   OH256799   0.365   2.021  14.658  0.0044  0.5613  0.2431
11795TIP3    H156800   0.280   2.062  14.640 -0.1707 -0.4331 -1.2535
11795TIP3    H256801   0.350   1.928  14.647  0.9493  0.2591  1.4241
11796TIP3   OH256802   3.388   4.445  11.110  0.1403  0.7563 -0.1942
11796TIP3    H156803   3.297   4.475  11.112 -0.0296  0.3005 -1.1540
11796TIP3    H256804   3.382   4.350  11.106  0.6762  0.6439  1.2023
11797TIP3   OH256805   4.608   3.109  12.847 -0.0762  0.1066  0.6086
11797TIP3    H156806   4.528   3.131  12.894 -1.2121  0.3819 -1.4106
11797TIP3    H256807   4.603   3.158  12.765  2.1183  0.0506  0.3942
11798TIP3   OH256808   4.721   2.065   0.308  0.9832 -0.2579 -0.0680
11798TIP3    H156809   4.660   2.118   0.256 -1.2136 -2.9227 -0.3465
11798TIP3    H256810   4.739   2.118   0.385 -1.4758  0.7693 -0.1394
11799TIP3   OH256811   4.823   1.456  13.222 -0.1875  0.4312 -0.7877
11799TIP3    H156812   4.852   1.391  13.157  0.0416  0.0983 -0.3530
11799TIP3    H256813   4.897   1.516  13.230  0.3207 -0.3215  0.1946
11800TIP3   OH256814   4.960   1.816  11.484  0.5609  0.5724 -0.4280
11800TIP3    H156815   4.925   1.827  11.396  0.0075 -0.9673 -0.4154
11800TIP3    H256816   4.899   1.863  11.541 -1.0654 -1.4126 -0.4951
11801TIP3   OH256817   1.003   1.171   2.993 -0.4561 -0.0125 -0.1362
11801TIP3    H156818   1.071   1.109   2.966 -0.6880 -1.8099  3.0496
11801TIP3    H256819   1.046   1.256   2.991  1.6375 -1.0107  0.9172
11802TIP3   OH256820   0.635   0.523  16.359 -0.1922 -0.2157 -0.4489
11802TIP3    H156821   0.644   0.607  16.314 -0.5231 -0.1308 -0.3587
11802TIP3    H256822   0.549   0.491  16.333 -0.2945 -0.2715 -0.0577
11803TIP3   OH256823   4.598   1.993   5.341 -0.4388 -0.0743 -0.5280
11803TIP3    H156824   4.667   1.929   5.359  0.0739  0.4180 -0.7114
11803TIP3    H256825   4.645   2.075   5.328 -1.1023  0.3920 -0.0536
11804TIP3   OH256826   5.628   2.915  11.870 -0.3979 -0.8480 -0.9846
11804TIP3    H156827   5.724   2.907  11.871 -0.2473  0.7525 -1.9702
11804TIP3    H256828   5.597   2.828  11.844  0.7392 -1.6881  0.4032
11805TIP3   OH256829   1.339   6.198  10.984 -0.1089  0.2018  0.7177
11805TIP3    H156830   1.358   6.289  10.962  3.4898 -0.3593  1.1852
11805TIP3    H256831   1.355   6.149  10.903  1.5195 -0.4387  1.4156
11806TIP3   OH256832   1.363   1.934   6.078 -0.0098 -0.3117 -0.0623
11806TIP3    H156833   1.337   1.882   6.153  0.5548  1.3501  1.3049
11806TIP3    H256834   1.457   1.949   6.091 -0.0167  0.4249 -0.8328
11807TIP3   OH256835   3.103   0.445  15.636  0.0956 -0.1855  0.2854
11807TIP3    H156836   3.020   0.428  15.590  0.0650  0.9965 -0.1223
11807TIP3    H256837   3.152   0.501  15.576  1.8398 -2.0907 -0.1411
11808TIP3   OH256838   3.297   3.282  12.722  0.0055  0.3319  0.1037
11808TIP3    H156839   3.318   3.189  12.727 -2.0067 -0.3622 -2.9307
11808TIP3    H256840   3.343   3.313  12.644 -0.4192  1.5798  0.3295
11809TIP3   OH256841   6.022   5.159  13.453 -0.1680  0.6278 -0.0027
11809TIP3    H156842   6.109   5.125  13.475 -0.6819 -0.6729  0.0668
11809TIP3    H256843   5.987   5.193  13.536  0.1686  0.9115  0.0230
11810TIP3   OH256844   3.244   6.055   1.175  0.0623 -0.0936  0.2094
11810TIP3    H156845   3.258   6.089   1.263  2.5254  0.3293 -0.3357
11810TIP3    H256846   3.305   6.102   1.120 -2.1774  0.3995 -1.9531
11811TIP3   OH256847   0.227   2.588  13.812 -0.0274 -0.1658 -0.3762
11811TIP3    H156848   0.308   2.566  13.766 -0.9239 -0.7680 -1.7029
11811TIP3    H256849   0.242   2.676  13.846  0.6997  0.2481 -1.7305
11812TIP3   OH256850   5.248   5.901   0.080 -0.1986  0.7434 -1.4903
11812TIP3    H156851   5.252   5.911   0.175 -2.1995  1.6862 -1.4884
11812TIP3    H256852   5.340   5.894   0.053  0.3803  0.2300  0.5221
11813TIP3   OH256853   1.448   1.703   0.560  0.3467  0.2957  0.1606
11813TIP3    H156854   1.453   1.628   0.500  0.1828  1.3331 -1.1562
11813TIP3    H256855   1.389   1.764   0.517  0.2628  1.0737  1.3714
11814TIP3   OH256856   3.132   3.765   4.632 -0.5042  0.1232 -0.7202
11814TIP3    H156857   3.118   3.676   4.665  1.0282  0.3400  0.5593
11814TIP3    H256858   3.215   3.761   4.585  0.7961  1.4095  1.3983
11815TIP3   OH256859   3.754   5.997   1.269 -0.2505  0.0318  0.6812
11815TIP3    H156860   3.721   6.083   1.297  0.7141  0.4389  0.5738
11815TIP3    H256861   3.675   5.943   1.261 -1.1046  1.5020 -1.3446
11816TIP3   OH256862   6.700   6.674   3.238  0.5084  0.4210  0.4509
11816TIP3    H156863   6.794   6.659   3.227  0.4750 -0.2300  1.0004
11816TIP3    H256864   6.681   6.750   3.183  1.1987  0.0472 -0.3205
11817TIP3   OH256865   6.514   0.754  14.955  0.2911  0.1746  0.0267
11817TIP3    H156866   6.530   0.780  15.046 -0.0448 -0.0789  0.1615
11817TIP3    H256867   6.576   0.805  14.904 -1.7747  2.8584  0.0932
11818TIP3   OH256868   1.501   3.669  12.869 -0.1529 -0.3053 -0.3695
11818TIP3    H156869   1.546   3.716  12.799  1.0436  0.5365  0.9420
11818TIP3    H256870   1.415   3.710  12.875  0.5554  1.1442  0.1493
11819TIP3   OH256871   4.977   1.340   4.639  0.4093 -0.2076 -0.2486
11819TIP3    H156872   4.896   1.382   4.611  0.4208  0.1679  0.2760
11819TIP3    H256873   5.020   1.405   4.695  0.6689 -0.7242  0.1524
11820TIP3   OH256874   1.472   5.704  13.139  0.7861 -0.1700 -0.1675
11820TIP3    H156875   1.428   5.769  13.084 -0.3435 -0.1633  0.7335
11820TIP3    H256876   1.565   5.713  13.117  0.2171 -1.3377 -3.3390
11821TIP3   OH256877   1.254   4.725  12.521 -0.2350  0.1629 -0.3966
11821TIP3    H156878   1.295   4.736  12.606  0.4193  0.5827 -0.7699
11821TIP3    H256879   1.234   4.631  12.516 -2.2631  0.4591  1.1245
11822TIP3   OH256880   3.946   5.487   5.720 -0.2081  0.0171 -0.4957
11822TIP3    H156881   3.962   5.425   5.791  0.6150  0.6378 -0.1315
11822TIP3    H256882   4.029   5.494   5.674 -1.5332 -2.8348 -3.5537
11823TIP3   OH256883   5.490   1.937  13.806  0.2735 -0.1910 -0.3779
11823TIP3    H156884   5.405   1.973  13.830  0.3503  0.0225 -0.4232
11823TIP3    H256885   5.548   2.013  13.800  0.5500 -0.3706  0.0046
11824TIP3   OH256886   5.910   1.579  16.654 -0.2715  0.6197 -0.0889
11824TIP3    H156887   5.952   1.500  16.688 -0.9309  0.7370  1.0387
11824TIP3    H256888   5.955   1.651  16.699 -1.3609  0.7627  0.8034
11825TIP3   OH256889   4.586   4.476   5.126  0.2756  0.7215 -0.0988
11825TIP3    H156890   4.543   4.396   5.096 -1.4001  1.2971  0.7545
11825TIP3    H256891   4.518   4.525   5.171  2.5226  0.1534  4.2235
11826TIP3   OH256892   0.388   2.847   0.918 -0.4549  0.1983  0.4001
11826TIP3    H156893   0.344   2.887   0.993  0.6390 -0.6249  1.5053
11826TIP3    H256894   0.352   2.759   0.913  0.1943 -0.0741  0.5564
11827TIP3   OH256895   2.060   0.207   5.276  0.2046  0.2787  0.4744
11827TIP3    H156896   2.084   0.262   5.351 -0.4616  0.4268  0.5768
11827TIP3    H256897   2.126   0.137   5.276 -0.4150 -0.3222  1.8293
11828TIP3   OH256898   5.930   3.931   0.405 -0.0742  0.1766  0.1097
11828TIP3    H156899   6.020   3.927   0.372  0.1494 -0.8039  0.8133
11828TIP3    H256900   5.930   3.874   0.482 -0.6270  2.4254  1.7890
11829TIP3   OH256901   6.526   2.063  11.671 -0.0332  0.0076 -0.7033
11829TIP3    H156902   6.463   2.028  11.607 -0.7231 -1.2250  0.6171
11829TIP3    H256903   6.611   2.031  11.641 -0.4028 -0.9140 -0.7851
11830TIP3   OH256904   4.497   5.245  17.148  0.1002 -0.2183 -0.0627
11830TIP3    H156905   4.464   5.258  17.237 -1.3852 -0.9584 -0.4953
11830TIP3    H256906   4.583   5.287  17.148 -0.4059  0.8450  1.3734
11831TIP3   OH256907   3.949   1.402  15.101  0.0234  0.1665  0.3360
11831TIP3    H156908   3.926   1.469  15.036 -1.3740 -1.3601 -0.7868
11831TIP3    H256909   3.884   1.412  15.170 -0.9440 -0.8182 -0.4185
11832TIP3   OH256910   2.059   4.632  15.038  0.3343  0.5225 -0.1698
11832TIP3    H156911   2.050   4.727  15.043  2.4265  0.7288  0.0363
11832TIP3    H256912   2.018   4.608  14.955 -0.5550  1.5503 -0.0356
11833TIP3   OH256913   4.392   3.771  14.774 -0.3144 -0.0911  0.0709
11833TIP3    H156914   4.374   3.682  14.745  0.8099 -0.7583  1.3667
11833TIP3    H256915   4.469   3.763  14.830 -0.1196  1.7175  0.0947
11834TIP3   OH256916   0.544   2.197  14.191  0.1825 -0.6259  0.7814
11834TIP3    H156917   0.600   2.250  14.248  1.6460 -0.2580 -0.9682
11834TIP3    H256918   0.458   2.237  14.199  0.8664  0.8578  0.9674
11835TIP3   OH256919   6.161   3.728  12.481  0.5488 -1.1226  0.1427
11835TIP3    H156920   6.215   3.656  12.449  1.7768 -0.5476  0.8699
11835TIP3    H256921   6.149   3.710  12.574  2.0374  0.3092  0.6437
11836TIP3   OH256922   6.666   6.404   4.176 -0.4853  0.1678  0.3681
11836TIP3    H156923   6.759   6.427   4.169 -0.3403 -0.6916 -0.6855
11836TIP3    H256924   6.665   6.309   4.183 -1.3399  0.0503 -1.0686
11837TIP3   OH256925   2.001   2.111   4.064  0.1468 -0.5492 -0.1944
11837TIP3    H156926   2.020   2.105   4.158 -2.3894 -0.8955  0.3549
11837TIP3    H256927   1.970   2.023   4.041 -1.7874  0.2267 -0.7031
11838TIP3   OH256928   5.629   4.829   3.671 -0.8371 -0.6909 -0.0005
11838TIP3    H156929   5.634   4.735   3.655  3.9575 -0.6876  0.6866
11838TIP3    H256930   5.607   4.836   3.764  0.4695 -1.2047  0.3641
11839TIP3   OH256931   2.642   1.443  10.923 -0.0179  0.4906 -0.0841
11839TIP3    H156932   2.599   1.502  10.985  0.0206 -0.1606  0.5658
11839TIP3    H256933   2.589   1.448  10.844 -1.3785 -0.4070  0.7584
11840TIP3   OH256934   0.797   0.002   3.057  0.1018 -0.0298  0.1762
11840TIP3    H156935   0.822   0.038   3.143  1.3551  2.1032 -1.0309
11840TIP3    H256936   0.707   0.031   3.044 -0.5154 -1.3806  1.2656
11841TIP3   OH256937   4.073   1.722  15.073 -0.0729 -0.2008 -0.3521
11841TIP3    H156938   4.029   1.807  15.070 -2.2356 -1.3155 -1.8743
11841TIP3    H256939   4.133   1.729  15.147  0.0730  2.7669 -0.6677
11842TIP3   OH256940   2.067   4.832   3.396 -0.1799  0.0997  0.3822
11842TIP3    H156941   2.143   4.829   3.338 -1.5325  0.4606 -1.4636
11842TIP3    H256942   2.014   4.904   3.362 -1.2294 -0.0026  1.7827
11843TIP3   OH256943   4.505   2.672  13.548  0.2740  0.2999 -0.1385
11843TIP3    H156944   4.582   2.646  13.497 -0.5729  0.5936 -1.5752
11843TIP3    H256945   4.502   2.609  13.620  1.6810  0.1000 -0.2358
11844TIP3   OH256946   4.409   3.766  10.776 -0.0897  0.1084  0.2479
11844TIP3    H156947   4.425   3.852  10.815  1.6089 -0.1781  0.1995
11844TIP3    H256948   4.482   3.752  10.717 -0.9863 -0.8577 -0.6539
11845TIP3   OH256949   1.153   1.458   1.745 -0.0897  0.4846 -0.3399
11845TIP3    H156950   1.161   1.482   1.652  1.9265  2.0439  0.1995
11845TIP3    H256951   1.140   1.363   1.744  2.7440  0.0525 -2.1446
11846TIP3   OH256952   6.135   4.627  16.919  0.7711 -0.1733  0.2186
11846TIP3    H156953   6.117   4.708  16.872  0.2931 -0.3089  0.1605
11846TIP3    H256954   6.096   4.559  16.865 -1.7995 -0.1170  1.8801
11847TIP3   OH256955   2.264   4.139  11.662 -0.8345  0.0796 -0.4591
11847TIP3    H156956   2.219   4.066  11.703  0.0218 -0.4318 -0.4274
11847TIP3    H256957   2.202   4.212  11.668 -1.4891 -0.5078 -0.0510
11848TIP3   OH256958   5.093   4.066  11.391  0.3277  0.3659 -0.4837
11848TIP3    H156959   5.056   3.978  11.381 -1.8481  1.3344 -1.0824
11848TIP3    H256960   5.166   4.054  11.452  1.2507 -2.1800 -2.0119
11849TIP3   OH256961   2.843   0.552   0.399 -0.0592 -0.5310 -0.1614
11849TIP3    H156962   2.755   0.582   0.374  0.4507 -0.9245 -2.5220
11849TIP3    H256963   2.828   0.491   0.471 -1.7512 -0.7949 -0.7100
11850TIP3   OH256964   1.751   4.761  15.253  0.4169  0.1455 -0.3901
11850TIP3    H156965   1.803   4.690  15.290  0.5473 -0.1680 -1.1719
11850TIP3    H256966   1.776   4.765  15.161  1.8913  2.5170  0.0576
11851TIP3   OH256967   5.004   5.936   4.377  0.4433 -0.1714 -0.4089
11851TIP3    H156968   4.959   6.018   4.397  0.8408 -0.3341  1.1778
11851TIP3    H256969   4.965   5.907   4.294 -2.1551 -0.1229  0.7328
11852TIP3   OH256970   5.391   3.402   4.148  0.1294  0.1062  0.5239
11852TIP3    H156971   5.298   3.398   4.126  0.2239 -1.3447  0.3078
11852TIP3    H256972   5.422   3.311   4.139  1.4644  0.4911  1.0160
11853TIP3   OH256973   5.373   4.458  14.191 -0.4986 -0.2322 -0.9206
11853TIP3    H156974   5.413   4.541  14.165  0.7612 -0.6300 -0.3224
11853TIP3    H256975   5.445   4.395  14.186 -1.5499 -1.3722 -1.7934
11854TIP3   OH256976   0.178   4.305  14.124  0.0068  0.0332  0.5683
11854TIP3    H156977   0.144   4.262  14.202  0.5278  0.9303  1.2961
11854TIP3    H256978   0.271   4.319  14.143  0.7663 -2.0976 -1.2518
11855TIP3   OH256979   0.544   0.226   4.275  0.4479 -0.0828 -0.1026
11855TIP3    H156980   0.502   0.282   4.209 -1.2463  1.2239  2.0028
11855TIP3    H256981   0.560   0.285   4.349  2.7005 -1.4238  0.5166
11856TIP3   OH256982   3.067   4.446   1.607  0.4510  0.4785  0.2465
11856TIP3    H156983   3.114   4.381   1.556  1.4771 -0.0357  1.8274
11856TIP3    H256984   3.086   4.529   1.563 -0.6594 -0.2193 -1.6242
11857TIP3   OH256985   6.191   0.838   0.407 -0.3768 -0.1210  0.1028
11857TIP3    H156986   6.096   0.825   0.412 -0.2908 -1.5542 -1.5104
11857TIP3    H256987   6.226   0.752   0.387  1.2915  0.3711  0.8255
11858TIP3   OH256988   5.416   1.440  12.103 -0.4636 -0.2737  0.3288
11858TIP3    H156989   5.390   1.403  12.188  0.1427 -2.5018 -0.4141
11858TIP3    H256990   5.478   1.376  12.067 -0.3863  0.8494 -1.6015
11859TIP3   OH256991   6.585   5.868   5.902  0.3761 -0.0067 -0.4110
11859TIP3    H156992   6.655   5.925   5.871  1.6698 -0.8634  0.8069
11859TIP3    H256993   6.621   5.829   5.983 -0.4966 -2.3938 -1.1290
11860TIP3   OH256994   5.560   5.230  10.828 -0.1395 -0.6174 -0.1822
11860TIP3    H156995   5.552   5.275  10.743  0.4122  0.7110  0.4587
11860TIP3    H256996   5.642   5.263  10.865 -1.1357 -0.0024  1.5413
11861TIP3   OH256997   0.543   1.187   4.665  0.3977  0.5918  0.3410
11861TIP3    H156998   0.505   1.264   4.707 -1.0402  0.2557 -0.3010
11861TIP3    H256999   0.538   1.206   4.572 -1.4670 -0.9344  0.1000
11862TIP3   OH257000   3.677   6.390  13.169  0.2301  0.1110 -0.1207
11862TIP3    H157001   3.708   6.424  13.085 -0.6698  1.4948  0.0916
11862TIP3    H257002   3.674   6.466  13.227 -2.6923 -0.0977  0.0908
11863TIP3   OH257003   0.286   5.120  14.689 -0.0205  0.4108  0.2988
11863TIP3    H157004   0.263   5.180  14.618  0.4012  0.4804  0.2173
11863TIP3    H257005   0.369   5.154  14.722 -1.2027  1.6084  2.1871
11864TIP3   OH257006   6.106   4.058   0.843 -0.0048 -0.1218  0.1185
11864TIP3    H157007   6.095   4.033   0.751 -2.0126 -0.0109  0.2953
11864TIP3    H257008   6.070   4.147   0.847  0.7946  0.1674  0.8611
11865TIP3   OH257009   5.542   6.449  13.093  0.2287 -0.5747  0.2323
11865TIP3    H157010   5.629   6.486  13.110  0.3238 -0.4520 -0.5029
11865TIP3    H257011   5.488   6.526  13.072 -0.2267 -0.5778  1.3992
11866TIP3   OH257012   5.052   3.586  11.164 -0.6357  0.1469 -0.0427
11866TIP3    H157013   5.015   3.662  11.120 -0.0243 -0.4097 -1.5707
11866TIP3    H257014   5.073   3.525  11.093 -0.8620 -1.3409  1.1267
11867TIP3   OH257015   6.508   1.367  15.258  0.4634 -0.0472  0.2113
11867TIP3    H157016   6.531   1.276  15.238  0.0346 -0.0253 -0.4120
11867TIP3    H257017   6.440   1.360  15.325  0.0082 -0.2075 -0.2608
11868TIP3   OH257018   0.918   4.111  10.730 -0.0217  0.1238  0.2875
11868TIP3    H157019   0.921   4.191  10.678  2.3623 -0.5622 -0.7080
11868TIP3    H257020   0.952   4.137  10.815  1.1516  0.0965 -0.1648
11869TIP3   OH257021   6.131   4.735   1.959 -0.7118 -0.3823 -0.7932
11869TIP3    H157022   6.084   4.805   2.005  0.8911 -1.0707  2.0034
11869TIP3    H257023   6.102   4.654   2.000  1.1510 -0.9843 -0.6007
11870TIP3   OH257024   3.282   0.732  14.958 -0.7119 -0.0011  0.1879
11870TIP3    H157025   3.254   0.813  15.002 -0.4376  0.6527 -0.8246
11870TIP3    H257026   3.233   0.732  14.876 -2.5860 -2.1200  1.2606
11871TIP3   OH257027   6.359   2.839  17.052 -0.0044  0.0967  0.2839
11871TIP3    H157028   6.373   2.786  16.973 -1.2368 -0.5376  0.4696
11871TIP3    H257029   6.389   2.784  17.124 -0.7971 -0.1509  0.4334
11872TIP3   OH257030   3.387   4.233   3.985  0.6490  0.3910  0.6620
11872TIP3    H157031   3.301   4.274   3.990 -0.0940 -0.9652 -0.8437
11872TIP3    H257032   3.448   4.307   3.990 -0.5906  1.4042  1.2344
11873TIP3   OH257033   4.532   5.868   4.074  1.0812  0.1099  0.3495
11873TIP3    H157034   4.451   5.893   4.029  1.4538 -0.7593 -0.8330
11873TIP3    H257035   4.502   5.813   4.147  0.4427  1.9126  1.4630
11874TIP3   OH257036   1.561   3.833  12.653 -0.8621  0.6477  0.1197
11874TIP3    H157037   1.656   3.835  12.663 -1.1161  2.7981  2.6193
11874TIP3    H257038   1.545   3.765  12.587  2.1651 -2.3108  2.3045
11875TIP3   OH257039   3.336   3.194  14.593 -0.3782 -0.1883 -0.1932
11875TIP3    H157040   3.378   3.175  14.677  0.1104 -1.7744 -0.7677
11875TIP3    H257041   3.357   3.285  14.575  0.5948 -0.2120  0.7943
11876TIP3   OH257042   1.254   2.492   1.416  0.0272  0.1203 -0.1667
11876TIP3    H157043   1.176   2.441   1.394  0.4083 -0.9439  0.8695
11876TIP3    H257044   1.326   2.430   1.409  0.5157  0.5429  0.9596
11877TIP3   OH257045   3.913   6.273   3.249  0.4559 -0.1357  0.2001
11877TIP3    H157046   3.964   6.346   3.212 -1.6640  0.7817 -0.9795
11877TIP3    H257047   3.933   6.199   3.191  0.6781  0.1460 -0.0868
11878TIP3   OH257048   4.478   6.260   2.893 -0.0899 -0.1853 -0.4347
11878TIP3    H157049   4.501   6.344   2.855  2.0971 -0.9702 -0.9027
11878TIP3    H257050   4.541   6.247   2.964 -1.9266 -0.3377  1.2102
11879TIP3   OH257051   4.727   6.056   3.696 -0.5198 -0.3160 -0.3119
11879TIP3    H157052   4.781   6.134   3.696 -0.5958 -0.2066  2.6254
11879TIP3    H257053   4.641   6.086   3.665  0.1642  0.1868 -1.7588
11880TIP3   OH257054   6.386   3.649   1.358  0.2771 -0.0796  0.2254
11880TIP3    H157055   6.456   3.586   1.348  0.3030 -0.4818  2.7032
11880TIP3    H257056   6.425   3.733   1.333  0.5548 -0.8184 -1.9520
11881TIP3   OH257057   1.583   1.251  15.048 -0.2904 -0.0329 -0.0691
11881TIP3    H157058   1.645   1.180  15.069  1.9515  1.9679  0.3426
11881TIP3    H257059   1.556   1.284  15.133  1.6543  2.0682 -0.2287
11882TIP3   OH257060   4.412   6.601   6.429  0.7596  0.2776 -0.3822
11882TIP3    H157061   4.505   6.614   6.446  1.1746 -0.2062 -2.1551
11882TIP3    H257062   4.409   6.547   6.350 -1.0204  0.0122 -0.1590
11883TIP3   OH257063   2.436   2.812   0.402 -0.5933 -0.3169  1.2289
11883TIP3    H157064   2.440   2.875   0.474  0.7647  0.3721  0.5583
11883TIP3    H257065   2.396   2.861   0.330  1.2808  0.0785  0.4275
11884TIP3   OH257066   3.843   2.446  12.890 -0.0224  0.3045  0.7820
11884TIP3    H157067   3.773   2.382  12.896  0.0828  0.2367  1.3634
11884TIP3    H257068   3.799   2.531  12.900 -0.1792  0.3308 -0.1305
11885TIP3   OH257069   1.289   4.993   1.324 -0.1761  0.3932  0.2659
11885TIP3    H157070   1.304   5.088   1.320 -0.3179  0.4118  0.1183
11885TIP3    H257071   1.287   4.973   1.417  0.3631  0.4528  0.2924
11886TIP3   OH257072   5.215   0.846   3.239  0.6209 -0.4974  0.2453
11886TIP3    H157073   5.193   0.931   3.277  0.5364 -0.4982  0.1993
11886TIP3    H257074   5.288   0.814   3.292  0.6731 -0.3827  0.2437
11887TIP3   OH257075   4.922   4.983  12.653  0.1087 -0.2820  0.4288
11887TIP3    H157076   4.891   5.074  12.652  1.3836  0.1842  1.6743
11887TIP3    H257077   4.917   4.957  12.745 -1.3749 -1.8813 -0.0897
11888TIP3   OH257078   5.850   5.387  14.920  0.0952  0.3039  0.6349
11888TIP3    H157079   5.876   5.317  14.859 -0.5399  0.8424 -0.2686
11888TIP3    H257080   5.846   5.344  15.005  2.4996 -0.1275  0.5819
11889TIP3   OH257081   3.478   0.047   2.054 -0.0191 -0.2832 -0.1840
11889TIP3    H157082   3.455   0.003   1.972 -2.1683 -1.0602  0.8020
11889TIP3    H257083   3.423   0.005   2.120 -0.5732  2.4182  1.1510
11890TIP3   OH257084   3.099   2.861   1.000 -0.4736 -0.2905 -0.0941
11890TIP3    H157085   3.131   2.772   1.008  0.1258 -0.0473  0.2457
11890TIP3    H257086   3.146   2.897   0.925  1.6449  0.7371  1.6818
11891TIP3   OH257087   5.411   3.591   2.399 -0.2269 -0.7932  0.1770
11891TIP3    H157088   5.407   3.687   2.398 -0.8408 -0.8060  0.6255
11891TIP3    H257089   5.433   3.567   2.309 -2.0666 -0.3007 -0.4294
11892TIP3   OH257090   2.466   4.208   0.098 -0.3017 -0.4445  0.1339
11892TIP3    H157091   2.539   4.270   0.102 -0.7986  0.2521 -1.4212
11892TIP3    H257092   2.468   4.164   0.184  1.2900  0.2914  0.5041
11893TIP3   OH257093   3.771   1.749   3.702  0.2297  0.1358 -0.4246
11893TIP3    H157094   3.822   1.681   3.657  0.6250  0.3030 -0.2331
11893TIP3    H257095   3.689   1.754   3.653  0.2036 -0.4679 -0.4542
11894TIP3   OH257096   4.306   5.425  14.972 -0.4989 -0.0782 -0.9637
11894TIP3    H157097   4.328   5.404  14.882 -0.6745 -1.1614 -0.7637
11894TIP3    H257098   4.391   5.436  15.016 -0.3970 -0.9984 -0.9308
11895TIP3   OH257099   1.806   6.342   4.466 -0.4225 -0.5452 -0.3451
11895TIP3    H157100   1.804   6.354   4.371 -0.1799  1.4043 -0.1098
11895TIP3    H257101   1.715   6.353   4.494 -0.4130 -0.6116 -0.2867
11896TIP3   OH257102   1.849   4.837   2.185  0.1793 -0.1060 -0.8759
11896TIP3    H157103   1.877   4.921   2.147  1.2055  0.1153  0.3287
11896TIP3    H257104   1.842   4.855   2.279 -2.4480 -0.6169 -0.9512
11897TIP3   OH257105   3.695   2.702  16.660  0.0569 -0.5832 -0.1605
11897TIP3    H157106   3.645   2.739  16.587  2.1216  1.0573 -0.7842
11897TIP3    H257107   3.726   2.618  16.627 -1.9478 -1.4577  0.1118
11898TIP3   OH257108   3.880   0.385   2.525  0.4484  0.0033  0.1211
11898TIP3    H157109   3.820   0.337   2.583  0.6938 -1.2888 -0.6742
11898TIP3    H257110   3.913   0.457   2.578 -2.0598  0.9471  0.4935
11899TIP3   OH257111   2.820   4.329   3.318 -0.2886 -0.0207  0.3237
11899TIP3    H157112   2.861   4.247   3.292  1.8702  0.8547  0.8940
11899TIP3    H257113   2.735   4.328   3.274 -0.6663 -2.9524  1.0362
11900TIP3   OH257114   2.710   1.969  17.020 -0.3879 -0.0357  0.0725
11900TIP3    H157115   2.623   1.939  16.993 -0.7673  0.4534  0.7206
11900TIP3    H257116   2.724   1.928  17.105  0.0862 -0.2481 -0.1090
11901TIP3   OH257117   5.770   1.877  10.890 -0.0896  0.0414  0.4279
11901TIP3    H157118   5.719   1.801  10.860 -0.4865 -0.5254  2.4479
11901TIP3    H257119   5.766   1.938  10.818 -1.2413 -1.1728 -0.5745
11902TIP3   OH257120   2.046   0.765   0.868 -0.1068 -0.3260 -0.3437
11902TIP3    H157121   1.985   0.744   0.797 -1.0037 -0.9773  0.6045
11902TIP3    H257122   2.078   0.680   0.898 -2.1557 -0.2801  2.1339
11903TIP3   OH257123   4.049   5.862   1.703 -0.0643 -0.2439 -0.2148
11903TIP3    H157124   4.099   5.780   1.700  0.6203  0.2073 -1.2563
11903TIP3    H257125   4.072   5.902   1.786 -1.1439 -1.5728  0.7538
11904TIP3   OH257126   3.957   2.291   3.895  0.2550 -0.4856 -0.4927
11904TIP3    H157127   3.971   2.217   3.836 -1.6741 -1.2197 -0.0795
11904TIP3    H257128   3.972   2.255   3.982  1.6505  0.2303 -0.4228
11905TIP3   OH257129   0.148   2.795  14.189  0.2179  0.0685 -0.7079
11905TIP3    H157130   0.074   2.813  14.130 -0.8644 -0.3512  0.5082
11905TIP3    H257131   0.221   2.776  14.130 -0.2727  1.8912 -1.9517
11906TIP3   OH257132   4.729   4.157  14.801  0.1830 -0.9477 -0.1510
11906TIP3    H157133   4.776   4.193  14.725 -1.0884 -0.0020 -0.5196
11906TIP3    H257134   4.759   4.211  14.874 -1.7788  1.0191 -0.7171
11907TIP3   OH257135   2.549   0.643   3.535 -0.0597  0.0068  0.3195
11907TIP3    H157136   2.457   0.640   3.561  0.2317  0.7610  1.4591
11907TIP3    H257137   2.555   0.719   3.477 -0.2104 -0.1967  0.0390
11908TIP3   OH257138   5.184   1.426   0.122  0.4895  0.2746  0.1434
11908TIP3    H157139   5.260   1.393   0.075  1.0897  0.7681  0.7529
11908TIP3    H257140   5.146   1.491   0.063  0.2373 -0.3395 -0.3787
11909TIP3   OH257141   5.246   2.144   0.350 -0.3979  0.4539 -0.8260
11909TIP3    H157142   5.189   2.088   0.403  0.1035 -0.6947 -1.4810
11909TIP3    H257143   5.316   2.170   0.409 -1.2651  1.3696 -0.1886
11910TIP3   OH257144   4.114   2.294   4.966 -0.1502  0.0458 -0.5914
11910TIP3    H157145   4.108   2.199   4.958  1.2098 -0.0278 -0.8977
11910TIP3    H257146   4.139   2.308   5.057  0.2124  0.0666 -0.6903
11911TIP3   OH257147   0.124   3.778  13.457 -0.1131 -0.4659  0.2903
11911TIP3    H157148   0.033   3.774  13.484 -0.1646 -0.8105  0.0686
11911TIP3    H257149   0.147   3.688  13.435 -0.2792 -0.0933 -1.4871
11912TIP3   OH257150   3.445   5.015  15.994 -0.2050  0.1980 -0.0837
11912TIP3    H157151   3.421   4.949  15.929  0.2168  0.3834 -0.4308
11912TIP3    H257152   3.416   5.098  15.955 -2.2575  0.0588  1.0837
11913TIP3   OH257153   6.230   4.461   2.668 -0.1886 -0.1175  0.4207
11913TIP3    H157154   6.232   4.534   2.730  1.5359 -1.2956  1.8209
11913TIP3    H257155   6.255   4.500   2.584 -0.5484  1.1376  0.8929
11914TIP3   OH257156   3.267   4.394   4.251 -0.1303  0.0156 -1.1568
11914TIP3    H157157   3.223   4.388   4.335 -1.0469 -0.5000 -1.6667
11914TIP3    H257158   3.311   4.309   4.241 -0.9626 -0.3561 -1.7091
11915TIP3   OH257159   0.705   1.954  13.243 -0.3487  0.3711 -0.0465
11915TIP3    H157160   0.704   2.050  13.237 -1.6683  0.4801  1.5516
11915TIP3    H257161   0.615   1.931  13.267  0.2978 -1.1597  0.9656
11916TIP3   OH257162   2.372   6.475  11.269  0.0012 -0.6348 -0.0628
11916TIP3    H157163   2.334   6.393  11.237  0.8152 -0.3882 -1.7471
11916TIP3    H257164   2.304   6.541  11.256 -0.6211 -1.0332  1.2056
11917TIP3   OH257165   2.461   3.855  15.226 -0.1032 -0.4734  0.1488
11917TIP3    H157166   2.551   3.823  15.230  0.0757 -0.3972 -2.4228
11917TIP3    H257167   2.466   3.933  15.171 -1.6778 -0.1908  0.3858
11918TIP3   OH257168   0.825   3.978   4.542 -0.2809 -0.5304 -0.7451
11918TIP3    H157169   0.785   4.045   4.596  0.0693 -0.0362 -1.0968
11918TIP3    H257170   0.793   3.895   4.578  0.7702 -0.2515  0.8642
11919TIP3   OH257171   5.245   4.198  15.423  0.3723 -0.0087 -0.0129
11919TIP3    H157172   5.251   4.105  15.403 -0.1291  0.1329 -0.8243
11919TIP3    H257173   5.283   4.242  15.347  0.4090  0.4636  0.2705
11920TIP3   OH257174   4.050   4.394   5.123 -0.3900  0.4215  0.3344
11920TIP3    H157175   4.047   4.455   5.197 -0.5417 -1.0720  1.5935
11920TIP3    H257176   4.125   4.337   5.142  0.8576  1.3305 -1.7394
11921TIP3   OH257177   2.548   3.590  14.189  0.0108 -0.0654  0.0957
11921TIP3    H157178   2.541   3.685  14.194  0.7573 -0.0137  0.2374
11921TIP3    H257179   2.641   3.573  14.174 -0.3879 -0.7149 -1.6917
11922TIP3   OH257180   5.234   6.239   3.934  0.4693 -0.6484  0.3808
11922TIP3    H157181   5.169   6.261   3.868  0.9415  1.1988  0.4876
11922TIP3    H257182   5.310   6.209   3.885  1.5371  2.5925 -0.0976
11923TIP3   OH257183   0.353   0.598  11.804  0.1738  0.3940 -0.0944
11923TIP3    H157184   0.278   0.585  11.862  1.8669 -0.5420  1.9524
11923TIP3    H257185   0.372   0.692  11.810 -1.9816  1.0129 -2.1446
11924TIP3   OH257186   5.250   2.809   6.326 -0.5137 -0.3687  0.2357
11924TIP3    H157187   5.220   2.892   6.289 -1.2111  0.0565  1.6925
11924TIP3    H257188   5.171   2.755   6.329 -0.2519 -0.7537  0.1325
11925TIP3   OH257189   6.138   5.706  16.929  0.6552 -0.0823 -0.1302
11925TIP3    H157190   6.220   5.660  16.948  1.8923  1.3898 -1.8067
11925TIP3    H257191   6.127   5.767  17.002  3.0542  2.3765 -1.7459
11926TIP3   OH257192   5.890   6.121   0.593  0.0502 -0.2866 -0.0289
11926TIP3    H157193   5.863   6.155   0.508 -0.4479  0.5492  0.4476
11926TIP3    H257194   5.841   6.174   0.656  0.0084 -1.2500  0.7630
11927TIP3   OH257195   5.241   5.958  10.315  0.5622  0.1153 -0.4470
11927TIP3    H157196   5.305   5.889  10.334  0.4653  0.5431  1.5136
11927TIP3    H257197   5.156   5.917  10.331  0.3986 -0.0220 -1.6414
11928TIP3   OH257198   2.967   0.014  11.810 -0.4527 -0.1148  0.3713
11928TIP3    H157199   2.881  -0.026  11.826  0.4752 -1.1082  3.1662
11928TIP3    H257200   3.030  -0.055  11.832  1.0936  1.3149  0.4881
11929TIP3   OH257201   1.946   2.637   2.590 -0.1684 -0.0311 -0.4314
11929TIP3    H157202   1.948   2.709   2.653  2.3522  0.6876 -1.2714
11929TIP3    H257203   1.894   2.569   2.633 -0.1995  1.2184  1.5741
11930TIP3   OH257204   5.672   1.462  16.710  0.3536 -0.3177 -0.3531
11930TIP3    H157205   5.622   1.539  16.681  0.3263 -0.1787  0.0610
11930TIP3    H257206   5.764   1.489  16.701  0.3538 -0.4669 -0.8256
11931TIP3   OH257207   4.509   2.179  13.380 -0.4355  0.2093 -0.0884
11931TIP3    H157208   4.522   2.154  13.289 -0.4444  2.2266 -0.6717
11931TIP3    H257209   4.596   2.175  13.419 -0.7737 -2.9156  0.4459
11932TIP3   OH257210   4.374   5.907  11.607 -0.1473  0.3446  0.0924
11932TIP3    H157211   4.408   5.934  11.521 -1.2169 -1.3812 -0.9190
11932TIP3    H257212   4.371   5.811  11.602 -0.9190  0.2614  1.7900
11933TIP3   OH257213   4.633   5.126  11.874 -0.1462 -0.2996  0.3455
11933TIP3    H157214   4.690   5.050  11.873  0.5642  0.2334 -0.8655
11933TIP3    H257215   4.625   5.149  11.967  1.6746 -0.3388  0.5308
11934TIP3   OH257216   2.642   2.361   5.120 -0.0248  0.0449  0.1224
11934TIP3    H157217   2.665   2.345   5.212  1.4719 -0.5343 -0.3407
11934TIP3    H257218   2.556   2.320   5.111 -1.2637  2.1505  1.8494
11935TIP3   OH257219   1.270   2.726   2.562 -0.0107  0.4008 -0.1295
11935TIP3    H157220   1.219   2.741   2.482  0.6731  2.8881 -0.1487
11935TIP3    H257221   1.213   2.672   2.616 -0.1695 -2.0221 -2.5736
11936TIP3   OH257222   4.839   5.115  12.282 -0.3362 -0.0866  0.3096
11936TIP3    H157223   4.891   5.042  12.248  1.1374  1.7546 -1.4729
11936TIP3    H257224   4.770   5.073  12.333  0.7670 -2.7132 -0.2857
11937TIP3   OH257225   3.437   4.645   1.539 -0.3381 -0.2761  0.6489
11937TIP3    H157226   3.378   4.648   1.614  1.3135  0.4237  1.9576
11937TIP3    H257227   3.460   4.737   1.524  3.0278 -0.7859  2.3081
11938TIP3   OH257228   0.690   0.790  16.266 -0.2249  0.0066 -0.4884
11938TIP3    H157229   0.645   0.874  16.272 -1.5608 -0.6901 -0.4422
11938TIP3    H257230   0.711   0.780  16.173 -0.9516 -0.0474 -0.6520
11939TIP3   OH257231   2.783   5.686   5.710 -0.2256 -0.1650  0.0593
11939TIP3    H157232   2.877   5.688   5.692 -0.4542  2.7447 -1.1277
11939TIP3    H257233   2.775   5.718   5.800 -0.0527 -0.6831  0.2575
11940TIP3   OH257234   0.141   5.745  15.527  0.4826  0.6686  0.0347
11940TIP3    H157235   0.173   5.799  15.599  2.1968 -0.1472 -0.1091
11940TIP3    H257236   0.099   5.670  15.569  0.3109  0.8508  0.1892
11941TIP3   OH257237   2.049   2.931   5.738  0.1099  0.3410 -0.6081
11941TIP3    H157238   2.102   2.989   5.792  0.5566  0.3642 -1.0638
11941TIP3    H257239   2.067   2.844   5.771  0.7009  0.3173 -0.9824
11942TIP3   OH257240   5.898   1.884  13.784 -0.2071  0.2047 -0.4242
11942TIP3    H157241   5.813   1.839  13.785 -0.0323 -0.1257 -0.4535
11942TIP3    H257242   5.902   1.928  13.869  0.0143 -0.5755 -0.0222
11943TIP3   OH257243   5.388   0.189  13.220 -0.0881 -0.0189 -0.6740
11943TIP3    H157244   5.318   0.137  13.182 -1.3526  2.5074 -1.9172
11943TIP3    H257245   5.362   0.200  13.312 -0.8979  0.1918 -0.9220
11944TIP3   OH257246   1.177   1.699   0.985  0.0347  0.0409  0.7193
11944TIP3    H157247   1.227   1.780   0.978 -0.7617  0.4992  0.2974
11944TIP3    H257248   1.217   1.653   1.059  1.5879  0.0293 -0.1071
11945TIP3   OH257249   6.291   4.944  16.453 -0.1207 -0.0471  0.4159
11945TIP3    H157250   6.222   4.920  16.391 -2.9434  2.6548  2.3649
11945TIP3    H257251   6.303   5.038  16.440  2.0403 -0.1917  1.2477
11946TIP3   OH257252   1.867   4.094  12.541  0.4756 -0.0174  0.1881
11946TIP3    H157253   1.841   4.003  12.552  1.0027 -0.0092  1.6670
11946TIP3    H257254   1.929   4.110  12.613 -0.9794  2.0101  1.0580
11947TIP3   OH257255   6.697   2.486  11.638  0.2060  0.3096  0.4970
11947TIP3    H157256   6.651   2.513  11.716 -2.0286 -1.1026 -0.2906
11947TIP3    H257257   6.733   2.567  11.601 -0.3521  1.2173  1.9399
11948TIP3   OH257258   2.749   3.357   1.719  0.6528 -0.4255 -0.0365
11948TIP3    H157259   2.721   3.360   1.627  0.2658  1.4200  0.1188
11948TIP3    H257260   2.811   3.429   1.727 -1.7807  1.5326  1.9089
11949TIP3   OH257261   6.780   6.044  15.898  0.5904 -0.3995 -0.1942
11949TIP3    H157262   6.820   6.131  15.894  1.1586 -0.6751 -0.6141
11949TIP3    H257263   6.691   6.057  15.865  0.6234  0.0510 -0.1107
11950TIP3   OH257264   1.924   0.695  14.053  0.1851 -0.2006  0.1877
11950TIP3    H157265   1.927   0.718  13.960  2.9296 -0.4894  0.1732
11950TIP3    H257266   1.840   0.651  14.064 -0.4094  0.3163 -2.0378
11951TIP3   OH257267   5.360   1.085  16.872 -0.4031  0.3296  0.7711
11951TIP3    H157268   5.274   1.089  16.915 -0.5133  0.5276  0.5321
11951TIP3    H257269   5.380   1.176  16.851 -0.5813  0.1822 -0.0568
11952TIP3   OH257270   3.615   1.239  12.292 -0.2561  0.7006  0.1192
11952TIP3    H157271   3.557   1.315  12.287 -0.4524  0.6937  1.8866
11952TIP3    H257272   3.556   1.165  12.310  0.2220  0.6036  1.3404
11953TIP3   OH257273   1.031   6.746  12.474 -0.4336 -0.3076  0.6561
11953TIP3    H157274   0.944   6.783  12.491 -1.1545 -1.0543 -1.2151
11953TIP3    H257275   1.086   6.821  12.456 -1.1010  0.0751  0.1881
11954TIP3   OH257276   1.050   2.937  13.049 -0.6595 -0.1207  0.2962
11954TIP3    H157277   1.113   2.999  13.012 -0.1610 -0.3597  0.7458
11954TIP3    H257278   1.062   2.857  12.997 -0.2910 -0.3050  0.6679
11955TIP3   OH257279   5.651   5.111   2.295  0.1732  0.3943 -0.5665
11955TIP3    H157280   5.585   5.099   2.364 -0.0575 -1.2462 -1.0453
11955TIP3    H257281   5.735   5.108   2.341 -0.0261  0.8152 -0.1687
11956TIP3   OH257282   0.759   5.754  13.713  0.3806 -0.2106 -0.0116
11956TIP3    H157283   0.752   5.689  13.783  0.1065 -2.7276 -2.3033
11956TIP3    H257284   0.679   5.742  13.661  0.7915  1.3061 -1.0210
11957TIP3   OH257285   4.308   3.133  11.906 -0.1537 -0.1277 -0.4509
11957TIP3    H157286   4.263   3.062  11.862 -1.3866  0.3432  0.0474
11957TIP3    H257287   4.265   3.141  11.991  1.6340 -0.4438  0.5096
11958TIP3   OH257288   3.140   1.232   6.925  0.2359 -0.0759 -0.3069
11958TIP3    H157289   3.123   1.318   6.962  1.0994 -0.5272  1.1890
11958TIP3    H257290   3.222   1.243   6.877 -0.4253  0.2886 -1.3772
11959TIP3   OH257291   4.571   1.871   3.925  0.2698 -0.1575  0.6162
11959TIP3    H157292   4.578   1.924   4.005  1.5761  1.5567 -0.6051
11959TIP3    H257293   4.502   1.913   3.874 -0.3208 -1.0434  0.6772
11960TIP3   OH257294   6.315   6.092   4.670  0.2092  0.3456  0.1992
11960TIP3    H157295   6.246   6.135   4.618  0.1662  0.5049  0.3877
11960TIP3    H257296   6.274   6.076   4.755  0.5223  0.7763  0.4346
11961TIP3   OH257297   3.500   5.208   3.760 -0.4360 -0.3618 -0.2935
11961TIP3    H157298   3.495   5.112   3.757 -0.1406 -0.3782 -0.2739
11961TIP3    H257299   3.430   5.238   3.701 -0.6135 -0.5863 -0.1990
11962TIP3   OH257300   3.277   5.707   4.040  0.1458 -0.1332  0.1951
11962TIP3    H157301   3.290   5.780   4.100 -0.0817 -1.5956  2.0710
11962TIP3    H257302   3.356   5.706   3.986 -0.8105  2.8461 -1.3943
11963TIP3   OH257303   1.899   3.947  12.097 -0.5011  0.1364 -0.1743
11963TIP3    H157304   1.817   3.928  12.052 -1.5411  0.5714  1.4973
11963TIP3    H257305   1.877   4.015  12.161  0.3040 -2.2196  2.7596
11964TIP3   OH257306   3.308   4.874  14.455 -0.1749  0.3126 -0.4779
11964TIP3    H157307   3.230   4.926  14.474 -0.5133 -0.4523  0.2612
11964TIP3    H257308   3.318   4.879  14.360 -0.9800  0.6079 -0.5509
11965TIP3   OH257309   6.092   5.157  15.360  0.5037  0.4019 -0.1987
11965TIP3    H157310   6.111   5.217  15.289 -1.1943  0.1674 -0.8747
11965TIP3    H257311   6.165   5.167  15.421  1.2823  1.5897 -1.3188
11966TIP3   OH257312   4.756   0.240   1.786 -0.0700  0.5766  0.3466
11966TIP3    H157313   4.764   0.216   1.878 -0.0584 -2.1645 -0.3164
11966TIP3    H257314   4.682   0.300   1.783  0.3008  1.1584  2.2174
11967TIP3   OH257315   1.660   2.629   3.252 -0.5965  0.1213 -0.1030
11967TIP3    H157316   1.683   2.712   3.295 -0.4017  0.4862 -0.8931
11967TIP3    H257317   1.684   2.562   3.315  2.1362  0.5155 -0.6505
11968TIP3   OH257318   4.339   3.871   6.134  0.6505 -0.1967  0.5757
11968TIP3    H157319   4.303   3.785   6.155 -0.9383  0.4615  0.6379
11968TIP3    H257320   4.393   3.894   6.209 -0.6495 -0.2081  1.5165
11969TIP3   OH257321   0.005   1.113   4.137 -0.2717 -0.3269 -0.2620
11969TIP3    H157322   0.034   1.169   4.209  0.4889 -1.8402  0.6347
11969TIP3    H257323   0.056   1.033   4.147 -2.6504 -1.9012 -0.4432
11970TIP3   OH257324   2.406   4.572   0.480 -0.1511 -0.1267  0.6843
11970TIP3    H157325   2.331   4.534   0.527  0.2397  0.1806  1.5627
11970TIP3    H257326   2.481   4.520   0.509 -0.0122 -0.4282 -0.1896
11971TIP3   OH257327   1.896   0.839   3.955 -0.4612 -0.0766  0.2502
11971TIP3    H157328   1.908   0.793   4.038  0.1699 -1.1770 -0.4449
11971TIP3    H257329   1.984   0.867   3.930 -0.4214 -1.1230 -0.8281
11972TIP3   OH257330   3.354   4.976   3.615  0.2476 -0.0316 -0.3521
11972TIP3    H157331   3.330   4.884   3.605  2.2449 -0.5861 -0.3489
11972TIP3    H257332   3.429   4.987   3.557  1.1855  1.1109  1.0322
11973TIP3   OH257333   6.536   0.399  14.760  0.1220 -0.4477  0.9757
11973TIP3    H157334   6.509   0.490  14.747  1.7288  0.3089  2.7491
11973TIP3    H257335   6.613   0.389  14.704  1.3415 -0.0144  2.5618
11974TIP3   OH257336   4.524   1.842  13.536 -0.3327  0.0377  0.2954
11974TIP3    H157337   4.455   1.908  13.538 -0.0787  0.3467 -0.9717
11974TIP3    H257338   4.553   1.834  13.627 -3.7083 -1.8722  1.2952
11975TIP3   OH257339   1.341   1.149   5.664 -0.2405 -0.0340 -0.5215
11975TIP3    H157340   1.251   1.131   5.637  0.1411  0.0552 -1.8697
11975TIP3    H257341   1.352   1.099   5.745 -1.5523  0.0824 -0.2638
11976TIP3   OH257342   0.936   6.221  12.924 -0.5171  0.1647 -0.1477
11976TIP3    H157343   0.866   6.240  12.863 -0.3619  1.0095 -0.0606
11976TIP3    H257344   0.950   6.302  12.972 -1.2800 -0.7488  1.6689
11977TIP3   OH257345   4.240   0.414  17.225  0.1661  0.0216 -0.6156
11977TIP3    H157346   4.202   0.340  17.273  1.7972 -0.0641  0.6098
11977TIP3    H257347   4.290   0.374  17.154  0.4127 -0.0158 -0.4210
11978TIP3   OH257348   1.891   3.985   3.778 -0.1723 -0.3056  0.0331
11978TIP3    H157349   1.945   4.059   3.750 -0.3492  0.4202  1.5627
11978TIP3    H257350   1.876   3.935   3.698 -0.6931  1.7364 -1.1893
11979TIP3   OH257351   2.263   6.382  13.312 -0.1724 -0.1285 -0.0648
11979TIP3    H157352   2.352   6.378  13.347  0.0825 -1.9298 -0.8531
11979TIP3    H257353   2.220   6.305  13.349  0.0059 -1.9173 -3.4041
11980TIP3   OH257354   4.088   3.535  13.712  0.0851  0.1917 -0.6203
11980TIP3    H157355   4.145   3.612  13.703  0.7345 -0.0329  1.2596
11980TIP3    H257356   4.005   3.570  13.743 -1.0043  0.5720 -3.8093
11981TIP3   OH257357   6.436   5.201  16.060 -0.1875 -0.4907  0.2552
11981TIP3    H157358   6.462   5.238  16.144 -1.4466 -0.6970  0.7470
11981TIP3    H257359   6.403   5.114  16.081 -0.1320 -0.7043 -0.5094
11982TIP3   OH257360   1.266   4.124  16.751  0.0071 -0.1090  0.3129
11982TIP3    H157361   1.272   4.200  16.810 -0.9140  0.2985 -0.1053
11982TIP3    H257362   1.244   4.051  16.809 -1.7710  0.4489  0.3779
11983TIP3   OH257363   5.744   2.568   1.748 -0.6958 -0.2718 -0.7436
11983TIP3    H157364   5.818   2.577   1.688  0.1300  0.0185  0.3137
11983TIP3    H257365   5.675   2.621   1.708  0.7037  2.1032 -0.0796
11984TIP3   OH257366   5.609   2.692   2.599  0.2409  0.4606 -0.3599
11984TIP3    H157367   5.525   2.648   2.590  1.0814 -1.7230  2.0254
11984TIP3    H257368   5.654   2.675   2.516 -1.4553  1.2248 -1.4510
11985TIP3   OH257369   4.264   2.926  16.871 -0.2758  0.1459 -0.0686
11985TIP3    H157370   4.184   2.916  16.821 -1.3727  0.0510  1.6651
11985TIP3    H257371   4.286   2.838  16.900  0.1908  0.2404 -0.1196
11986TIP3   OH257372   4.429   5.090  11.454  0.1964 -0.4602  0.1612
11986TIP3    H157373   4.389   5.088  11.366  0.4467 -1.2167  0.0618
11986TIP3    H257374   4.455   5.181  11.466 -0.6322 -0.1724 -0.1998
11987TIP3   OH257375   5.610   6.782  14.043  0.1923 -0.1359  0.0320
11987TIP3    H157376   5.619   6.774  13.948  0.7072 -0.0985  0.0732
11987TIP3    H257377   5.655   6.864  14.065 -1.6158  0.8529  0.0848
11988TIP3   OH257378   5.762   3.011   3.710 -0.3938  0.6503  0.1442
11988TIP3    H157379   5.678   3.008   3.663  0.0743  1.0769 -0.7306
11988TIP3    H257380   5.739   2.991   3.801 -1.1216 -1.5621 -0.5092
11989TIP3   OH257381   6.404   4.716   5.997  0.5247  0.2544  0.3043
11989TIP3    H157382   6.409   4.795   6.050  0.3681  0.8442 -0.5402
11989TIP3    H257383   6.344   4.659   6.044 -0.4309  1.1858  0.2445
11990TIP3   OH257384   2.295   0.976  15.348 -0.0441 -0.1825  0.0317
11990TIP3    H157385   2.288   0.908  15.280  0.9494  1.1587 -1.4293
11990TIP3    H257386   2.329   0.930  15.424 -0.4625 -1.5671 -0.5974
11991TIP3   OH257387   3.310   2.831   3.820  0.4055 -0.4429  0.2269
11991TIP3    H157388   3.300   2.908   3.764 -0.2484 -1.6056 -1.2624
11991TIP3    H257389   3.220   2.803   3.838  0.6495 -1.1053  0.4347
11992TIP3   OH257390   4.787   6.786  12.259 -0.5245  0.0124 -0.3007
11992TIP3    H157391   4.817   6.768  12.170 -3.2796 -2.6370 -0.7675
11992TIP3    H257392   4.698   6.820  12.247 -0.2988  1.2664  1.3902
11993TIP3   OH257393   0.027   3.229   5.373  0.0166  0.0090 -0.1532
11993TIP3    H157394   0.016   3.145   5.327  0.6555  1.3959 -2.9488
11993TIP3    H257395   0.114   3.259   5.348 -0.7284  2.1354 -0.3289
11994TIP3   OH257396   2.679   1.796  13.283  0.0075  0.0271 -0.1306
11994TIP3    H157397   2.769   1.774  13.262  0.5439  2.7811 -0.8623
11994TIP3    H257398   2.651   1.855  13.213 -2.0506 -0.0230  0.5975
11995TIP3   OH257399   5.614   0.249  14.381  0.2986  0.6004  0.3576
11995TIP3    H157400   5.596   0.155  14.374 -0.1404  0.6959  0.1506
11995TIP3    H257401   5.576   0.274  14.465 -0.0456  0.6897  0.1801
11996TIP3   OH257402   1.442   1.807   2.314 -0.1400  0.2297  0.5015
11996TIP3    H157403   1.395   1.877   2.268 -0.5061 -1.1345 -1.2605
11996TIP3    H257404   1.525   1.800   2.267 -1.0217 -2.0246 -0.7961
11997TIP3   OH257405   0.980   3.873   0.095 -0.5449  0.0873 -0.0825
11997TIP3    H157406   1.053   3.864   0.156 -0.9053 -0.8236  0.2241
11997TIP3    H257407   0.902   3.858   0.148 -0.9606  1.0814 -0.4051
11998TIP3   OH257408   1.419   1.668  16.073 -0.0549 -0.3643 -0.2758
11998TIP3    H157409   1.487   1.697  16.012  0.2896  0.2084  0.3728
11998TIP3    H257410   1.339   1.666  16.021  0.0406  1.1569 -0.4919
11999TIP3   OH257411   1.557   0.983   5.202  0.1675 -0.5728  0.8237
11999TIP3    H157412   1.491   0.942   5.258  1.2142 -2.0277  1.0158
11999TIP3    H257413   1.540   1.077   5.210 -3.0785 -0.9927 -0.6323
12000TIP3   OH257414   0.118   4.896   4.617  0.2007 -0.1125  0.0714
12000TIP3    H157415   0.079   4.951   4.549 -0.0333  2.6098  2.3490
12000TIP3    H257416   0.179   4.954   4.663  0.7817 -2.0612  1.8238
12001TIP3   OH257417   2.658   1.458   1.627  0.2731  0.4659  0.1437
12001TIP3    H157418   2.659   1.411   1.711 -1.7729  0.8220  0.3885
12001TIP3    H257419   2.588   1.416   1.577  0.5776  1.1511 -0.8770
12002TIP3   OH257420   0.790   2.341  16.711  0.0007  0.2887  0.1862
12002TIP3    H157421   0.721   2.398  16.747  0.2724 -0.2155  1.5217
12002TIP3    H257422   0.833   2.395  16.646 -3.1144 -0.1125 -2.3333
12003TIP3   OH257423   3.390   3.178   0.445 -0.0982 -0.2876  0.4413
12003TIP3    H157424   3.394   3.159   0.351  1.7202 -1.0844  0.6633
12003TIP3    H257425   3.421   3.268   0.453 -0.3719 -0.1771  0.2680
12004TIP3   OH257426   6.556   0.062   3.509 -0.2334 -0.1724 -0.5668
12004TIP3    H157427   6.648   0.046   3.529 -0.9460 -1.5178  1.7846
12004TIP3    H257428   6.524  -0.021   3.475 -1.3185 -0.6666  1.5847
12005TIP3   OH257429   5.528   6.180  12.216  0.0611  0.1910 -0.1981
12005TIP3    H157430   5.531   6.189  12.311 -0.0465 -1.6833  0.0078
12005TIP3    H257431   5.619   6.188  12.187  0.7977 -4.1210  0.6057
12006TIP3   OH257432   4.878   4.895   4.389 -0.7388  0.1038 -0.1874
12006TIP3    H157433   4.853   4.803   4.394  1.0130 -0.4216 -0.8098
12006TIP3    H257434   4.848   4.933   4.471 -2.1661 -0.8370 -0.2588
12007TIP3   OH257435   1.901   4.964   4.114 -0.6630  0.2591 -0.1069
12007TIP3    H157436   1.817   4.918   4.116  0.7113 -2.3246  0.6455
12007TIP3    H257437   1.916   4.989   4.206 -0.4449  0.4202 -0.1864
12008TIP3   OH257438   4.888   2.462  12.461  0.2775 -0.0423 -0.4623
12008TIP3    H157439   4.887   2.545  12.510  0.5316 -0.0497 -0.4469
12008TIP3    H257440   4.807   2.465  12.409  0.1511  0.0941 -0.2583
12009TIP3   OH257441   5.689   0.619   0.074  0.0130 -0.1955  0.7293
12009TIP3    H157442   5.631   0.604   0.148 -0.7692 -0.1983  0.1246
12009TIP3    H257443   5.707   0.532   0.039  1.5950 -0.3237  1.8142
12010TIP3   OH257444   5.312   1.006   2.972  0.0137  0.1536 -0.3654
12010TIP3    H157445   5.340   1.096   2.992  2.6774 -0.6922 -0.1162
12010TIP3    H257446   5.335   0.956   3.050 -2.0396 -0.6469 -0.2629
12011TIP3   OH257447   2.568   6.190   0.816 -0.7701  0.0129  0.5292
12011TIP3    H157448   2.660   6.196   0.843 -0.0088 -2.3080 -1.4107
12011TIP3    H257449   2.542   6.281   0.802  2.4617  0.5704 -2.6858
12012TIP3   OH257450   0.237   1.771   4.787  0.3734 -0.0036 -0.1045
12012TIP3    H157451   0.236   1.787   4.881 -0.9165  0.1138 -0.1230
12012TIP3    H257452   0.329   1.766   4.764  0.7103  0.9885  0.9926
12013TIP3   OH257453   0.848   4.814  16.520  0.2946  0.5610 -0.0067
12013TIP3    H157454   0.792   4.883  16.555  1.1681  1.8559 -1.0941
12013TIP3    H257455   0.843   4.743  16.584  0.1490  2.0072  1.6063
12014TIP3   OH257456   2.068   2.501  12.765 -0.2743 -0.2088 -0.2193
12014TIP3    H157457   1.985   2.549  12.772  1.5265  3.4676 -2.2080
12014TIP3    H257458   2.104   2.504  12.853 -0.8933  0.8600  0.0157
12015TIP3   OH257459   1.014   4.145   4.216  0.5639  0.0180  0.3830
12015TIP3    H157460   0.949   4.197   4.169  0.1984  0.1205  0.9911
12015TIP3    H257461   1.099   4.181   4.189  0.4060 -0.6753 -1.0667
12016TIP3   OH257462   2.483   0.073   4.002  0.4271 -0.1858  0.0554
12016TIP3    H157463   2.407   0.030   4.041  0.5696 -0.6297 -0.1580
12016TIP3    H257464   2.525   0.119   4.075  0.7933 -1.1554  0.4543
12017TIP3   OH257465   0.138   6.514   0.855  0.5197 -0.1284  0.2118
12017TIP3    H157466   0.074   6.573   0.894 -0.2706 -0.4703 -0.5433
12017TIP3    H257467   0.166   6.458   0.926 -0.5130 -0.4036  0.4046
12018TIP3   OH257468   1.297   3.441  13.106  0.0605  0.6435  0.3663
12018TIP3    H157469   1.326   3.450  13.015 -1.8293  1.4155 -0.2014
12018TIP3    H257470   1.349   3.505  13.154 -1.6239  3.0233 -0.8589
12019TIP3   OH257471   2.657   4.058   2.925 -0.1040 -0.0856  0.4500
12019TIP3    H157472   2.620   4.122   2.986 -0.7166  0.7502 -0.7732
12019TIP3    H257473   2.750   4.080   2.922 -0.7484  2.7578 -2.2089
12020TIP3   OH257474   0.561   6.054   3.986  0.0248 -0.2201 -0.5558
12020TIP3    H157475   0.592   6.014   3.905  0.2555 -3.2723  0.9617
12020TIP3    H257476   0.469   6.028   3.992  0.1204 -0.3749  0.3445
12021TIP3   OH257477   1.941   5.328   1.358  0.0429  0.5435 -0.1537
12021TIP3    H157478   1.969   5.257   1.416  0.6551  0.7109 -0.2386
12021TIP3    H257479   1.846   5.320   1.356  0.1656 -0.9394 -1.0117
12022TIP3   OH257480   1.747   5.655   0.673 -0.5826 -0.1798  0.0977
12022TIP3    H157481   1.670   5.618   0.716 -0.1114  0.0372  1.1475
12022TIP3    H257482   1.808   5.674   0.745  0.2330  0.1562 -0.6698
12023TIP3   OH257483   5.493   4.985   1.864 -0.1169  0.4521 -0.1900
12023TIP3    H157484   5.547   5.028   1.797  0.9737 -0.0416  0.3509
12023TIP3    H257485   5.406   5.022   1.852  0.1374  0.6082 -1.6679
12024TIP3   OH257486   4.188   2.332   5.248  0.1774 -0.6327 -0.0110
12024TIP3    H157487   4.164   2.250   5.291 -0.1486 -1.1406 -1.1506
12024TIP3    H257488   4.280   2.345   5.270  0.1295 -1.1056  0.4815
12025TIP3   OH257489   0.652   6.785   6.118 -0.3626 -0.8715  0.0750
12025TIP3    H157490   0.723   6.727   6.091  0.6738  0.3577  0.0984
12025TIP3    H257491   0.694   6.870   6.131 -2.0292  0.1293 -0.9248
12026TIP3   OH257492   4.688   1.778  16.514  0.2347  0.1621  0.2884
12026TIP3    H157493   4.672   1.872  16.514  0.2436  0.1658 -0.6518
12026TIP3    H257494   4.717   1.759  16.603 -0.3729  0.9428  0.6613
12027TIP3   OH257495   6.596   5.879   3.822  0.4340  0.1789 -0.0609
12027TIP3    H157496   6.547   5.959   3.841 -1.5346 -1.3146  1.3209
12027TIP3    H257497   6.540   5.830   3.761 -0.1961 -1.9060  2.1353
12028TIP3   OH257498   3.483   2.074  15.264  0.0713  0.4971 -0.5126
12028TIP3    H157499   3.455   2.125  15.188 -0.7129  1.1407  0.1919
12028TIP3    H257500   3.428   1.996  15.262  0.4792  0.2215 -0.9524
12029TIP3   OH257501   1.426   0.095   6.121  0.1142  0.2787  0.5690
12029TIP3    H157502   1.342   0.105   6.166  1.0998  0.9964  2.3134
12029TIP3    H257503   1.451   0.004   6.136 -0.7660 -0.1952 -0.7373
12030TIP3   OH257504   0.164   3.425   4.632 -0.0231 -0.0376 -0.0665
12030TIP3    H157505   0.191   3.348   4.582 -0.6191  0.0811 -0.5744
12030TIP3    H257506   0.244   3.477   4.640  0.3271 -0.5763  0.0594
12031TIP3   OH257507   5.659   5.671  14.956 -0.3568  0.2048  0.0144
12031TIP3    H157508   5.731   5.626  14.911  0.0574  0.6763  0.1949
12031TIP3    H257509   5.599   5.697  14.886  0.3354  1.0249 -0.2883
12032TIP3   OH257510   4.863   3.735  12.311 -0.0501 -0.0970  0.5556
12032TIP3    H157511   4.799   3.795  12.348  1.2996  1.7332  0.0468
12032TIP3    H257512   4.815   3.653  12.297 -2.3779  1.3338 -0.1959
12033TIP3   OH257513   2.998   4.883   0.743  0.2699 -0.2437 -0.1000
12033TIP3    H157514   2.949   4.817   0.692 -0.5495  0.1799  0.1319
12033TIP3    H257515   2.945   4.962   0.736  1.8235  0.7000 -1.2989
12034TIP3   OH257516   5.009   2.423   2.974 -0.2332  0.0144 -0.2625
12034TIP3    H157517   4.981   2.512   2.953  0.2828  0.0990 -0.5987
12034TIP3    H257518   4.994   2.415   3.068 -1.1286  0.1480 -0.3874
12035TIP3   OH257519   0.771   4.922  14.214 -0.1096 -0.0713 -0.9131
12035TIP3    H157520   0.676   4.935  14.215  0.1695  2.1657  0.7374
12035TIP3    H257521   0.803   4.984  14.149  0.5113  1.9804  1.2582
12036TIP3   OH257522   6.546   6.121  15.800  0.2472 -0.1020  0.0427
12036TIP3    H157523   6.515   6.040  15.761 -0.0567 -0.4566  0.9930
12036TIP3    H257524   6.570   6.176  15.726 -0.0546 -0.8587 -0.6252
12037TIP3   OH257525   6.073   2.715  13.212  0.5147  0.2310 -0.1579
12037TIP3    H157526   6.040   2.767  13.139  1.2590 -0.0833 -0.7312
12037TIP3    H257527   6.020   2.635  13.211  1.4882 -0.4207 -1.2834
12038TIP3   OH257528   4.792   2.609  15.804  0.1545 -0.1703 -0.9070
12038TIP3    H157529   4.786   2.695  15.764 -0.3503 -0.7383 -2.0596
12038TIP3    H257530   4.870   2.569  15.766 -0.8773 -1.0951 -2.0994
12039TIP3   OH257531   2.430   4.907   5.631  0.1187  0.1536 -0.2824
12039TIP3    H157532   2.450   4.915   5.724 -1.5881 -0.7814  0.1875
12039TIP3    H257533   2.432   4.997   5.599  2.0925  0.3544  0.3381
12040TIP3   OH257534   3.194   6.047   3.666  0.3380 -0.1179 -0.5380
12040TIP3    H157535   3.226   6.106   3.597 -0.7781 -0.4622 -1.3506
12040TIP3    H257536   3.261   5.979   3.671 -0.0038 -0.5792 -1.9161
12041TIP3   OH257537   4.140   3.745  12.098  0.1537  0.4870  0.6941
12041TIP3    H157538   4.097   3.815  12.148  2.9196  1.6577  1.4882
12041TIP3    H257539   4.140   3.777  12.008 -1.2215  0.1674  0.5661
12042TIP3   OH257540   3.321   2.814   0.485 -0.2401 -0.4798  0.2933
12042TIP3    H157541   3.311   2.890   0.429 -1.6974  0.1942  1.4218
12042TIP3    H257542   3.364   2.847   0.564  0.5066 -1.1216  0.1549
12043TIP3   OH257543   4.244   3.687   2.254 -0.3766  0.1310  0.9149
12043TIP3    H157544   4.182   3.615   2.270  2.1733 -2.2778  0.2911
12043TIP3    H257545   4.329   3.644   2.247  1.3349  3.3429  1.3565
12044TIP3   OH257546   3.808   4.789   6.324 -0.0047  0.1413  0.0018
12044TIP3    H157547   3.789   4.715   6.383  0.0092  0.8389  0.8955
12044TIP3    H257548   3.861   4.848   6.377  2.0486 -0.3127 -1.4741
12045TIP3   OH257549   3.655   2.823   5.496 -0.0993  0.0582  0.0743
12045TIP3    H157550   3.568   2.864   5.494 -0.1843 -0.1080  0.3800
12045TIP3    H257551   3.716   2.896   5.485 -0.2938  0.1212 -0.5864
12046TIP3   OH257552   5.553   1.633   0.227  0.9237  0.0732  0.3207
12046TIP3    H157553   5.485   1.569   0.251  0.5643  0.4521  0.3192
12046TIP3    H257554   5.601   1.648   0.308  0.3809  0.5496  0.5567
12047TIP3   OH257555   5.051   0.168   1.958 -0.8226  0.5695 -0.0605
12047TIP3    H157556   5.003   0.243   1.992  0.6495  1.2653  0.5500
12047TIP3    H257557   5.126   0.159   2.017 -1.5731 -2.0833  0.5475
12048TIP3   OH257558   3.723   6.269   5.189  0.4176 -0.2593  0.0860
12048TIP3    H157559   3.665   6.345   5.189 -0.7427 -1.1131 -1.2917
12048TIP3    H257560   3.804   6.301   5.150  0.0831  0.3772 -0.0914
12049TIP3   OH257561   3.680   0.130  16.423 -0.0089  0.0820 -0.3667
12049TIP3    H157562   3.695   0.225  16.430  1.4074 -0.0433 -1.4832
12049TIP3    H257563   3.589   0.118  16.450  0.4063  1.5150  1.8257
12050TIP3   OH257564   6.006   2.002  16.699 -0.4797  0.6425  0.0460
12050TIP3    H157565   6.092   1.992  16.740 -0.9638  1.7652  1.3922
12050TIP3    H257566   5.945   1.957  16.758 -0.9256  0.5883 -0.4488
12051TIP3   OH257567   2.231   0.084  15.182 -1.0443  0.0466 -0.1258
12051TIP3    H157568   2.282   0.004  15.192  0.7020  1.0600 -0.6902
12051TIP3    H257569   2.141   0.058  15.202 -0.7243 -2.3415 -1.6546
12052TIP3   OH257570   3.671   0.130   0.301 -0.6775  0.0370 -0.3577
12052TIP3    H157571   3.719   0.157   0.379  2.0547  0.2489 -2.0566
12052TIP3    H257572   3.628   0.211   0.271  1.1660  0.7753 -1.0596
12053TIP3   OH257573   1.241   3.692  14.090 -0.1784 -0.3498  0.0040
12053TIP3    H157574   1.297   3.613  14.089  1.5744  0.8525  0.4612
12053TIP3    H257575   1.214   3.701  14.181  1.1153  0.5889  0.3043
12054TIP3   OH257576   2.124   1.622   4.274  0.0971 -0.4957  0.2949
12054TIP3    H157577   2.071   1.571   4.336 -1.3420 -1.1673 -1.4515
12054TIP3    H257578   2.061   1.674   4.226  1.3966  1.5300  0.7204
12055TIP3   OH257579   4.442   3.468   0.623  0.7805 -0.3701 -0.1972
12055TIP3    H157580   4.447   3.562   0.642  1.6144  0.0186 -2.2282
12055TIP3    H257581   4.361   3.458   0.573  0.5823 -0.7723  0.2004
12056TIP3   OH257582   0.672   4.583   1.028  0.0070 -0.3530  0.3782
12056TIP3    H157583   0.619   4.552   1.101 -1.5452 -2.2756 -1.4884
12056TIP3    H257584   0.620   4.654   0.990 -0.2300 -0.8008 -0.1471
12057TIP3   OH257585   0.723   1.406   1.693 -0.0423 -0.0324 -0.0624
12057TIP3    H157586   0.756   1.461   1.622 -0.4408 -0.0318 -0.2488
12057TIP3    H257587   0.692   1.468   1.759 -0.0329 -0.0339 -0.0565
12058TIP3   OH257588   4.481   2.329  11.794  0.0727 -1.0621  0.5900
12058TIP3    H157589   4.543   2.357  11.861  0.5047 -0.6684  0.0330
12058TIP3    H257590   4.459   2.409  11.746 -0.1234 -1.3601  0.1727
12059TIP3   OH257591   1.106   1.143   5.252 -0.4624 -0.4508  0.2435
12059TIP3    H157592   1.105   1.085   5.175 -3.6735 -0.9017  0.5671
12059TIP3    H257593   1.081   1.086   5.325 -2.0797  0.9662  0.8275
12060TIP3   OH257594   0.070   1.970   3.293  0.2541  0.0388 -0.5655
12060TIP3    H157595   0.165   1.974   3.286  0.3581  0.6577  0.9026
12060TIP3    H257596   0.046   2.045   3.348 -1.1165  0.1325 -1.2582
12061TIP3   OH257597   1.912   0.973   1.665 -0.3615  0.8041 -0.2705
12061TIP3    H157598   2.004   0.960   1.642 -0.7582  0.4721 -1.6749
12061TIP3    H257599   1.890   1.060   1.631 -0.9685  0.2807 -1.2409
12062TIP3   OH257600   1.117   0.328   5.053 -0.4388  0.4582 -0.3558
12062TIP3    H157601   1.210   0.348   5.040 -0.0412 -1.3006 -0.3699
12062TIP3    H257602   1.072   0.410   5.034  1.0918  1.2566 -0.6318
12063TIP3   OH257603   4.485   1.949  13.786 -0.5413  0.1103 -0.0962
12063TIP3    H157604   4.395   1.981  13.789 -0.1021  1.2576  1.6616
12063TIP3    H257605   4.509   1.938  13.877  0.2560 -2.6826 -0.6144
12064TIP3   OH257606   1.348   6.174  15.198  0.3187 -0.2365  0.3230
12064TIP3    H157607   1.330   6.252  15.250  1.5449 -0.6405  1.3710
12064TIP3    H257608   1.410   6.123  15.251  1.1230 -0.9376 -1.2536
12065TIP3   OH257609   1.726   5.812  13.735  0.4310  0.4116  1.1061
12065TIP3    H157610   1.665   5.791  13.806 -0.6763 -0.4035 -0.0527
12065TIP3    H257611   1.812   5.811  13.776 -0.1579 -0.3922  2.3703
12066TIP3   OH257612   1.095   0.123   0.141 -0.3839 -0.0115 -0.6997
12066TIP3    H157613   1.090   0.175   0.061 -2.0892 -1.3846 -1.5317
12066TIP3    H257614   1.012   0.141   0.187 -1.2993 -2.4617 -1.3338
12067TIP3   OH257615   3.884   2.246  11.432 -0.0387 -0.2587  0.2952
12067TIP3    H157616   3.881   2.340  11.415  2.0373 -0.1538  0.4679
12067TIP3    H257617   3.947   2.211  11.369 -1.1251 -1.6127 -0.0679
12068TIP3   OH257618   2.223   2.932  10.561  0.0875  0.1954  0.3236
12068TIP3    H157619   2.308   2.894  10.541  0.6175  1.1656  0.6725
12068TIP3    H257620   2.161   2.860  10.550  0.8474 -0.3047 -0.7598
12069TIP3   OH257621   4.977   3.476  12.016  0.2652  0.7327 -0.3530
12069TIP3    H157622   5.021   3.396  11.988  0.3528  0.3356  0.8534
12069TIP3    H257623   4.884   3.459  12.003  0.3068  0.5740 -0.4375
12070TIP3   OH257624   3.277   5.715  14.277 -0.4802  0.1723 -0.4313
12070TIP3    H157625   3.265   5.794  14.330  3.1013  0.0988  0.5870
12070TIP3    H257626   3.217   5.727  14.203 -0.6103  3.4440  0.1180
12071TIP3   OH257627   5.181   0.113  14.609  0.2429 -0.4884  0.1165
12071TIP3    H157628   5.189   0.061  14.529 -0.5243 -0.3716 -0.0377
12071TIP3    H257629   5.248   0.077  14.668  0.6376 -0.7406 -0.4827
12072TIP3   OH257630   2.305   3.517   3.106 -0.2930  0.1728  0.1742
12072TIP3    H157631   2.243   3.446   3.117  0.7817 -0.8489 -0.2166
12072TIP3    H257632   2.350   3.523   3.190  0.2534 -0.2298 -0.0870
12073TIP3   OH257633   4.362   1.471   2.446  0.1460 -0.0224 -0.5412
12073TIP3    H157634   4.452   1.476   2.412  0.5591 -1.1487  0.3689
12073TIP3    H257635   4.328   1.389   2.411 -1.3995  1.5508 -2.9108
12074TIP3   OH257636   6.290   4.107  15.263 -0.0599  0.6688 -0.2342
12074TIP3    H157637   6.308   4.201  15.255 -0.5820  0.8757  0.9691
12074TIP3    H257638   6.367   4.064  15.225  0.2873  1.5815 -0.5688
12075TIP3   OH257639   0.977   3.342  14.273 -0.4893  0.3685 -0.0283
12075TIP3    H157640   0.920   3.407  14.232 -1.9617  0.1886  1.6677
12075TIP3    H257641   1.034   3.393  14.330  0.8809  0.5134 -1.4749
12076TIP3   OH257642   4.822   3.314   0.420  0.0268 -0.2111 -0.0094
12076TIP3    H157643   4.785   3.377   0.359 -2.2863 -1.0906  0.4054
12076TIP3    H257644   4.753   3.301   0.485  2.5542  0.9902  3.0434
12077TIP3   OH257645   5.840   2.355   3.891 -0.3423 -0.5563 -0.1802
12077TIP3    H157646   5.774   2.340   3.959 -0.0490 -0.1481  0.1973
12077TIP3    H257647   5.879   2.268   3.875 -0.5450 -0.6862  0.0347
12078TIP3   OH257648   2.044   1.898  12.396  0.3078 -0.4218 -0.0688
12078TIP3    H157649   2.126   1.938  12.422 -0.7704 -0.9959  4.5380
12078TIP3    H257650   2.070   1.823  12.342  2.7163  0.0623  0.3823
12079TIP3   OH257651   6.241   3.368   5.078 -0.1194 -0.0718 -0.2119
12079TIP3    H157652   6.156   3.373   5.035 -0.2266  0.1201  0.0218
12079TIP3    H257653   6.224   3.323   5.160 -0.3245  1.5080  0.6441
12080TIP3   OH257654   0.260   5.050   4.803  0.1104  0.5286 -0.2319
12080TIP3    H157655   0.259   5.085   4.893 -0.2338 -0.6643  0.2351
12080TIP3    H257656   0.344   5.078   4.768  0.1694  1.1687  0.4026
12081TIP3   OH257657   0.345   2.283  14.862 -0.6033  0.1743  0.1209
12081TIP3    H157658   0.359   2.210  14.921 -2.1655 -0.5584 -0.3977
12081TIP3    H257659   0.284   2.340  14.908  0.8397  1.3241  0.6525
12082TIP3   OH257660   6.613   3.067  13.340 -0.1579 -0.1686 -0.6626
12082TIP3    H157661   6.589   3.011  13.414 -1.7366  1.1885 -0.1039
12082TIP3    H257662   6.679   3.127  13.376  0.3373 -0.6140 -0.8231
12083TIP3   OH257663   5.249   3.792   2.116  0.6340 -0.1705 -0.5824
12083TIP3    H157664   5.304   3.843   2.057 -0.8254  0.8771 -1.0819
12083TIP3    H257665   5.159   3.816   2.091 -0.0298 -1.2044  0.7550
12084TIP3   OH257666   2.222   4.572   1.317 -0.0454  0.1795  0.9457
12084TIP3    H157667   2.235   4.606   1.228  0.6213 -3.4089 -0.4016
12084TIP3    H257668   2.128   4.556   1.323 -0.0551  0.1770  0.7875
12085TIP3   OH257669   2.373   0.473   3.197  0.4175  0.1534  0.0705
12085TIP3    H157670   2.375   0.545   3.134 -1.3456  1.4996  1.5078
12085TIP3    H257671   2.318   0.505   3.268  1.1832 -1.9022  1.6257
12086TIP3   OH257672   2.880   4.766   3.100 -0.4053  0.0998  0.5035
12086TIP3    H157673   2.934   4.806   3.032 -1.2667  0.1180 -0.1746
12086TIP3    H257674   2.850   4.684   3.061 -2.0607  0.7756  0.3148
12087TIP3   OH257675   0.959   3.733  11.441  0.7604 -0.1347 -0.7704
12087TIP3    H157676   1.029   3.727  11.376  0.4662  0.7204 -1.1802
12087TIP3    H257677   0.907   3.653  11.429  1.3764 -0.5272 -0.8034
12088TIP3   OH257678   6.106   5.253   4.799 -0.1879 -0.0750 -0.0316
12088TIP3    H157679   6.160   5.229   4.875  1.9028 -1.0664 -1.7797
12088TIP3    H257680   6.016   5.240   4.829  0.5809  0.1227  2.4673
12089TIP3   OH257681   5.206   5.066   4.987  0.0251 -0.7138 -0.0402
12089TIP3    H157682   5.266   5.002   5.025 -0.3421 -0.6288  0.6953
12089TIP3    H257683   5.167   5.020   4.913  0.1952 -1.1450  0.1332
12090TIP3   OH257684   4.142   0.928   4.032  0.5151  0.3535 -0.0219
12090TIP3    H157685   4.114   0.837   4.023  1.0278  0.0689  1.2163
12090TIP3    H257686   4.061   0.979   4.027  0.3001 -0.0944 -1.5271
12091TIP3   OH257687   6.574   6.320  17.124  0.4385 -0.0360  0.2863
12091TIP3    H157688   6.497   6.300  17.070 -0.4695  3.1491  0.2918
12091TIP3    H257689   6.649   6.302  17.067 -0.3979 -0.5228 -0.6816
12092TIP3   OH257690   2.138   0.033  12.722 -0.3120 -0.1217  0.4168
12092TIP3    H157691   2.180  -0.051  12.703 -1.1296  0.0808 -2.3677
12092TIP3    H257692   2.070   0.012  12.786 -2.2774 -2.0591 -2.2333
12093TIP3   OH257693   6.626   2.872   2.542 -0.0985  0.2219  0.5778
12093TIP3    H157694   6.565   2.841   2.476  0.0750  1.7451 -0.3244
12093TIP3    H257695   6.691   2.923   2.493 -0.3065  1.8656  1.9707
12094TIP3   OH257696   4.579   3.050   4.996  0.9276 -0.3998  0.3816
12094TIP3    H157697   4.508   3.026   4.936 -0.3181 -1.0364  2.0501
12094TIP3    H257698   4.658   3.011   4.957  0.4171  0.5324 -1.6244
12095TIP3   OH257699   5.419   1.217   2.731 -0.1656 -0.0435  0.2294
12095TIP3    H157700   5.421   1.244   2.823 -0.0254 -0.1292  0.2497
12095TIP3    H257701   5.452   1.128   2.731 -4.4371 -1.7764  0.7218
12096TIP3   OH257702   3.107   0.102  14.718  0.9120  0.5473 -0.5332
12096TIP3    H157703   3.151   0.028  14.761  0.0853 -0.4712 -1.4228
12096TIP3    H257704   3.131   0.093  14.626 -2.8517 -1.2639 -1.4104
12097TIP3   OH257705   2.648   2.422   1.283  0.2700 -0.0776 -0.7240
12097TIP3    H157706   2.633   2.474   1.362  0.2519 -1.1283 -0.0274
12097TIP3    H257707   2.605   2.473   1.213 -1.2176  0.0143  0.2239
12098TIP3   OH257708   6.297   1.566  11.523 -0.0249  0.0293 -0.5869
12098TIP3    H157709   6.308   1.525  11.437  2.3809  1.4464 -0.9885
12098TIP3    H257710   6.339   1.651  11.515 -1.7855  1.1314  1.3332
12099TIP3   OH257711   3.365   3.289  12.069  0.6076 -0.3301  0.2777
12099TIP3    H157712   3.424   3.220  12.101  0.8990  0.1407  0.7685
12099TIP3    H257713   3.420   3.342  12.011  0.4117 -0.4471 -0.0154
12100TIP3   OH257714   4.170   3.116  17.053 -0.2559  0.0548  0.1346
12100TIP3    H157715   4.232   3.072  16.994 -0.4474 -0.3693  0.2475
12100TIP3    H257716   4.204   3.097  17.141  1.0171  2.1339  0.1360
12101TIP3   OH257717   2.383   1.819   0.522  0.6683  0.1160 -0.5516
12101TIP3    H157718   2.388   1.809   0.618 -0.4004 -0.3152 -0.5312
12101TIP3    H257719   2.357   1.910   0.510  0.2032  0.0067 -0.4046
12102TIP3   OH257720   5.385   5.386   1.766 -0.2994 -0.2032 -0.5348
12102TIP3    H157721   5.470   5.382   1.721 -0.2814 -0.4132 -0.4812
12102TIP3    H257722   5.330   5.440   1.709  0.3052  1.1602  0.1410
12103TIP3   OH257723   3.168   5.946  15.434  0.0219 -0.2164 -0.7448
12103TIP3    H157724   3.077   5.945  15.404 -0.7477  0.4511  1.4660
12103TIP3    H257725   3.208   6.019  15.388 -0.8995  0.2392 -0.8318
12104TIP3   OH257726   3.166   5.909   3.119 -0.2166  0.3684 -0.3566
12104TIP3    H157727   3.248   5.898   3.167 -0.6082 -1.5912 -0.1202
12104TIP3    H257728   3.166   5.840   3.053 -1.8953  0.0276 -0.0320
12105TIP3   OH257729   2.610   5.386  15.587  0.5834 -0.5678  0.2396
12105TIP3    H157730   2.613   5.476  15.557  0.6721 -0.8584 -0.6544
12105TIP3    H257731   2.679   5.380  15.654  1.1784 -0.1959 -0.3307
12106TIP3   OH257732   0.523   6.142  13.487 -0.2965  0.8871 -0.7671
12106TIP3    H157733   0.557   6.183  13.407  1.1511  1.4203  0.0960
12106TIP3    H257734   0.544   6.204  13.557 -1.0644  0.1797  0.1076
12107TIP3   OH257735   2.651   6.178   3.480 -0.5418  0.6764  0.0573
12107TIP3    H157736   2.716   6.225   3.532 -0.4065  0.9022 -0.3174
12107TIP3    H257737   2.582   6.156   3.543 -0.4185  1.0259  0.3177
12108TIP3   OH257738   2.829   5.231  11.304 -0.5605  0.4342 -0.2538
12108TIP3    H157739   2.904   5.288  11.290 -0.2505  0.1678  0.2908
12108TIP3    H257740   2.761   5.288  11.340 -0.2246  0.4484  0.3639
12109TIP3   OH257741   2.405   6.261  15.866 -0.5626 -0.4318  0.6618
12109TIP3    H157742   2.440   6.207  15.795  0.7996 -0.7694  1.5822
12109TIP3    H257743   2.474   6.262  15.932 -1.9397 -0.3783  2.1224
12110TIP3   OH257744   0.084   6.648   2.970  0.1769 -0.6538 -0.1575
12110TIP3    H157745  -0.007   6.669   2.950  0.1903 -0.1865  0.2686
12110TIP3    H257746   0.113   6.719   3.027  0.6978 -0.9924  0.0023
12111TIP3   OH257747   0.389   0.608  12.728 -0.1219  0.5922 -0.1494
12111TIP3    H157748   0.477   0.572  12.712 -0.6352 -0.1998 -1.2877
12111TIP3    H257749   0.343   0.597  12.645 -1.7559 -0.3259  0.8356
12112TIP3   OH257750   3.514   1.896  12.866 -0.0392 -0.0447  0.0021
12112TIP3    H157751   3.537   1.968  12.807  1.6426 -0.0698  0.5928
12112TIP3    H257752   3.427   1.869  12.839 -0.5421  1.9786 -0.4762
12113TIP3   OH257753   5.249   0.595  13.908  0.1047 -0.1976  0.8955
12113TIP3    H157754   5.344   0.599  13.893  0.0286  1.6696  0.8562
12113TIP3    H257755   5.232   0.502  13.925  1.9361 -0.5561  0.8970
12114TIP3   OH257756   0.354   6.089   1.989  0.4465  0.1901  0.3546
12114TIP3    H157757   0.432   6.080   2.044  0.1091 -2.6206  0.4486
12114TIP3    H257758   0.283   6.106   2.050  0.9439  2.7446  0.2697
12115TIP3   OH257759   0.767   1.679  13.394  0.0684 -0.1655  0.1055
12115TIP3    H157760   0.728   1.652  13.312  0.7571  1.0934 -0.6563
12115TIP3    H257761   0.714   1.752  13.424 -0.3952 -0.8474  0.9670
12116TIP3   OH257762   2.820   2.517   5.572 -0.7937  0.0019 -0.3109
12116TIP3    H157763   2.750   2.471   5.524 -1.0775 -1.3043  1.2993
12116TIP3    H257764   2.843   2.457   5.643  1.5447  0.6917 -0.4415
12117TIP3   OH257765   1.734   4.854   0.024 -0.4676  0.6465 -0.0643
12117TIP3    H157766   1.738   4.920  -0.045  5.1207  0.2514 -0.3273
12117TIP3    H257767   1.706   4.903   0.101  1.1921  2.9062 -0.8259
12118TIP3   OH257768   6.435   1.760  13.369 -0.1897 -0.0962 -0.0270
12118TIP3    H157769   6.347   1.771  13.406 -0.3040 -0.0329 -0.3156
12118TIP3    H257770   6.420   1.728  13.280  0.0281  1.2695 -0.5771
12119TIP3   OH257771   1.927   1.750  11.860 -0.4805  0.0752 -0.4849
12119TIP3    H157772   1.937   1.727  11.952 -1.5649  0.2534 -0.3149
12119TIP3    H257773   1.863   1.688  11.826 -0.3370  0.2243 -1.0378
12120TIP3   OH257774   3.805   0.237   0.525  0.2209 -0.1868 -0.4055
12120TIP3    H157775   3.847   0.183   0.591  1.0325  0.2793 -0.5336
12120TIP3    H257776   3.722   0.264   0.565  0.0959 -1.0060 -0.1049
12121TIP3   OH257777   4.498   1.767  14.040 -0.1064 -0.4945  0.3662
12121TIP3    H157778   4.537   1.739  13.957  0.8488  0.6650  0.4102
12121TIP3    H257779   4.570   1.763  14.103 -0.4118  0.2578  0.7677
12122TIP3   OH257780   2.530   0.644  15.064  0.6882 -0.0240  0.1319
12122TIP3    H157781   2.461   0.585  15.034  1.2871 -1.0462  0.7444
12122TIP3    H257782   2.536   0.710  14.995  0.1214 -0.7603 -0.6362
12123TIP3   OH257783   0.428   0.395  15.513 -0.0945  0.6404 -0.0910
12123TIP3    H157784   0.381   0.350  15.444  0.4193 -0.5435  0.3051
12123TIP3    H257785   0.383   0.370  15.594  0.8592 -0.0703  0.2374
12124TIP3   OH257786   6.486   6.614   3.844  0.6387 -0.0104  0.5420
12124TIP3    H157787   6.536   6.552   3.790 -0.1605 -0.1568 -0.0241
12124TIP3    H257788   6.541   6.693   3.846  1.5465 -0.6383  1.0605
12125TIP3   OH257789   0.415   6.263  16.617  1.3892 -0.2087 -0.1665
12125TIP3    H157790   0.385   6.178  16.585  2.4307 -0.4269 -0.5911
12125TIP3    H257791   0.510   6.261  16.603  1.3347  1.2735 -0.7676
12126TIP3   OH257792   1.979   3.241  12.944  0.1300  0.5002  0.3951
12126TIP3    H157793   2.047   3.276  13.002  0.8708 -1.6789  0.8737
12126TIP3    H257794   2.025   3.179  12.887 -1.1747  0.2436 -0.3986
12127TIP3   OH257795   3.918   5.296  16.022  0.1315  0.1786 -0.3332
12127TIP3    H157796   3.897   5.202  16.024  0.9963 -0.0204 -0.3385
12127TIP3    H257797   3.904   5.326  16.111 -0.7222  0.1742 -0.4592
12128TIP3   OH257798   0.979   0.838  15.221 -0.2918  0.1290  0.1263
12128TIP3    H157799   1.002   0.923  15.184 -1.6824  1.1597  1.5638
12128TIP3    H257800   0.973   0.779  15.145  1.5408  1.0825 -0.7880
12129TIP3   OH257801   6.774   4.151   5.663 -0.4172  0.3743  0.3674
12129TIP3    H157802   6.679   4.166   5.661 -0.4787  0.0880  1.1251
12129TIP3    H257803   6.809   4.228   5.707 -0.3771  0.0787  0.8503
12130TIP3   OH257804   2.116   4.929  14.542 -0.1405  0.2723  0.2166
12130TIP3    H157805   2.052   4.970  14.484 -0.0965  2.4137  1.5881
12130TIP3    H257806   2.078   4.941  14.630  0.4650 -1.6140  0.7469
12131TIP3   OH257807   5.814   1.715   5.869  0.2273  0.0093 -0.1051
12131TIP3    H157808   5.761   1.785   5.905 -0.0470  1.7447 -3.5993
12131TIP3    H257809   5.900   1.755   5.855 -0.2055  0.0599 -3.0634
12132TIP3   OH257810   4.133   4.160   2.344  0.2019  0.3542 -0.4602
12132TIP3    H157811   4.119   4.117   2.428  0.3700 -0.2558 -0.7398
12132TIP3    H257812   4.098   4.099   2.279  1.4234  0.1452 -0.9370
12133TIP3   OH257813   2.926   4.911  12.362  0.4012 -0.0948 -0.6242
12133TIP3    H157814   2.858   4.852  12.395 -0.9434  1.5864 -0.3424
12133TIP3    H257815   2.964   4.865  12.287  1.0180 -2.3708  1.0387
12134TIP3   OH257816   5.172   3.921  16.780  0.3283 -0.4068 -0.2712
12134TIP3    H157817   5.078   3.925  16.796  0.7110  0.5833  1.8226
12134TIP3    H257818   5.181   3.858  16.708 -1.9802  0.1072 -1.0565
12135TIP3   OH257819   2.219   2.640  16.002 -0.8243 -0.6410 -0.2332
12135TIP3    H157820   2.301   2.669  15.963 -0.9410  0.9960  0.6852
12135TIP3    H257821   2.246   2.590  16.080 -0.6330 -2.8144 -1.6490
12136TIP3   OH257822   5.451   5.641  12.858  0.3403  0.1852 -0.3413
12136TIP3    H157823   5.456   5.719  12.913 -0.4378  0.3451 -0.4933
12136TIP3    H257824   5.466   5.674  12.769  0.0191  0.1627 -0.4053
12137TIP3   OH257825   4.814   0.657  11.564 -0.3320 -0.4152 -0.1155
12137TIP3    H157826   4.753   0.712  11.615 -1.5317 -1.1486 -0.7301
12137TIP3    H257827   4.789   0.673  11.473  0.5695 -0.5376 -0.3840
12138TIP3   OH257828   0.036   0.506  15.854  0.5583  0.1157 -0.3723
12138TIP3    H157829   0.044   0.421  15.897  1.7255  0.7490  0.6884
12138TIP3    H257830   0.082   0.567  15.912 -0.7204  1.5724 -0.8494
12139TIP3   OH257831   6.057   4.034  14.569 -0.3834 -0.1366 -0.5818
12139TIP3    H157832   6.122   4.061  14.505 -0.4501  0.0757 -0.5612
12139TIP3    H257833   6.040   4.113  14.621 -0.6262 -0.2031 -0.5605
12140TIP3   OH257834   6.625   1.915  14.384 -0.3684 -0.0579 -0.1659
12140TIP3    H157835   6.689   1.907  14.455 -2.4145 -1.1453  1.6184
12140TIP3    H257836   6.674   1.891  14.305  2.2778  2.3955  0.6653
12141TIP3   OH257837   6.537   4.292   5.872  0.5356 -0.0990  0.7654
12141TIP3    H157838   6.593   4.255   5.940 -0.5138 -1.3547  0.9636
12141TIP3    H257839   6.458   4.239   5.875  0.8354 -0.7631 -2.0671
12142TIP3   OH257840   2.489   3.784  13.422  0.7588 -0.3710  0.3848
12142TIP3    H157841   2.522   3.706  13.378 -1.7822 -1.3837  0.2279
12142TIP3    H257842   2.482   3.757  13.514  0.4081 -0.1415  0.4231
12143TIP3   OH257843   4.663   3.317   1.790  0.3215 -0.3919  0.4883
12143TIP3    H157844   4.753   3.303   1.820  0.1651 -1.1802  0.6141
12143TIP3    H257845   4.661   3.279   1.702  1.1737  3.2278 -1.1891
12144TIP3   OH257846   0.935   5.506   0.173  0.1646 -0.5360  0.0009
12144TIP3    H157847   0.845   5.535   0.187 -1.0447 -3.9208 -0.1105
12144TIP3    H257848   0.953   5.526   0.082  0.3094  2.0498  0.5685
12145TIP3   OH257849   2.741   4.883  15.611 -0.1443 -0.0488 -0.1226
12145TIP3    H157850   2.808   4.951  15.604  0.0193 -0.0770  1.0613
12145TIP3    H257851   2.669   4.925  15.659 -0.5652 -0.3159 -0.5224
12146TIP3   OH257852   4.567   1.552   4.735 -0.0955  0.0921 -0.6024
12146TIP3    H157853   4.656   1.560   4.702  1.1035 -1.5400  2.1793
12146TIP3    H257854   4.542   1.642   4.757  0.7328  0.5918 -1.6270
12147TIP3   OH257855   1.617   6.690   0.865 -1.0877 -0.6499 -0.2005
12147TIP3    H157856   1.663   6.609   0.841 -1.5932 -0.2703 -2.5595
12147TIP3    H257857   1.635   6.750   0.792 -0.8143  1.3326  1.4681
12148TIP3   OH257858   0.901   3.803  15.072 -0.2592 -0.0223  0.0661
12148TIP3    H157859   0.947   3.720  15.060  0.1910  0.3954 -1.2488
12148TIP3    H257860   0.907   3.821  15.165  1.1612 -0.5978  0.0955
12149TIP3   OH257861   6.720   0.041  11.790 -0.3045  0.5654 -0.1869
12149TIP3    H157862   6.760  -0.023  11.850 -3.1933 -1.1838 -0.0495
12149TIP3    H257863   6.769   0.031  11.708 -0.7123 -1.8168 -0.1556
12150TIP3   OH257864   1.170   4.541   0.305 -0.2170  0.1414 -0.0259
12150TIP3    H157865   1.197   4.496   0.385  0.4381 -2.8969 -1.8998
12150TIP3    H257866   1.246   4.596   0.282  0.4310 -0.6414  0.2379
12151TIP3   OH257867   3.801   3.207  11.798 -0.0016  0.3862 -0.5656
12151TIP3    H157868   3.791   3.113  11.813 -0.9104  0.6018  0.2861
12151TIP3    H257869   3.735   3.228  11.732 -1.2887  0.7991  0.8319
12152TIP3   OH257870   0.523   2.661   0.687  0.6045  0.1667 -0.1615
12152TIP3    H157871   0.546   2.579   0.731  2.7422  0.5710 -0.4851
12152TIP3    H257872   0.539   2.729   0.752 -1.8664  0.3168  0.3535
12153TIP3   OH257873   2.968   2.393  12.986  0.1904 -0.1551  0.2760
12153TIP3    H157874   3.033   2.431  12.928  0.0069 -0.9424 -0.4470
12153TIP3    H257875   2.937   2.467  13.039  0.1194  0.6191 -0.8423
12154TIP3   OH257876   5.154   3.333  10.852 -0.1162  0.1362  0.1420
12154TIP3    H157877   5.204   3.380  10.785  1.5025  1.2984  2.1180
12154TIP3    H257878   5.097   3.400  10.891 -1.2007 -0.5780 -0.1796
12155TIP3   OH257879   1.375   1.991  13.492  0.3971  0.8862  0.4527
12155TIP3    H157880   1.406   2.078  13.517 -1.0671  2.3696 -2.5422
12155TIP3    H257881   1.279   2.000  13.488  0.2402 -0.7699 -0.1443
12156TIP3   OH257882   3.565   0.190   4.637 -0.1620 -0.8158  0.3214
12156TIP3    H157883   3.601   0.215   4.722  2.7039  0.9579 -1.3425
12156TIP3    H257884   3.627   0.127   4.602 -0.6886 -0.6447 -0.9542
12157TIP3   OH257885   3.203   1.223   1.513  0.3100 -0.1819  0.4650
12157TIP3    H157886   3.185   1.136   1.549  0.0494 -0.4003 -0.1868
12157TIP3    H257887   3.118   1.268   1.515  0.1679 -0.3907 -0.3884
12158TIP3   OH257888   4.688   6.074   2.071  0.2549  0.6335 -0.4558
12158TIP3    H157889   4.743   6.020   2.128  0.8739  2.5387  0.8394
12158TIP3    H257890   4.723   6.163   2.082 -3.5265  2.0583  1.0499
12159TIP3   OH257891   0.089   4.913   5.442 -0.3558 -0.8595 -0.0236
12159TIP3    H157892   0.163   4.864   5.405 -0.7309 -1.1408 -0.4052
12159TIP3    H257893   0.081   4.880   5.531  0.3530 -0.4052  0.2173
12160TIP3   OH257894   4.469   2.794   0.712 -0.3910 -0.2155 -0.2974
12160TIP3    H157895   4.511   2.880   0.707 -0.7866  0.0497  0.9814
12160TIP3    H257896   4.525   2.738   0.659  1.0806  0.3438  0.6347
12161TIP3   OH257897   2.722   1.447   3.288  0.3274 -0.3665  0.1721
12161TIP3    H157898   2.715   1.530   3.334  1.4750 -1.2871  2.0562
12161TIP3    H257899   2.792   1.461   3.224  0.7068  0.0291  0.6722
12162TIP3   OH257900   6.175   4.706   0.560  0.5013  0.3826  0.0626
12162TIP3    H157901   6.122   4.781   0.588  0.8504 -0.1185  2.1616
12162TIP3    H257902   6.113   4.633   0.555  0.5396  0.3465  0.1106
12163TIP3   OH257903   3.249   5.644  13.966 -0.0836 -0.2212  0.2887
12163TIP3    H157904   3.214   5.594  13.892  0.9306 -1.5794  0.7173
12163TIP3    H257905   3.343   5.625  13.966  0.0073  0.1677  1.6111
12164TIP3   OH257906   1.221   2.471   3.713  0.1688  0.1845 -0.0312
12164TIP3    H157907   1.172   2.479   3.795  0.5621 -0.2110  0.2478
12164TIP3    H257908   1.267   2.554   3.704 -0.3897  0.4801 -0.1908
12165TIP3   OH257909   4.068   0.508   3.287 -0.2099  0.1155 -0.0303
12165TIP3    H157910   4.036   0.422   3.313  1.2112 -0.8763 -1.4525
12165TIP3    H257911   4.101   0.547   3.368 -3.2841  0.4337  1.1079
12166TIP3   OH257912   6.073   0.436  15.381  0.3315  0.1723  0.7318
12166TIP3    H157913   6.111   0.505  15.326  1.0122 -0.4862  0.3755
12166TIP3    H257914   6.036   0.483  15.456 -1.6185  1.2242 -0.8084
12167TIP3   OH257915   0.066   4.576   0.452 -0.3656  0.3882  0.0594
12167TIP3    H157916   0.026   4.651   0.496 -1.1261  0.3905 -0.6243
12167TIP3    H257917   0.111   4.614   0.377  0.1650  0.2812  0.3207
12168TIP3   OH257918   1.218   5.965   3.190 -0.0735  0.4583 -0.5479
12168TIP3    H157919   1.206   5.911   3.111  1.4354  2.1710 -1.9892
12168TIP3    H257920   1.285   5.920   3.240  1.8572  1.4409 -2.1960
12169TIP3   OH257921   2.520   5.673  13.040 -0.2300  0.4069 -0.4985
12169TIP3    H157922   2.561   5.637  13.119 -1.6341  2.9487  1.4761
12169TIP3    H257923   2.573   5.639  12.968  1.4874 -1.4617  1.5596
12170TIP3   OH257924   0.889   2.550  15.527  0.0763  0.3842 -0.0343
12170TIP3    H157925   0.885   2.642  15.504 -0.6093  0.0456 -1.3353
12170TIP3    H257926   0.817   2.510  15.478  0.5815 -0.8958  0.2398
12171TIP3   OH257927   2.631   0.979  15.685  0.2560 -0.0062 -0.2893
12171TIP3    H157928   2.620   0.909  15.620 -1.1276  0.5367 -0.6625
12171TIP3    H257929   2.722   0.973  15.712 -0.0481 -2.4915  0.3028
12172TIP3   OH257930   1.894   5.631   0.916 -0.1163  0.1285 -0.3508
12172TIP3    H157931   1.859   5.574   0.985  0.7295  1.1558  0.9303
12172TIP3    H257932   1.986   5.607   0.910  0.2403  1.3749  0.1942
12173TIP3   OH257933   6.470   6.713   2.364  0.1611  0.0117  0.0477
12173TIP3    H157934   6.421   6.716   2.282  1.1297  0.1023 -0.5362
12173TIP3    H257935   6.503   6.802   2.376  2.3282 -0.6192 -0.9053
12174TIP3   OH257936   1.604   2.875   0.927 -0.1372  0.6401 -0.0676
12174TIP3    H157937   1.596   2.792   0.879 -0.4007 -0.3668  1.7085
12174TIP3    H257938   1.551   2.863   1.005  2.3247  1.3512  1.7613
12175TIP3   OH257939   0.955   5.983  14.071  0.6749 -0.2439  0.3505
12175TIP3    H157940   0.974   5.930  14.149 -1.9046 -1.3441  0.2592
12175TIP3    H257941   0.911   6.060  14.105 -0.3573 -0.6740 -0.0050
12176TIP3   OH257942   3.466   1.144   2.103  0.6546 -0.1612  0.1231
12176TIP3    H157943   3.536   1.121   2.165  1.3057 -0.7490 -0.8258
12176TIP3    H257944   3.474   1.080   2.033 -0.4142  0.1900 -0.3296
12177TIP3   OH257945   1.853   2.806   5.487  0.2618  0.4819 -0.4820
12177TIP3    H157946   1.905   2.841   5.560 -0.2915 -2.8621  1.6383
12177TIP3    H257947   1.917   2.782   5.421  1.1587 -0.3913  0.6774
12178TIP3   OH257948   3.346   2.712  14.709  0.4007  0.0324  0.1269
12178TIP3    H157949   3.313   2.781  14.651 -0.0749 -1.1324 -1.0098
12178TIP3    H257950   3.270   2.687  14.762  0.9446  1.4033  1.5833
12179TIP3   OH257951   1.124   5.797   0.357 -0.1424  0.1131 -0.1515
12179TIP3    H157952   1.141   5.878   0.407 -1.9240  0.2337  0.2868
12179TIP3    H257953   1.101   5.828   0.270  0.8216 -0.0125 -0.4614
12180TIP3   OH257954   3.630   5.979  14.478 -0.3264 -0.1508 -0.3003
12180TIP3    H157955   3.557   6.017  14.526 -0.9499 -2.4370  0.6459
12180TIP3    H257956   3.708   6.018  14.518 -0.9340 -0.1538  0.9100
12181TIP3   OH257957   1.549   6.377   4.343  0.6801  0.0074 -0.6722
12181TIP3    H157958   1.498   6.342   4.270 -0.6906 -0.5410  0.5188
12181TIP3    H257959   1.490   6.437   4.388  0.7789 -1.2589  1.2167
12182TIP3   OH257960   0.186   5.641   0.203  0.4789  0.1004 -0.3974
12182TIP3    H157961   0.122   5.696   0.158  2.1707  0.8289 -1.9799
12182TIP3    H257962   0.155   5.552   0.189 -1.1277  0.5342  0.3466
12183TIP3   OH257963   2.295   3.149  15.916  0.3152  0.3859 -0.2043
12183TIP3    H157964   2.254   3.175  15.999 -2.6859 -2.9721 -0.5138
12183TIP3    H257965   2.374   3.102  15.943 -0.3997 -0.2894  0.7627
12184TIP3   OH257966   6.487   6.703  13.550 -0.1745 -0.0988 -0.1082
12184TIP3    H157967   6.515   6.650  13.476  2.1648  0.1719  0.5410
12184TIP3    H257968   6.489   6.793  13.517  1.7192  0.1063  0.4862
12185TIP3   OH257969   1.319   2.180  11.207  0.6409  0.4262 -0.5225
12185TIP3    H157970   1.353   2.122  11.140  0.3427  0.7324 -0.9364
12185TIP3    H257971   1.381   2.253  11.209  1.0218  0.0979  0.0066
12186TIP3   OH257972   3.147   0.246  13.156 -0.0413 -0.3728 -0.0998
12186TIP3    H157973   3.193   0.190  13.093  0.3861  1.0467 -1.0831
12186TIP3    H257974   3.199   0.326  13.159 -0.1044 -0.3861  2.0192
12187TIP3   OH257975   4.154   5.316  15.468  0.3328 -0.0900  0.0507
12187TIP3    H157976   4.104   5.394  15.443  0.4633  0.2476  0.8280
12187TIP3    H257977   4.154   5.318  15.564  0.2111 -1.1233  0.0775
12188TIP3   OH257978   1.446   5.642   5.935 -0.2515  0.0002  0.2525
12188TIP3    H157979   1.495   5.576   5.886  0.5546  1.1284 -0.4907
12188TIP3    H257980   1.455   5.616   6.026 -0.0552 -0.9926 -0.0467
12189TIP3   OH257981   0.872   2.165  10.297  0.4211 -0.4286 -0.5353
12189TIP3    H157982   0.807   2.145  10.229 -0.9913 -2.1565  1.2519
12189TIP3    H257983   0.824   2.219  10.361  0.9889 -0.9734  0.3641
12190TIP3   OH257984   1.509   4.381  14.509  0.2418  0.1910  0.4172
12190TIP3    H157985   1.422   4.364  14.473  0.5194  1.1991 -0.7951
12190TIP3    H257986   1.566   4.316  14.468  0.7145  1.8707 -1.7120
12191TIP3   OH257987   3.643   4.324   4.396 -0.5374  0.3108 -0.2500
12191TIP3    H157988   3.649   4.341   4.302  2.0802  0.5938 -0.0750
12191TIP3    H257989   3.549   4.324   4.415 -1.0533  1.3519 -2.6593
12192TIP3   OH257990   0.219   4.366  15.323  0.7847  0.1924  0.2155
12192TIP3    H157991   0.176   4.450  15.304 -0.6690 -1.0653 -2.1488
12192TIP3    H257992   0.290   4.360  15.259  0.4479 -0.7091 -0.0775
12193TIP3   OH257993   3.306   6.588   3.927 -0.4458  0.0389  1.0744
12193TIP3    H157994   3.332   6.496   3.930 -0.6852 -0.0493  0.5057
12193TIP3    H257995   3.238   6.592   3.859  1.2278  1.0479 -0.5955
12194TIP3   OH257996   1.962   5.923   1.378  0.0457  0.5707  0.1780
12194TIP3    H157997   1.898   5.911   1.449 -0.1579 -0.9582 -0.2468
12194TIP3    H257998   1.968   5.837   1.337  1.4501  1.0242 -0.5818
12195TIP3   OH257999   4.133   0.033   5.574  0.0237  0.1530  0.2588
12195TIP3    H158000   4.088  -0.021   5.640 -1.6838  1.0368 -0.1673
12195TIP3    H258001   4.220   0.048   5.612 -0.1940 -1.1497  1.3306
12196TIP3   OH258002   6.657   0.329   0.199  0.2360 -0.2086 -0.2242
12196TIP3    H158003   6.717   0.399   0.224 -0.8707  0.3864  0.7969
12196TIP3    H258004   6.710   0.249   0.207  0.5849  0.1866  1.8045
12197TIP3   OH258005   6.400   4.151  16.563  0.0769 -0.0985  0.3250
12197TIP3    H158006   6.362   4.070  16.597  2.0866 -0.7035  1.1955
12197TIP3    H258007   6.426   4.129  16.473  0.2856 -0.3257  0.4382
12198TIP3   OH258008   6.694   0.995   2.073  0.4451 -0.0691 -0.3856
12198TIP3    H158009   6.654   0.924   2.023  1.6752 -2.3376  1.7181
12198TIP3    H258010   6.733   1.052   2.007 -2.2249 -0.2765 -2.2242
12199TIP3   OH258011   6.100   5.750   4.941 -0.1158 -0.2577 -0.4675
12199TIP3    H158012   6.098   5.656   4.922 -1.1460 -0.6514  1.4628
12199TIP3    H258013   6.011   5.771   4.967  1.3605 -0.0299  4.8884
12200TIP3   OH258014   5.562   3.123  10.755  0.3309 -0.3437 -0.3865
12200TIP3    H158015   5.620   3.163  10.690 -0.0904  0.7910 -0.0892
12200TIP3    H258016   5.617   3.111  10.832  0.4005 -0.0876 -0.3939
12201TIP3   OH258017   5.171   6.383  16.280 -0.3222 -0.0664 -0.6328
12201TIP3    H158018   5.119   6.448  16.328  2.0392  1.6971 -0.3908
12201TIP3    H258019   5.224   6.341  16.348 -0.6428 -1.1133 -1.0242
12202TIP3   OH258020   5.210   0.090   6.341  0.2071  0.3378  0.4637
12202TIP3    H158021   5.243   0.151   6.274  0.6121  1.2680  1.4938
12202TIP3    H258022   5.157   0.146   6.399  1.0748 -0.1796  1.7647
12203TIP3   OH258023   4.434   2.789   6.123 -0.6351  0.1095  0.6435
12203TIP3    H158024   4.412   2.771   6.214  3.0903 -1.7634  1.2457
12203TIP3    H258025   4.490   2.866   6.126  0.3273 -0.5578  0.0365
12204TIP3   OH258026   6.208   4.969   5.889  0.4463 -0.5672  0.1738
12204TIP3    H158027   6.241   4.932   5.971  3.0718 -0.5712 -0.8239
12204TIP3    H258028   6.211   5.063   5.901  0.3466 -0.5734  0.2530
12205TIP3   OH258029   5.201   0.555  14.252  0.2344 -0.4013 -0.3525
12205TIP3    H158030   5.121   0.581  14.206 -0.0671 -0.6317  0.0397
12205TIP3    H258031   5.171   0.492  14.318  0.3382  1.6122  1.6608
12206TIP3   OH258032   4.361   2.730  13.804 -0.4982 -0.7066  0.5442
12206TIP3    H158033   4.326   2.819  13.798  1.4627 -0.0458 -1.9614
12206TIP3    H258034   4.300   2.677  13.752 -1.8031 -0.8915  2.2403
12207TIP3   OH258035   6.146   0.808  16.690 -0.1432 -0.9560 -0.2819
12207TIP3    H158036   6.174   0.745  16.756  1.2235  0.5768  0.6531
12207TIP3    H258037   6.051   0.807  16.693 -0.1369 -3.1841 -0.4953
12208TIP3   OH258038   5.912   0.768  14.644 -0.7045  0.8184  0.0185
12208TIP3    H158039   5.981   0.819  14.601  0.3942 -1.2705 -0.7919
12208TIP3    H258040   5.937   0.766  14.736  0.3441  0.0791 -0.2731
12209TIP3   OH258041   1.012   5.518   0.646  0.0870  0.0435  0.2654
12209TIP3    H158042   1.012   5.607   0.684 -2.1085  0.2519 -0.1549
12209TIP3    H258043   1.075   5.523   0.574  0.6248  1.0308  0.7872
12210TIP3   OH258044   4.504   2.713   6.579  0.5982  0.7110  0.1958
12210TIP3    H158045   4.451   2.750   6.649  1.1899 -0.4916  1.3042
12210TIP3    H258046   4.487   2.619   6.583 -1.8597  0.9360 -3.3957
12211TIP3   OH258047   1.029   4.161  13.603 -0.5487  0.7543  0.0007
12211TIP3    H158048   1.110   4.118  13.576 -1.0316 -0.1216 -0.0739
12211TIP3    H258049   0.971   4.152  13.527 -1.6698 -1.0845  1.0512
12212TIP3   OH258050   0.872   0.731   1.986 -0.1795  0.1238 -0.1995
12212TIP3    H158051   0.856   0.801   1.923 -1.5221 -0.6755 -0.7906
12212TIP3    H258052   0.920   0.665   1.936 -0.4599 -0.1264 -0.1403
12213TIP3   OH258053   2.465   6.054   3.031 -0.2806 -0.7271  0.4262
12213TIP3    H158054   2.469   5.987   3.099  1.8990 -1.2499 -0.1679
12213TIP3    H258055   2.423   6.010   2.957  1.0252 -1.4323  0.0817
12214TIP3   OH258056   4.182   4.159  12.335 -0.0506  0.0409  0.0479
12214TIP3    H158057   4.257   4.115  12.294 -0.1941  0.8644 -1.1426
12214TIP3    H258058   4.195   4.251  12.314 -1.2684  0.2192  0.0539
12215TIP3   OH258059   2.173   0.926  10.781 -0.2139 -0.0887  0.4437
12215TIP3    H158060   2.202   0.989  10.715 -0.8384  1.0514  1.2426
12215TIP3    H258061   2.172   0.842  10.735  0.6189  0.4752 -0.6348
12216TIP3   OH258062   0.143   1.560   4.638 -0.3748 -0.0127  0.3655
12216TIP3    H158063   0.149   1.639   4.691 -1.2540  0.3327 -0.0416
12216TIP3    H258064   0.086   1.585   4.565 -1.1987 -1.2052  0.5860
12217TIP3   OH258065   5.151   3.104  15.368  0.3787 -0.5156 -0.4308
12217TIP3    H158066   5.103   3.026  15.344 -0.7168  0.0035  0.0348
12217TIP3    H258067   5.130   3.118  15.460  0.2205  0.5707 -0.6239
12218TIP3   OH258068   4.024   6.087   6.039  0.5963 -0.5249  0.9958
12218TIP3    H158069   3.955   6.153   6.047 -0.2843 -1.6439  3.0803
12218TIP3    H258070   4.097   6.122   6.090  1.1803  0.1411 -0.2787
12219TIP3   OH258071   2.424   2.330  12.914  0.0177  0.0340 -0.0751
12219TIP3    H158072   2.477   2.305  12.838  0.2337 -1.4093  0.5311
12219TIP3    H258073   2.447   2.422  12.930  0.3151  0.2162 -1.4654
12220TIP3   OH258074   1.673   3.892  16.179 -0.4771  0.4906  0.3983
12220TIP3    H158075   1.598   3.881  16.122 -1.1228  1.7008  0.9814
12220TIP3    H258076   1.747   3.859  16.129 -1.0914  1.1609 -0.9696
12221TIP3   OH258077   3.226   4.442   0.870 -0.0275  0.6983 -0.1499
12221TIP3    H158078   3.249   4.453   0.962 -0.4901 -0.8463  0.1556
12221TIP3    H258079   3.281   4.370   0.839 -0.4478  0.6795 -0.8756
12222TIP3   OH258080   2.883   1.266   5.728 -0.0632 -0.0657 -0.0077
12222TIP3    H158081   2.859   1.257   5.820  1.2623  0.4379  0.3880
12222TIP3    H258082   2.802   1.244   5.680 -0.9603  0.4074  1.2748
12223TIP3   OH258083   4.281   5.627   1.768 -0.2203  0.2385  0.0380
12223TIP3    H158084   4.355   5.594   1.818  0.7311 -1.3452 -2.2892
12223TIP3    H258085   4.319   5.695   1.712 -0.7278  0.2237 -0.3313
12224TIP3   OH258086   3.175   2.766   2.771 -0.5145 -0.5346 -0.1981
12224TIP3    H158087   3.112   2.835   2.792  0.6608  0.8748 -1.1769
12224TIP3    H258088   3.153   2.740   2.682  0.2625 -0.0668 -0.5260
12225TIP3   OH258089   2.510   0.519  10.764  0.3377 -0.0356  0.1198
12225TIP3    H158090   2.534   0.611  10.760  0.8219 -0.1884 -0.6272
12225TIP3    H258091   2.445   0.507  10.694 -0.0140 -0.1778  0.4663
12226TIP3   OH258092   0.072   1.207   3.694 -0.3144  0.3725 -0.7596
12226TIP3    H158093   0.144   1.227   3.633 -0.5048 -0.2456 -1.1953
12226TIP3    H258094   0.112   1.151   3.761 -0.4442 -0.2137 -1.1615
12227TIP3   OH258095   1.439   2.228   3.965  0.4469  0.3848 -0.1119
12227TIP3    H158096   1.382   2.269   4.030  1.5169 -1.5472  2.1570
12227TIP3    H258097   1.519   2.280   3.967  0.0919  0.9564 -0.6669
12228TIP3   OH258098   0.114   3.412   4.318  0.1920  0.3234 -0.8192
12228TIP3    H158099   0.062   3.452   4.387  0.4154 -0.5877 -0.1205
12228TIP3    H258100   0.051   3.394   4.248 -0.4400 -0.7827  0.0208
12229TIP3   OH258101   3.100   1.443  15.025 -0.3109 -0.3255  0.0653
12229TIP3    H158102   3.117   1.537  15.029 -0.3793 -0.3643  1.9094
12229TIP3    H258103   3.029   1.429  15.088 -0.9105 -1.4946 -0.8458
12230TIP3   OH258104   6.150   1.140  10.721  0.0522  0.6822  0.0883
12230TIP3    H158105   6.122   1.216  10.670 -0.7461  1.5419  1.7404
12230TIP3    H258106   6.237   1.164  10.754  1.8305 -1.0341 -3.1289
12231TIP3   OH258107   5.861   4.793   0.692 -0.2249 -0.4681  0.2407
12231TIP3    H158108   5.916   4.843   0.632 -0.3224 -2.1404 -1.2659
12231TIP3    H258109   5.805   4.740   0.636  0.1415 -2.5808  1.7956
12232TIP3   OH258110   0.701   4.846   2.395 -0.0195 -0.2887 -0.2127
12232TIP3    H158111   0.781   4.846   2.343 -0.2638  0.0132 -0.5914
12232TIP3    H258112   0.647   4.915   2.356 -0.5043 -0.5572 -0.0264
12233TIP3   OH258113   2.417   5.132  15.085  0.4363 -0.7087 -0.3505
12233TIP3    H158114   2.378   5.079  15.016 -1.0794  0.9949 -0.8597
12233TIP3    H258115   2.406   5.081  15.165 -0.6025 -1.3527 -0.9005
12234TIP3   OH258116   4.358   1.484  13.391  0.4469  0.4013 -0.1680
12234TIP3    H158117   4.286   1.449  13.338 -0.2351  0.2374  0.8462
12234TIP3    H258118   4.315   1.544  13.452  0.5721 -2.9539  3.3787
12235TIP3   OH258119   5.334   3.419  15.995  0.2361 -0.3122  0.0799
12235TIP3    H158120   5.278   3.348  16.028 -0.0251  0.0314  0.3777
12235TIP3    H258121   5.334   3.483  16.066  1.0544 -0.3359  0.1020
12236TIP3   OH258122   1.458   3.294   1.867  0.2226  0.1126 -0.2183
12236TIP3    H158123   1.439   3.229   1.934 -0.2678 -0.3748 -0.8376
12236TIP3    H258124   1.548   3.321   1.885  0.5031 -0.8994 -0.1046
12237TIP3   OH258125   5.030   1.628  13.306  0.4339  0.4039  0.1656
12237TIP3    H158126   5.068   1.611  13.392  1.3075  0.7780 -0.1375
12237TIP3    H258127   5.104   1.659  13.253  0.2747 -1.4787 -1.2064
12238TIP3   OH258128   2.081   1.221   1.504 -0.6315  0.9174  0.0030
12238TIP3    H158129   2.020   1.275   1.453 -1.5126 -0.6540 -0.6319
12238TIP3    H258130   2.085   1.138   1.456  0.8667  0.4836  0.8557
12239TIP3   OH258131   2.593   3.874   4.597  0.4286  0.0072  0.5887
12239TIP3    H158132   2.592   3.929   4.519 -1.7875 -1.5819 -0.5835
12239TIP3    H258133   2.601   3.935   4.670  0.1331  1.7078 -0.7795
12240TIP3   OH258134   5.934   5.592  14.754  0.2723  0.2414  0.2453
12240TIP3    H158135   6.024   5.613  14.779  0.2199 -0.3497  0.9309
12240TIP3    H258136   5.917   5.507  14.794 -0.9040  0.7754  0.9022
12241TIP3   OH258137   5.346   2.733   4.522 -0.0541 -0.2213 -0.1044
12241TIP3    H158138   5.251   2.738   4.533 -0.1929 -3.1526  0.4122
12241TIP3    H258139   5.381   2.756   4.608 -0.3438 -0.4410  0.0746
12242TIP3   OH258140   0.629   3.775  15.546 -0.3449  0.0233  0.1290
12242TIP3    H158141   0.693   3.839  15.579  2.4926 -2.2633 -0.7050
12242TIP3    H258142   0.596   3.815  15.465  1.4395  0.4570 -0.4159
12243TIP3   OH258143   5.211   4.168  16.039  0.0315  0.1161 -0.5991
12243TIP3    H158144   5.254   4.086  16.017  0.1888  0.5395 -1.9278
12243TIP3    H258145   5.262   4.235  15.992 -0.3932  0.9200  0.0573
12244TIP3   OH258146   3.162   3.282   5.139 -0.0470  0.0282 -0.6163
12244TIP3    H158147   3.194   3.194   5.118  0.7573  0.1807 -0.0324
12244TIP3    H258148   3.075   3.286   5.098  0.6516 -0.3950 -2.1792
12245TIP3   OH258149   5.133   4.810  12.625 -0.2231 -0.0276  0.1547
12245TIP3    H158150   5.189   4.810  12.702  0.2722  0.8008 -0.2045
12245TIP3    H258151   5.061   4.869  12.647  0.2533  0.7144 -0.2537
12246TIP3   OH258152   1.732   4.106   5.811 -0.2325 -0.1716  0.7854
12246TIP3    H158153   1.717   4.161   5.887  1.1429  1.2118  0.0806
12246TIP3    H258154   1.747   4.167   5.739 -2.5128 -1.4505 -0.8281
12247TIP3   OH258155   5.999   6.413   2.758  0.2713  0.6899 -0.0900
12247TIP3    H158156   5.919   6.363   2.740  0.1103  0.5491  1.0145
12247TIP3    H258157   6.034   6.375   2.839  0.8394  1.5170  0.0579
12248TIP3   OH258158   6.679   6.554  12.006  0.3242 -0.2937  0.5863
12248TIP3    H158159   6.751   6.617  12.017  1.2008 -0.8809 -1.4721
12248TIP3    H258160   6.722   6.471  11.988 -0.8641 -1.0517  1.1777
12249TIP3   OH258161   5.996   5.812   1.925  0.3796  0.5847  0.1436
12249TIP3    H158162   5.971   5.885   1.869 -2.1070 -0.8026 -0.6327
12249TIP3    H258163   5.932   5.813   1.996  0.9160 -0.2338  0.6494
12250TIP3   OH258164   0.140   4.322   0.284 -0.3285 -0.1771 -0.3963
12250TIP3    H158165   0.231   4.354   0.281 -0.7866  1.4281  1.6210
12250TIP3    H258166   0.131   4.268   0.205  1.5327  1.8740 -2.0743
12251TIP3   OH258167   4.983   0.422  15.977  0.1736  0.0516 -0.5304
12251TIP3    H158168   4.948   0.360  15.913 -0.6642 -0.3398  0.2877
12251TIP3    H258169   5.008   0.498  15.925 -1.5895  0.2106 -1.1990
12252TIP3   OH258170   1.325   0.933  11.094  0.2183 -0.4954  0.7953
12252TIP3    H158171   1.234   0.925  11.123  0.2488 -1.0392  0.7359
12252TIP3    H258172   1.323   1.002  11.028 -0.2358 -0.8455  0.4431
12253TIP3   OH258173   1.283   2.960   0.582  0.1690 -0.1509 -0.5839
12253TIP3    H158174   1.260   2.891   0.644 -1.8217  1.4008  0.4620
12253TIP3    H258175   1.280   3.041   0.633  0.6068  0.9178 -2.2080
12254TIP3   OH258176   0.160   6.434   2.834 -0.6549 -0.2884 -0.3773
12254TIP3    H158177   0.167   6.521   2.872  0.3254 -0.7063  0.4187
12254TIP3    H258178   0.140   6.377   2.909 -2.2258 -0.6275 -1.0239
12255TIP3   OH258179   0.318   1.417   6.134 -0.0043  0.9836 -0.2112
12255TIP3    H158180   0.409   1.401   6.109 -0.0303  0.4000  0.0645
12255TIP3    H258181   0.283   1.330   6.155  0.0662  1.4677  2.0551
12256TIP3   OH258182   3.778   6.306   5.508  0.5044 -0.1435  0.6243
12256TIP3    H158183   3.837   6.306   5.432 -1.0696 -2.4257 -0.6712
12256TIP3    H258184   3.809   6.234   5.562 -1.4323 -1.7915 -0.3927
12257TIP3   OH258185   2.753   6.187  17.162  0.8732  0.1571  0.0393
12257TIP3    H158186   2.708   6.272  17.162  0.6604  0.0993  3.3668
12257TIP3    H258187   2.705   6.135  17.098 -1.8795  1.1092  1.2414
12258TIP3   OH258188   1.575   3.969   6.060  0.3942 -0.8691 -0.2986
12258TIP3    H158189   1.611   4.057   6.068 -0.8815 -0.4553  0.9149
12258TIP3    H258190   1.480   3.981   6.061  0.2070 -2.1901 -0.9495
12259TIP3   OH258191   5.070   4.680  14.139 -0.2658  0.3732  0.7009
12259TIP3    H158192   5.100   4.604  14.089  0.5853  0.3059  1.2996
12259TIP3    H258193   4.997   4.647  14.192 -0.9022  0.3485 -0.1782
12260TIP3   OH258194   5.691   5.320  12.219 -0.5153 -0.2229 -0.4152
12260TIP3    H158195   5.782   5.347  12.204 -0.8179  1.9061  1.3515
12260TIP3    H258196   5.648   5.332  12.134  0.0116  2.4312 -0.3710
12261TIP3   OH258197   3.816   2.424   4.117  0.4588 -0.7817  0.4924
12261TIP3    H158198   3.830   2.421   4.023 -1.8886  1.5474  0.0191
12261TIP3    H258199   3.739   2.369   4.131  0.0085 -0.0579  0.8790
12262TIP3   OH258200   3.420   1.082  12.003  0.1799  0.1732  0.3474
12262TIP3    H158201   3.453   1.018  12.065  0.5361 -0.2353 -0.2536
12262TIP3    H258202   3.499   1.125  11.969 -0.0002  0.2998  0.0866
12263TIP3   OH258203   6.054   2.697   3.007  0.1018  0.1862  0.3038
12263TIP3    H158204   6.041   2.634   3.077  0.5675  0.1855  0.3855
12263TIP3    H258205   6.049   2.645   2.926 -0.2337  0.1581  0.3398
12264TIP3   OH258206   2.528   6.588   0.717  1.7441 -0.2349  0.6748
12264TIP3    H158207   2.575   6.564   0.637  1.1980  0.3710  0.1691
12264TIP3    H258208   2.523   6.683   0.714 -1.3269 -0.3821 -0.3150
12265TIP3   OH258209   0.547   6.638   0.011 -0.0079  0.0358 -1.0765
12265TIP3    H158210   0.601   6.655  -0.066  0.0199 -0.1706 -1.1028
12265TIP3    H258211   0.464   6.605  -0.024  0.6645 -1.8620 -0.9615
12266TIP3   OH258212   5.219   4.779  12.367  0.0581  0.1471 -0.2540
12266TIP3    H158213   5.202   4.843  12.297 -1.2554 -0.1124 -0.1833
12266TIP3    H258214   5.169   4.811  12.442  0.7843 -0.0362  0.3273
12267TIP3   OH258215   2.314   4.582  12.495 -0.1383 -0.3181  0.1083
12267TIP3    H158216   2.358   4.557  12.576  1.3037  1.2821 -0.1815
12267TIP3    H258217   2.221   4.589  12.520  0.1216 -1.0327  1.3240
12268TIP3   OH258218   1.495   2.365   0.867 -0.6286 -0.3564 -0.0033
12268TIP3    H158219   1.434   2.334   0.934 -0.0419 -1.9291 -0.1577
12268TIP3    H258220   1.549   2.288   0.848  0.8327  0.7735 -0.4800
12269TIP3   OH258221   6.262   0.764   3.507 -0.3303 -0.1564 -0.5858
12269TIP3    H158222   6.275   0.676   3.471  1.0641 -0.5420  0.8054
12269TIP3    H258223   6.235   0.817   3.432 -0.6938 -1.6680 -1.5329
12270TIP3   OH258224   6.055   2.886   0.458 -0.1027 -0.0468  0.0900
12270TIP3    H158225   6.082   2.952   0.394 -1.0655 -0.8330 -1.1460
12270TIP3    H258226   6.138   2.850   0.490  0.3996  0.5572 -0.5047
12271TIP3   OH258227   5.154   5.953   3.627 -0.3087 -0.0106  0.4711
12271TIP3    H158228   5.075   5.906   3.600 -0.4048  0.4027  0.0207
12271TIP3    H258229   5.149   5.956   3.722  0.3272 -1.9920  0.5974
12272TIP3   OH258230   4.477   0.928   4.107 -0.3232 -0.0174 -0.7114
12272TIP3    H158231   4.548   0.968   4.057 -0.5780  0.8713 -0.3625
12272TIP3    H258232   4.398   0.944   4.054 -0.9136  2.7360  0.9498
12273TIP3   OH258233   5.400   5.153   0.739  0.3500  0.3933 -0.5910
12273TIP3    H158234   5.331   5.150   0.805  1.3310 -0.1728  0.4417
12273TIP3    H258235   5.481   5.148   0.790  1.1092 -0.6056 -1.8760
12274TIP3   OH258236   3.255   2.157   5.817 -0.3772 -0.3638 -0.0623
12274TIP3    H158237   3.226   2.144   5.726  2.4772  0.6081 -1.1547
12274TIP3    H258238   3.266   2.068   5.851 -1.3098 -0.7300 -0.6927
12275TIP3   OH258239   5.741   1.629   0.446 -0.4988 -0.2190  0.2618
12275TIP3    H158240   5.801   1.701   0.427 -0.5528 -0.0862  0.5916
12275TIP3    H258241   5.764   1.602   0.535  0.1345 -1.2093 -0.1934
12276TIP3   OH258242   6.508   0.489  16.220  0.4501 -0.0717  0.4459
12276TIP3    H158243   6.441   0.464  16.283 -1.3111 -0.2004 -1.4191
12276TIP3    H258244   6.499   0.584  16.213 -0.3172 -0.2121 -0.6235
12277TIP3   OH258245   5.065   2.919  16.594 -0.3156 -0.8182  0.1108
12277TIP3    H158246   4.982   2.940  16.635  0.0602  1.4327 -0.2486
12277TIP3    H258247   5.046   2.917  16.500  0.1645  0.3770 -0.0187
12278TIP3   OH258248   0.499   1.547  14.321 -0.1024 -0.2782  0.5211
12278TIP3    H158249   0.544   1.473  14.363 -2.2059 -1.9644 -0.1224
12278TIP3    H258250   0.408   1.539  14.349 -0.7737  0.8456 -1.2813
12279TIP3   OH258251   3.210   0.513  16.500  0.5889  0.4135 -0.0680
12279TIP3    H158252   3.269   0.533  16.428  3.3197  0.2256  2.0523
12279TIP3    H258253   3.266   0.511  16.578 -1.8809 -1.7110  1.7507
12280TIP3   OH258254   6.581   4.605  11.663  0.0580  0.1382  0.0036
12280TIP3    H158255   6.627   4.521  11.661  0.4503  0.3671 -0.8334
12280TIP3    H258256   6.493   4.585  11.630  0.2847  0.1332 -0.6024
12281TIP3   OH258257   4.060   0.507   4.310 -0.0113 -0.3933 -0.3112
12281TIP3    H158258   4.110   0.437   4.270  1.2777  0.9171 -1.0453
12281TIP3    H258259   4.118   0.544   4.376  0.2282  1.4226 -1.4754
12282TIP3   OH258260   2.453   0.516  16.437 -0.4122  0.5844  0.1967
12282TIP3    H158261   2.382   0.521  16.373 -1.0632  0.5705  0.8987
12282TIP3    H258262   2.408   0.507  16.521  0.4190  0.9534  0.6871
12283TIP3   OH258263   1.755   2.415   1.932 -0.0873  0.1595  0.3397
12283TIP3    H158264   1.735   2.498   1.889  0.4974 -0.5978 -1.4594
12283TIP3    H258265   1.671   2.368   1.932 -0.2881  0.5113  0.8424
12284TIP3   OH258266   0.252   5.309  16.800 -0.3540  0.0868 -0.4469
12284TIP3    H158267   0.278   5.217  16.807  1.3748  0.4467 -1.6748
12284TIP3    H258268   0.292   5.338  16.718 -2.1101  1.5441 -0.8028
12285TIP3   OH258269   3.912   6.010  14.624  0.5140  0.2375 -0.0533
12285TIP3    H158270   3.911   5.967  14.710 -2.5685 -1.4097 -0.8522
12285TIP3    H258271   3.928   5.939  14.562 -2.3564  0.5291 -1.2017
12286TIP3   OH258272   4.401   0.695  12.439  0.4207 -0.4072 -0.1847
12286TIP3    H158273   4.325   0.751  12.429  0.3429 -0.2638  1.1624
12286TIP3    H258274   4.374   0.628  12.502  1.0990 -0.9053 -0.4127
12287TIP3   OH258275   1.583   1.431  15.961 -0.2922 -0.2828  0.1799
12287TIP3    H158276   1.596   1.514  16.006 -2.1212 -0.1012  0.4316
12287TIP3    H258277   1.498   1.441  15.917  0.7509 -0.9835 -2.1045
12288TIP3   OH258278   5.643   2.619  13.932  0.5437  0.1737  0.2002
12288TIP3    H158279   5.733   2.648  13.915  0.7034  0.1314  0.9693
12288TIP3    H258280   5.590   2.698  13.920  0.6062  0.0585 -0.8765
12289TIP3   OH258281   0.437   2.136  12.999  0.1953  0.1450 -0.0440
12289TIP3    H158282   0.411   2.219  13.038 -0.2162  0.4072 -0.8660
12289TIP3    H258283   0.358   2.105  12.954  0.3678 -0.6532  0.1940
12290TIP3   OH258284   4.055   3.044  16.057 -0.1573 -0.1647 -0.5373
12290TIP3    H158285   4.098   3.010  16.136 -0.3089 -3.2289 -1.7029
12290TIP3    H258286   3.968   3.004  16.058 -0.8568  1.3026 -1.2729
12291TIP3   OH258287   5.619   0.175   4.124 -0.0465 -0.6748 -0.7464
12291TIP3    H158288   5.695   0.233   4.125  1.5244 -2.7091 -1.0573
12291TIP3    H258289   5.587   0.178   4.034  0.4010 -0.7484 -0.9093
12292TIP3   OH258290   0.091   0.505   0.111 -0.0648 -0.4007 -0.1317
12292TIP3    H158291   0.175   0.477   0.075  0.4524 -0.0793  0.8124
12292TIP3    H258292   0.027   0.481   0.044  0.2832 -4.2067  0.7777
12293TIP3   OH258293   3.542   2.409   1.972 -0.0362  0.1641  1.1363
12293TIP3    H158294   3.536   2.457   1.889  0.5483  2.0528  2.1560
12293TIP3    H258295   3.498   2.326   1.955  1.1272  0.0305 -1.4218
12294TIP3   OH258296   1.620   1.786  11.218 -0.0070 -0.1697  0.3224
12294TIP3    H158297   1.609   1.876  11.248 -0.1994  0.0740 -0.4667
12294TIP3    H258298   1.549   1.773  11.155  0.2828 -0.7265  0.1079
12295TIP3   OH258299   6.523   0.301  12.382 -0.2553  0.1750  0.0627
12295TIP3    H158300   6.584   0.339  12.445 -0.3015  0.4559 -0.0643
12295TIP3    H258301   6.501   0.373  12.323  0.9604 -0.4513 -1.1970
12296TIP3   OH258302   5.496   4.451   1.068  0.4436  0.1521 -0.0204
12296TIP3    H158303   5.522   4.368   1.029  0.6032 -0.3955  1.2165
12296TIP3    H258304   5.532   4.448   1.157 -1.2091  0.7177  0.6947
12297TIP3   OH258305   1.299   1.690  15.012  0.3917 -0.4145 -0.6034
12297TIP3    H158306   1.390   1.673  15.037  0.5275  1.1785  0.0660
12297TIP3    H258307   1.299   1.685  14.916  1.2976  0.0829 -0.6308
12298TIP3   OH258308   0.831   1.559  11.813 -0.1907  0.1123 -0.7101
12298TIP3    H158309   0.830   1.464  11.826  0.5463  0.0739 -0.9205
12298TIP3    H258310   0.924   1.582  11.809 -0.3422  1.0616  0.8951
12299TIP3   OH258311   1.604   4.406   1.723  0.6388  0.6534 -0.3813
12299TIP3    H158312   1.612   4.439   1.812 -1.4336 -0.7605  0.3700
12299TIP3    H258313   1.682   4.353   1.709  0.8812  0.7294  0.6668
12300TIP3   OH258314   2.541   0.641  10.421 -0.0249  0.0860 -0.5044
12300TIP3    H158315   2.464   0.598  10.458  1.7736 -1.3448  1.8139
12300TIP3    H258316   2.581   0.574  10.365  0.9845 -0.1412  0.4694
12301TIP3   OH258317   1.240   0.640  16.147 -0.5438  0.1964 -0.4645
12301TIP3    H158318   1.285   0.722  16.128 -0.8307  0.4966  0.1320
12301TIP3    H258319   1.152   0.667  16.175 -1.0634 -0.3728 -1.5063
12302TIP3   OH258320   6.104   6.402   4.040 -0.2394  0.0680  0.1436
12302TIP3    H158321   6.111   6.311   4.014  0.2560  0.7663 -2.2812
12302TIP3    H258322   6.195   6.428   4.059  0.0100  0.8462 -2.0285
12303TIP3   OH258323   3.748   0.787  11.131 -0.5138 -0.0773  0.6554
12303TIP3    H158324   3.683   0.828  11.188 -0.0411  1.1789  0.2953
12303TIP3    H258325   3.698   0.757  11.055 -0.8956 -0.3867  1.0257
12304TIP3   OH258326   2.928   3.202  15.587  0.1475 -0.0610  0.1812
12304TIP3    H158327   2.833   3.209  15.591  0.1617 -0.5272  1.7718
12304TIP3    H258328   2.958   3.293  15.587 -0.2691  0.0860  1.0593
12305TIP3   OH258329   4.706   1.013   2.701  0.4587 -0.2370  0.5209
12305TIP3    H158330   4.765   0.942   2.730  2.1842  0.8211 -0.3061
12305TIP3    H258331   4.683   0.989   2.611  0.3339 -0.2032  0.5444
12306TIP3   OH258332   5.340   3.434  13.615 -0.2842 -0.4244  0.2473
12306TIP3    H158333   5.352   3.348  13.655  0.5795 -0.0287  0.8810
12306TIP3    H258334   5.426   3.454  13.577  0.2645  1.1892  2.2310
12307TIP3   OH258335   4.750   4.942  13.332 -0.7594  0.7741 -0.2469
12307TIP3    H158336   4.776   4.959  13.241 -0.1847  1.3982  0.0324
12307TIP3    H258337   4.658   4.917  13.326 -0.0874 -1.6059 -1.2723
12308TIP3   OH258338   1.361   2.562  13.296 -0.3456 -0.5496 -0.1130
12308TIP3    H158339   1.442   2.528  13.334 -0.2560 -0.2218 -0.0091
12308TIP3    H258340   1.334   2.632  13.355 -0.0773  0.1233 -0.7755
12309TIP3   OH258341   1.351   3.918   5.744  0.3305  0.3874 -0.4835
12309TIP3    H158342   1.332   3.978   5.817  0.2752  1.5591 -1.4521
12309TIP3    H258343   1.355   3.974   5.667  0.9876 -0.7713 -1.3057
12310TIP3   OH258344   3.382   4.769   3.115 -0.0719 -0.2667 -0.7143
12310TIP3    H158345   3.404   4.794   3.025  1.6521  1.9350  0.2412
12310TIP3    H258346   3.373   4.674   3.113  0.3623 -0.2821 -3.1276
12311TIP3   OH258347   0.171   4.377   2.965 -0.4136 -0.0679  0.5234
12311TIP3    H158348   0.122   4.296   2.980  1.6546 -1.0081  2.4832
12311TIP3    H258349   0.182   4.381   2.870 -1.9890 -1.1739  0.2644
12312TIP3   OH258350   2.541   3.845   4.126 -0.5664 -0.8537 -0.1427
12312TIP3    H158351   2.586   3.810   4.049  0.4748 -1.5298  0.7619
12312TIP3    H258352   2.575   3.934   4.136 -0.7810 -0.7292 -0.5224
12313TIP3   OH258353   2.882   2.128  12.472 -0.0951 -0.1263 -0.8136
12313TIP3    H158354   2.816   2.161  12.410 -1.4170 -2.5383 -0.7420
12313TIP3    H258355   2.833   2.070  12.530  1.7775 -0.5032  0.4182
12314TIP3   OH258356   2.601   1.600   4.903 -0.0281  0.0755 -0.1208
12314TIP3    H158357   2.534   1.648   4.951 -1.2151 -1.5234 -0.1245
12314TIP3    H258358   2.552   1.544   4.842  1.3119 -0.7998 -0.4238
12315TIP3   OH258359   2.221   2.673  13.819  0.2048  0.1522  0.1174
12315TIP3    H158360   2.156   2.662  13.750  0.1268 -2.1823  0.5124
12315TIP3    H258361   2.172   2.669  13.901  0.4560  1.6385  0.3599
12316TIP3   OH258362   0.710   6.191   0.827  0.1861  0.1206  0.5686
12316TIP3    H158363   0.649   6.260   0.852 -0.5916 -0.2365 -0.3236
12316TIP3    H258364   0.655   6.115   0.808  0.8807 -0.1747 -0.3386
12317TIP3   OH258365   4.871   3.556   6.611 -0.3492 -0.1314 -0.0428
12317TIP3    H158366   4.850   3.485   6.551 -1.0685  0.2798 -0.2808
12317TIP3    H258367   4.893   3.629   6.555 -1.4872  0.3935  0.1707
12318TIP3   OH258368   5.395   4.701  17.087  0.1586  0.3953 -0.4194
12318TIP3    H158369   5.452   4.633  17.122 -0.7543 -0.1500  0.0228
12318TIP3    H258370   5.384   4.678  16.995 -2.1129 -1.4510  0.2781
12319TIP3   OH258371   5.441   1.129  16.294  0.3038  0.4216 -0.0643
12319TIP3    H158372   5.355   1.160  16.323 -0.3252  0.4724 -1.9427
12319TIP3    H258373   5.499   1.204  16.309  0.0496  0.3659  1.2674
12320TIP3   OH258374   2.247   0.635  14.164 -0.1460 -0.0659  0.6107
12320TIP3    H158375   2.262   0.626  14.258 -3.7835 -2.3296  1.0841
12320TIP3    H258376   2.196   0.715  14.155 -0.9536 -0.5655  0.7242
12321TIP3   OH258377   2.896   0.753  12.413  0.1918  0.1288 -0.2482
12321TIP3    H158378   2.891   0.740  12.318  0.1196  0.2706 -0.2640
12321TIP3    H258379   2.919   0.845  12.423 -0.1509  0.2021 -0.1223
12322TIP3   OH258380   0.212   6.673  11.685  0.1130 -0.0006  0.2782
12322TIP3    H158381   0.261   6.699  11.607 -0.4343  0.4276  0.0744
12322TIP3    H258382   0.154   6.603  11.655 -0.3263  0.3813  0.2212
12323TIP3   OH258383   5.353   6.416  14.410 -0.2914 -0.1663  0.5392
12323TIP3    H158384   5.300   6.366  14.472 -1.4110  1.3896  0.8895
12323TIP3    H258385   5.344   6.507  14.440  0.3454  0.4263 -1.0317
12324TIP3   OH258386   1.446   1.090   2.578  0.1128  0.4120  0.0582
12324TIP3    H158387   1.354   1.117   2.573  0.1530  0.8196  1.4307
12324TIP3    H258388   1.452   1.017   2.516 -2.3116 -2.9011  3.5276
12325TIP3   OH258389   1.488   6.014   4.452  0.1641 -0.1970 -0.7102
12325TIP3    H158390   1.470   5.927   4.416  0.7061 -1.4353  1.8960
12325TIP3    H258391   1.578   6.033   4.426  0.4147 -0.9107 -0.3980
12326TIP3   OH258392   2.628   1.834  12.014 -0.0257 -0.3641 -0.2927
12326TIP3    H158393   2.656   1.743  12.000  0.9443 -0.1614  0.2796
12326TIP3    H258394   2.576   1.831  12.094  0.6060 -0.2988  0.1230
12327TIP3   OH258395   5.790   6.338  15.816  0.4167  0.0481  0.7568
12327TIP3    H158396   5.884   6.338  15.800  0.3400  0.4295  0.2904
12327TIP3    H258397   5.781   6.319  15.910  0.8975 -1.4961  0.5052
12328TIP3   OH258398   4.143   2.363  14.337  0.4415  0.0729 -0.0805
12328TIP3    H158399   4.048   2.371  14.323 -0.0070  0.4104  2.7976
12328TIP3    H258400   4.167   2.444  14.382  2.4609  0.7798 -2.3491
12329TIP3   OH258401   6.786   1.659  13.874 -0.0412  0.1587 -0.1905
12329TIP3    H158402   6.842   1.663  13.952  0.5782  0.2732 -0.6366
12329TIP3    H258403   6.836   1.607  13.811 -0.9459 -0.7116 -0.1820
12330TIP3   OH258404   2.080   6.596  12.483  0.0946  0.2632 -0.4396
12330TIP3    H158405   2.049   6.682  12.510  0.6603  0.2823  0.1608
12330TIP3    H258406   2.131   6.564  12.558  1.8909  0.4151 -1.5715
12331TIP3   OH258407   1.543   1.214   2.792 -0.1494 -0.1291 -0.0958
12331TIP3    H158408   1.516   1.184   2.705  0.9028  1.0775 -0.8571
12331TIP3    H258409   1.580   1.136   2.834 -0.9801 -0.7989 -0.5915
12332TIP3   OH258410   1.469   3.820  13.290 -0.1312 -0.0682  0.0825
12332TIP3    H158411   1.458   3.895  13.231  0.6748 -0.6844 -0.8586
12332TIP3    H258412   1.541   3.846  13.348  1.5167 -0.9093 -1.5456
12333TIP3   OH258413   0.834   5.851   0.260 -0.9212 -0.3377 -0.0971
12333TIP3    H158414   0.862   5.804   0.181  0.3860 -0.8953  0.6760
12333TIP3    H258415   0.903   5.833   0.324 -2.6132 -0.9870  1.5866
12334TIP3   OH258416   1.862   6.498   0.724  0.1056  0.4220 -0.1061
12334TIP3    H158417   1.954   6.518   0.704 -0.5419  3.3263 -0.4430
12334TIP3    H258418   1.817   6.504   0.639 -0.2315 -2.1430 -0.1339
12335TIP3   OH258419   0.523   2.302   2.075 -0.2013 -0.0840  0.1399
12335TIP3    H158420   0.556   2.321   1.988 -1.8579 -0.1294 -0.5131
12335TIP3    H258421   0.503   2.209   2.074  1.0085 -0.3708  1.0067
12336TIP3   OH258422   0.969   2.813   2.270 -0.3153 -0.8225  0.0667
12336TIP3    H158423   0.990   2.719   2.273 -0.6283 -0.9975 -2.2312
12336TIP3    H258424   0.920   2.824   2.188 -0.5745  1.3053  0.4718
12337TIP3   OH258425   3.681   6.425   3.805  0.0756 -0.0733 -0.5177
12337TIP3    H158426   3.633   6.497   3.766  0.4118  1.7453  2.2569
12337TIP3    H258427   3.614   6.368   3.843 -0.0876 -0.0160 -0.7232
12338TIP3   OH258428   4.046   6.705   3.680 -0.4443  0.3664  0.7348
12338TIP3    H158429   3.983   6.774   3.660 -0.6573 -0.2099 -0.6280
12338TIP3    H258430   4.016   6.629   3.630  0.8750 -0.1403  0.6896
12339TIP3   OH258431   3.883   6.322  16.850 -0.3248 -0.1091 -0.8152
12339TIP3    H158432   3.808   6.303  16.906  1.1698  0.9011  1.5987
12339TIP3    H258433   3.864   6.408  16.813 -0.8113 -0.3118 -1.0500
12340TIP3   OH258434   4.723   3.144   3.171  0.8192 -0.0596  0.0683
12340TIP3    H158435   4.712   3.116   3.080 -3.0119 -0.5213  0.6006
12340TIP3    H258436   4.762   3.231   3.164 -0.2571  0.2909 -2.0775
12341TIP3   OH258437   6.105   6.679   2.845  0.9185  0.0726 -0.0265
12341TIP3    H158438   6.176   6.619   2.866  0.3593 -0.5097  0.2232
12341TIP3    H258439   6.029   6.622   2.830  0.3915  0.7091  0.1852
12342TIP3   OH258440   0.794   5.544  11.810  0.1898 -0.0671  0.5851
12342TIP3    H158441   0.781   5.639  11.815  0.1141 -0.0685  0.3985
12342TIP3    H258442   0.803   5.526  11.717 -0.4787 -0.3367  0.5697
12343TIP3   OH258443   5.493   2.410  16.521  0.8043  0.3169  0.3347
12343TIP3    H158444   5.557   2.481  16.532  1.5242 -0.2662 -0.0877
12343TIP3    H258445   5.518   2.368  16.439 -1.2954  1.2887 -0.8339
12344TIP3   OH258446   3.643   2.220   4.217  0.5319  0.0993  0.7521
12344TIP3    H158447   3.577   2.198   4.282 -0.6428  1.6295  0.1137
12344TIP3    H258448   3.647   2.144   4.159 -2.5182  0.9576 -0.6840
12345TIP3   OH258449   6.439   3.969   5.271 -0.1513  0.2617 -0.1858
12345TIP3    H158450   6.379   3.918   5.216  0.0834 -0.3294  0.1025
12345TIP3    H258451   6.393   4.052   5.284  0.5624  1.0898 -2.7126
12346TIP3   OH258452   1.527   6.357  11.898  0.2085 -0.4113  0.0731
12346TIP3    H158453   1.590   6.371  11.827 -2.0092  2.5955 -1.4252
12346TIP3    H258454   1.498   6.267  11.887  2.0960 -0.9159 -0.9994
12347TIP3   OH258455   6.465   5.231   0.969  0.1804  0.2197 -0.3369
12347TIP3    H158456   6.532   5.203   0.907 -0.4389 -0.4569 -0.7020
12347TIP3    H258457   6.515   5.261   1.045  0.8957 -0.6505 -0.4501
12348TIP3   OH258458   4.648   2.638   0.560 -0.4891 -0.6136  0.6479
12348TIP3    H158459   4.693   2.559   0.530 -0.4296 -0.6050  0.7175
12348TIP3    H258460   4.686   2.708   0.507  0.4261 -0.4260  1.5415
12349TIP3   OH258461   1.933   1.009  12.366 -0.3297 -0.6686 -0.0804
12349TIP3    H158462   1.905   1.053  12.446 -0.2791  1.0953 -1.0108
12349TIP3    H258463   2.029   1.005  12.372 -0.3284 -0.5652 -0.0427
12350TIP3   OH258464   1.785   0.325  12.083  0.2579  0.3793  0.4832
12350TIP3    H158465   1.786   0.302  11.990 -0.9292  0.2692  0.4910
12350TIP3    H258466   1.821   0.413  12.086 -1.0809  0.9660 -0.2504
12351TIP3   OH258467   3.818   6.036  10.878  0.5037  0.2640  0.4118
12351TIP3    H158468   3.810   5.948  10.842  1.5727  1.0104 -1.7336
12351TIP3    H258469   3.843   6.091  10.803 -0.0638  2.3822  1.7151
12352TIP3   OH258470   0.804   6.518  15.795 -0.0047  0.1312  0.0767
12352TIP3    H158471   0.892   6.557  15.794  0.6123 -1.1408  2.1919
12352TIP3    H258472   0.815   6.434  15.750  0.0350 -0.3783  1.0371
12353TIP3   OH258473   3.036   5.315  12.437 -0.1457  0.1967  0.4012
12353TIP3    H158474   3.019   5.257  12.512  0.8211  0.1405  0.5813
12353TIP3    H258475   3.058   5.255  12.366  1.4778  0.3612  0.7530
12354TIP3   OH258476   1.065   5.271   5.035  1.2606 -0.2422  0.1620
12354TIP3    H158477   1.081   5.356   5.075  1.0293  0.2688 -0.8014
12354TIP3    H258478   1.083   5.208   5.104  3.1580  0.5002  0.3914
12355TIP3   OH258479   2.517   5.549  12.273 -0.0003  0.2335 -0.2382
12355TIP3    H158480   2.553   5.468  12.309  0.1648  0.9284  1.1958
12355TIP3    H258481   2.463   5.585  12.344  1.7810  2.5480  0.0056
12356TIP3   OH258482   4.808   4.415  13.675 -0.1794 -0.8488  0.1665
12356TIP3    H158483   4.887   4.466  13.694 -1.0324 -0.0218  1.5461
12356TIP3    H258484   4.790   4.434  13.583 -0.1618  0.9329  0.5030
12357TIP3   OH258485   5.233   4.941   1.631  0.1459  0.4672 -0.2968
12357TIP3    H158486   5.227   5.019   1.685  2.1200 -0.1603  0.8695
12357TIP3    H258487   5.280   4.969   1.553 -2.0823  1.2010 -1.4324
12358TIP3   OH258488   6.298   2.800   5.730 -0.2715  0.0016  0.1618
12358TIP3    H158489   6.252   2.771   5.809 -1.4733 -0.1079 -0.5603
12358TIP3    H258490   6.305   2.895   5.741  0.3365 -0.1182  0.8037
12359TIP3   OH258491   0.354   3.824   0.010 -0.1889  0.3327 -0.1890
12359TIP3    H158492   0.306   3.814  -0.073  0.7166  0.3354 -0.7133
12359TIP3    H258493   0.351   3.737   0.050 -1.4299  0.5480  0.2273
12360TIP3   OH258494   0.011   1.116  13.576 -0.0414  0.7444 -0.1445
12360TIP3    H158495  -0.058   1.071  13.528 -1.2115  0.0328  2.1204
12360TIP3    H258496   0.093   1.078  13.543 -0.9835 -3.1484  1.7066
12361TIP3   OH258497   5.393   6.482  13.540 -0.4265  0.1414  0.4036
12361TIP3    H158498   5.488   6.478  13.538 -0.4005  0.5162  0.7762
12361TIP3    H258499   5.365   6.390  13.540 -0.0296  0.0079  1.5504
12362TIP3   OH258500   0.790   3.052   2.824  0.1131 -0.2809 -0.4583
12362TIP3    H158501   0.750   2.991   2.762 -1.6448 -0.0999  0.4521
12362TIP3    H258502   0.884   3.036   2.816 -0.2350 -2.1325 -1.2284
12363TIP3   OH258503   6.051   1.174   0.144 -0.0842 -0.0184 -0.8996
12363TIP3    H158504   6.052   1.270   0.145  1.7142 -0.0105  0.6021
12363TIP3    H258505   5.976   1.150   0.199  0.9211  0.5626  0.7692
12364TIP3   OH258506   5.832   3.638   5.065 -0.4242  0.0678 -0.1446
12364TIP3    H158507   5.899   3.653   5.132 -2.6475  1.1795  1.9049
12364TIP3    H258508   5.806   3.547   5.077 -2.6695  1.0001  2.2939
12365TIP3   OH258509   2.356   4.030   3.086  0.6518 -0.0873 -0.0908
12365TIP3    H158510   2.348   3.990   3.173  0.8582 -0.3238 -0.1801
12365TIP3    H258511   2.416   4.104   3.099 -0.1542  0.5274  0.1859
12366TIP3   OH258512   4.551   1.325   0.025 -0.0213 -0.5846  0.0426
12366TIP3    H158513   4.561   1.297   0.116 -2.2392  0.3993  0.6174
12366TIP3    H258514   4.583   1.250  -0.026  0.5173 -1.4516  1.6032
12367TIP3   OH258515   6.698   4.565   0.914 -0.1503  0.1027 -0.3484
12367TIP3    H158516   6.776   4.607   0.880 -1.1973  2.5092  0.1060
12367TIP3    H258517   6.691   4.482   0.866  3.4924 -0.8979  0.7213
12368TIP3   OH258518   0.578   3.665  12.988  0.0711 -0.5853  0.0203
12368TIP3    H158519   0.620   3.680  12.903  0.6125 -2.3296 -0.0396
12368TIP3    H258520   0.619   3.585  13.021 -1.4579 -0.9486  1.0854
12369TIP3   OH258521   5.683   0.335   3.071  0.1150 -0.0737 -0.2860
12369TIP3    H158522   5.628   0.267   3.034  0.3694  0.0098 -0.8130
12369TIP3    H258523   5.627   0.379   3.135 -0.4294  0.0158 -0.8229
12370TIP3   OH258524   1.944   0.590  16.316 -0.9364 -0.0803  0.1430
12370TIP3    H158525   1.976   0.502  16.337  2.7175  0.8818 -1.0451
12370TIP3    H258526   1.951   0.638  16.398 -2.4639 -0.7214  0.6700
12371TIP3   OH258527   0.685   1.342   2.668  0.0709  0.6273 -0.6918
12371TIP3    H158528   0.775   1.314   2.653  0.7446  1.6331  1.3165
12371TIP3    H258529   0.651   1.362   2.580  1.0252 -1.9567 -1.7078
12372TIP3   OH258530   3.311   2.705   3.464  0.5082 -0.5116 -0.5736
12372TIP3    H158531   3.241   2.669   3.410 -0.6412 -1.5076  1.5156
12372TIP3    H258532   3.390   2.693   3.411 -0.5819 -1.3763 -2.0635
12373TIP3   OH258533   0.979   5.281   3.549  0.6780  0.6669 -0.7742
12373TIP3    H158534   0.991   5.193   3.516 -1.1412 -0.1313  0.5499
12373TIP3    H258535   0.993   5.338   3.474  0.8807 -0.8197 -1.8729
12374TIP3   OH258536   2.425   6.630  14.968  0.3760 -0.2710 -0.5525
12374TIP3    H158537   2.493   6.585  14.918  2.1392 -0.5461  1.9695
12374TIP3    H258538   2.344   6.608  14.923  1.9024 -0.2429 -3.4337
12375TIP3   OH258539   3.561   2.203   5.977 -0.3674 -0.5640 -0.5831
12375TIP3    H158540   3.571   2.233   6.067  2.4706 -0.3900 -0.9106
12375TIP3    H258541   3.560   2.284   5.926 -0.2952 -0.7315 -0.8484
12376TIP3   OH258542   6.631   2.060  16.323  0.0899  0.0576 -0.5296
12376TIP3    H158543   6.712   2.010  16.312  0.2686  0.3392 -0.5057
12376TIP3    H258544   6.626   2.114  16.243  0.8707  1.3782  0.2883
12377TIP3   OH258545   6.201   0.337   2.576 -0.4544 -0.0596 -0.4039
12377TIP3    H158546   6.123   0.375   2.537  0.5564  2.3609 -0.1602
12377TIP3    H258547   6.168   0.276   2.642 -2.1336 -0.0266 -1.2075
12378TIP3   OH258548   3.984   2.090  15.532 -0.1394 -0.5166  0.3504
12378TIP3    H158549   3.959   2.058  15.445 -0.8533 -0.3625  0.4976
12378TIP3    H258550   3.955   2.022  15.592  0.2955 -0.5919  0.4715
12379TIP3   OH258551   1.280   2.690  13.922  0.0511 -0.1395 -0.1585
12379TIP3    H158552   1.303   2.689  14.015 -0.2158  0.8560 -0.0694
12379TIP3    H258553   1.186   2.707  13.922 -0.0146 -0.5209 -0.6023
12380TIP3   OH258554   5.984   3.701   4.044 -0.2558 -0.2284  0.1194
12380TIP3    H158555   6.047   3.762   4.006 -0.5114 -1.3689 -2.2291
12380TIP3    H258556   5.998   3.708   4.139  1.6883  1.3332 -0.2474
12381TIP3   OH258557   3.371   2.243   4.996 -0.1767  0.2712  0.1989
12381TIP3    H158558   3.384   2.323   5.046 -2.1063  1.3439 -0.9388
12381TIP3    H258559   3.459   2.213   4.973  0.6173  1.1631  1.9908
12382TIP3   OH258560   4.844   4.348   0.541 -0.0790  0.5899 -0.1002
12382TIP3    H158561   4.875   4.401   0.468 -0.4045  0.8184 -0.0702
12382TIP3    H258562   4.883   4.261   0.525  0.5465  0.8656 -0.0815
12383TIP3   OH258563   4.958   2.715   6.346  0.0406 -0.4502 -0.1299
12383TIP3    H158564   4.912   2.654   6.404  0.5185 -1.0532 -0.3693
12383TIP3    H258565   4.936   2.802   6.379 -2.4757 -0.6633 -1.1308
12384TIP3   OH258566   5.960   2.785  12.892  0.0522  0.1030 -0.4720
12384TIP3    H158567   5.919   2.772  12.806  0.4662 -0.0724 -0.6493
12384TIP3    H258568   6.054   2.792  12.872  0.0495  1.1073 -0.1401
12385TIP3   OH258569   2.944   2.119   0.526  0.1626  0.1748 -0.3496
12385TIP3    H158570   2.987   2.201   0.504  1.9330 -0.0419  2.0944
12385TIP3    H258571   3.016   2.056   0.533 -0.5283 -0.3110  3.3426
12386TIP3   OH258572   4.733   0.620   2.347  1.0614 -0.0746  0.3712
12386TIP3    H158573   4.804   0.556   2.350  1.2186  0.0256 -0.7832
12386TIP3    H258574   4.654   0.569   2.364  1.0402 -0.8490 -1.8158
12387TIP3   OH258575   2.098   2.334   0.928 -0.5077  0.5631 -0.1450
12387TIP3    H158576   2.032   2.379   0.980  0.1306  0.5887  0.6449
12387TIP3    H258577   2.051   2.304   0.850 -1.5384  0.2540  0.5891
12388TIP3   OH258578   0.869   3.137  13.894 -0.2754 -0.0750 -0.1668
12388TIP3    H158579   0.881   3.055  13.846  2.2646 -0.0683  0.3665
12388TIP3    H258580   0.883   3.205  13.828 -0.9077 -0.0728 -0.2974
12389TIP3   OH258581   5.071   5.057  11.966 -0.0333 -0.0179  0.7421
12389TIP3    H158582   5.135   5.080  11.899 -0.6139  0.8053  0.4658
12389TIP3    H258583   5.003   5.124  11.960 -0.7091 -0.6254  1.3261
12390TIP3   OH258584   5.631   3.459  14.173 -0.5256 -0.2759  0.1458
12390TIP3    H158585   5.691   3.446  14.246 -1.4735  0.7453  1.1287
12390TIP3    H258586   5.688   3.480  14.098  0.3517  0.5988  1.0451
12391TIP3   OH258587   0.417   0.736  15.451 -0.3468 -0.6044 -0.0150
12391TIP3    H158588   0.343   0.761  15.506 -0.3722 -2.0114  0.6038
12391TIP3    H258589   0.405   0.643  15.435 -0.3928 -0.1995 -2.5166
12392TIP3   OH258590   2.861   5.668   5.043  0.3068  0.1685  0.1716
12392TIP3    H158591   2.827   5.757   5.050  1.2696  0.6807 -1.3257
12392TIP3    H258592   2.878   5.642   5.134 -2.0431  0.6663  0.7855
12393TIP3   OH258593   0.259   6.438   3.285 -0.9213 -0.3991  0.5170
12393TIP3    H158594   0.236   6.510   3.344 -2.9031 -1.9809  1.7477
12393TIP3    H258595   0.257   6.360   3.340 -2.0718 -1.8240 -1.4564
12394TIP3   OH258596   4.950   4.113   2.414  0.0780 -0.6310 -0.0554
12394TIP3    H158597   4.942   4.176   2.342 -1.4600  2.3682  2.6387
12394TIP3    H258598   4.866   4.067   2.414  0.4246 -1.2820 -0.7141
12395TIP3   OH258599   4.856   4.569  14.844 -0.3253  0.0636 -0.6359
12395TIP3    H158600   4.769   4.552  14.881 -0.1325  0.7024  0.1277
12395TIP3    H258601   4.908   4.493  14.868  0.5388  1.6394  2.7710
12396TIP3   OH258602   2.229   5.731   5.493 -0.4358 -0.6169 -0.5424
12396TIP3    H158603   2.208   5.821   5.468 -1.0169 -0.8178 -0.7809
12396TIP3    H258604   2.162   5.708   5.557  1.5363  0.2003  1.9131
12397TIP3   OH258605   2.078   4.329  11.744 -0.4833  0.4428  0.1714
12397TIP3    H158606   2.066   4.301  11.835 -1.0698  1.7491  0.5076
12397TIP3    H258607   2.001   4.296  11.699 -0.3932  0.1420  0.2377
12398TIP3   OH258608   3.148   2.903  16.022  0.4141  0.4608  0.4950
12398TIP3    H158609   3.145   2.842  15.948  1.8103  1.9127 -0.8046
12398TIP3    H258610   3.057   2.934  16.030  0.4752  1.2289 -1.4548
12399TIP3   OH258611   0.707   6.006  14.899  0.5330 -0.3409 -0.3508
12399TIP3    H158612   0.633   5.961  14.939 -0.3285  0.7063 -0.7283
12399TIP3    H258613   0.784   5.974  14.946 -0.1269 -1.6603 -0.1460
12400TIP3   OH258614   0.184   1.960   0.240  0.2375  0.3240  0.6781
12400TIP3    H158615   0.159   1.914   0.159  0.4815 -0.5520  1.0992
12400TIP3    H258616   0.104   2.004   0.268  0.6973  2.5119 -1.2622
12401TIP3   OH258617   6.678   2.269  16.123 -0.3158  0.5653  0.1488
12401TIP3    H158618   6.762   2.266  16.076 -0.2491  0.1676  0.2912
12401TIP3    H258619   6.692   2.332  16.193 -0.3245  0.9478 -0.1926
12402TIP3   OH258620   6.369   1.411  11.312 -0.1472  0.4202  0.2258
12402TIP3    H158621   6.464   1.401  11.306 -0.1272  1.3585 -0.9617
12402TIP3    H258622   6.334   1.330  11.274  0.1538  0.6094 -0.4500
12403TIP3   OH258623   3.636   2.740   2.418 -0.0073  1.0417  0.6190
12403TIP3    H158624   3.698   2.767   2.350  0.9024 -1.0872  0.5459
12403TIP3    H258625   3.550   2.744   2.376  0.4304  0.9018 -0.2914
12404TIP3   OH258626   4.267   6.029  15.950 -0.5063  0.2541 -0.4169
12404TIP3    H158627   4.306   6.103  15.903  0.5401 -0.1634 -0.2209
12404TIP3    H258628   4.172   6.042  15.940 -0.3397  1.5063 -0.5585
12405TIP3   OH258629   1.425   1.332   2.006  0.3133  0.3010 -0.4852
12405TIP3    H158630   1.420   1.424   2.031 -0.4560  0.0953  0.1329
12405TIP3    H258631   1.381   1.327   1.921  0.9549  0.6110 -0.8438
12406TIP3   OH258632   3.657   3.857  16.977 -0.2322 -0.4187  0.1989
12406TIP3    H158633   3.685   3.947  16.959  0.1638 -0.2856  1.4321
12406TIP3    H258634   3.737   3.811  17.002 -0.4709 -1.0590 -0.2086
12407TIP3   OH258635   5.987   6.491  14.365  0.4577 -0.1856 -0.6984
12407TIP3    H158636   6.034   6.407  14.358  1.2751  0.0275  1.6151
12407TIP3    H258637   5.903   6.468  14.404  1.1207  0.1488  1.0161
12408TIP3   OH258638   0.173   3.920  12.201 -0.2058  0.6759  0.2460
12408TIP3    H158639   0.180   3.924  12.297 -0.8060  1.2332  0.2736
12408TIP3    H258640   0.105   3.984  12.180 -2.1504 -1.5079 -0.3224
12409TIP3   OH258641   0.193   3.667   3.543 -0.0752  0.0369  0.1243
12409TIP3    H158642   0.189   3.722   3.465  0.6629 -0.4869 -0.2883
12409TIP3    H258643   0.155   3.583   3.515 -0.5893  0.1251  0.5618
12410TIP3   OH258644   1.361   3.652   2.013  0.2353  0.5848 -0.1653
12410TIP3    H158645   1.336   3.744   2.011  0.2249  0.5732 -0.6530
12410TIP3    H258646   1.282   3.605   1.988 -0.7307  0.2263  3.2810
12411TIP3   OH258647   0.442   0.290   1.422  0.2821 -0.8592 -0.5193
12411TIP3    H158648   0.534   0.267   1.435  0.2746 -1.9535 -2.1712
12411TIP3    H258649   0.444   0.355   1.351 -0.1634 -0.4441 -0.1474
12412TIP3   OH258650   1.886   6.667   4.154 -0.6698  0.4346  0.0035
12412TIP3    H158651   1.923   6.677   4.241  2.1689  3.4052 -1.3963
12412TIP3    H258652   1.815   6.732   4.151  0.3995  1.6222 -0.4075
12413TIP3   OH258653   5.369   1.874   0.312  0.1389 -0.0093 -0.5476
12413TIP3    H158654   5.320   1.816   0.370  0.9005  0.4461  0.5696
12413TIP3    H258655   5.302   1.923   0.264 -0.5076  0.4304  0.7847
12414TIP3   OH258656   4.650   2.418   5.957  0.0819  0.5067 -0.4292
12414TIP3    H158657   4.602   2.359   6.015  0.3045  0.8546  0.1059
12414TIP3    H258658   4.646   2.374   5.872 -1.0199  0.4363 -0.3542
12415TIP3   OH258659   5.497   1.650  17.086 -0.3758  0.4379  0.4123
12415TIP3    H158660   5.412   1.621  17.118 -0.0023 -0.8733  0.2572
12415TIP3    H258661   5.523   1.721  17.145 -0.7821 -0.3394  1.5413
12416TIP3   OH258662   4.925   4.410   2.895  0.3201 -0.5725 -0.1192
12416TIP3    H158663   4.837   4.413   2.933  0.3442 -1.1007 -0.0063
12416TIP3    H258664   4.976   4.471   2.947  0.3102 -1.1595  0.5901
12417TIP3   OH258665   6.154   5.094  11.915  0.3747 -0.2134  0.0812
12417TIP3    H158666   6.176   5.142  11.836  1.1977  0.4092  0.6742
12417TIP3    H258667   6.237   5.085  11.962 -0.0753 -0.6791  0.8087
12418TIP3   OH258668   3.923   3.535   1.348  0.6626 -0.9532  0.0511
12418TIP3    H158669   3.885   3.555   1.433  1.2239 -1.8197  0.5113
12418TIP3    H258670   3.980   3.610   1.329 -0.6605 -0.0086 -0.2968
12419TIP3   OH258671   3.153   6.477   3.720 -0.0589  0.1472 -0.1743
12419TIP3    H158672   3.106   6.428   3.652 -2.6259 -0.9493  2.2882
12419TIP3    H258673   3.151   6.419   3.797 -0.7666  2.9719  2.0045
12420TIP3   OH258674   3.218   4.023   5.383  0.2186 -0.3620 -0.1166
12420TIP3    H158675   3.263   4.044   5.301 -0.1133  0.4621 -0.0939
12420TIP3    H258676   3.283   4.041   5.451 -0.0151  0.4947 -0.1064
12421TIP3   OH258677   6.470   1.450  16.255 -0.0688 -0.1099 -0.2537
12421TIP3    H158678   6.394   1.392  16.253  0.3260 -0.6532  0.3347
12421TIP3    H258679   6.492   1.464  16.163 -1.9589  1.4926 -0.4898
12422TIP3   OH258680   6.305   6.592  12.717 -0.0770  0.1372 -0.0382
12422TIP3    H158681   6.311   6.675  12.765 -0.6566  0.3617 -0.3581
12422TIP3    H258682   6.339   6.612  12.630 -0.7241  0.1676 -0.2812
12423TIP3   OH258683   1.749   6.519   5.612 -0.2387  0.3482  0.2004
12423TIP3    H158684   1.790   6.434   5.597 -0.0431  0.8244 -2.3381
12423TIP3    H258685   1.803   6.560   5.680  0.7116 -0.8650  0.2036
12424TIP3   OH258686   3.612   2.071  14.868 -0.1497 -0.4118  0.6222
12424TIP3    H158687   3.693   2.044  14.824  0.5638 -1.0045  2.2697
12424TIP3    H258688   3.553   2.095  14.796  1.1793 -0.8165 -0.6371
12425TIP3   OH258689   0.127   5.013  16.821  0.2549  0.2132 -0.4645
12425TIP3    H158690   0.111   4.928  16.780  0.8679 -1.0594  1.7961
12425TIP3    H258691   0.217   5.007  16.854 -0.6182  0.6418  2.1673
12426TIP3   OH258692   0.388   5.511  14.455  0.0726  0.3934 -0.4427
12426TIP3    H158693   0.424   5.600  14.451  1.1464  0.0485  1.0740
12426TIP3    H258694   0.318   5.518  14.520 -0.4152  0.3175 -0.9587
12427TIP3   OH258695   4.792   0.035   5.274 -0.1771 -0.3439  0.5082
12427TIP3    H158696   4.757   0.053   5.187 -0.3153 -0.2367  0.5865
12427TIP3    H258697   4.872  -0.014   5.258 -0.7412 -1.2367  0.3433
12428TIP3   OH258698   1.206   4.141  11.613 -0.4765  0.2747  0.2350
12428TIP3    H158699   1.262   4.077  11.658  1.5282  1.4383 -0.5214
12428TIP3    H258700   1.176   4.095  11.535 -2.0126 -0.9383  1.5078
12429TIP3   OH258701   1.567   3.019  14.586 -0.2021 -0.1882  0.3162
12429TIP3    H158702   1.474   3.016  14.607 -0.0575 -0.0138  0.9780
12429TIP3    H258703   1.571   3.060  14.499 -0.8134 -1.1885 -0.1874
12430TIP3   OH258704   2.662   1.835  12.950  0.1368  0.1222 -0.1919
12430TIP3    H158705   2.626   1.923  12.946 -0.7861 -0.0340  2.8548
12430TIP3    H258706   2.585   1.778  12.942  0.3642 -0.3199  0.6739
12431TIP3   OH258707   4.874   3.489  12.836 -0.0032 -0.1823 -0.3945
12431TIP3    H158708   4.888   3.561  12.897  0.6984 -1.0323  0.4604
12431TIP3    H258709   4.803   3.438  12.875 -0.0541 -0.3152 -0.6619
12432TIP3   OH258710   3.091   3.210  17.070  0.2596  0.7662 -0.0225
12432TIP3    H158711   3.013   3.266  17.073  1.0360  1.9150 -0.8073
12432TIP3    H258712   3.099   3.175  17.159 -0.8413  1.0746  0.1968
12433TIP3   OH258713   4.914   1.438   2.485 -0.1796  0.7476 -0.1504
12433TIP3    H158714   4.861   1.358   2.485 -0.0630  0.5992  2.9257
12433TIP3    H258715   4.850   1.509   2.491 -0.1944  0.7436 -0.2711
12434TIP3   OH258716   2.463   1.881  16.951  0.1331 -0.1262  0.3467
12434TIP3    H158717   2.397   1.933  16.906  0.3429 -0.2809 -0.1412
12434TIP3    H258718   2.415   1.805  16.984  0.1050 -0.3528 -0.2018
12435TIP3   OH258719   6.529   4.520  14.499  0.2234  0.2879  0.4233
12435TIP3    H158720   6.545   4.492  14.589 -0.0605 -0.8360  0.1351
12435TIP3    H258721   6.585   4.463  14.446  0.0381  0.6238 -0.1392
12436TIP3   OH258722   4.522   5.948   5.629 -0.1083 -0.5583  0.0621
12436TIP3    H158723   4.568   5.997   5.561 -1.8451  2.1849  0.7867
12436TIP3    H258724   4.458   5.895   5.581 -1.8845  1.9826 -0.4757
12437TIP3   OH258725   5.269   4.012   3.029 -0.0993 -0.1396 -0.5246
12437TIP3    H158726   5.222   4.013   2.946  0.1342  0.4566 -0.6547
12437TIP3    H258727   5.246   4.096   3.070  0.1454 -0.2341 -0.1952
12438TIP3   OH258728   0.282   1.541   2.510 -0.5384  0.1363 -0.3475
12438TIP3    H158729   0.312   1.542   2.419 -0.2943 -1.8242 -0.3224
12438TIP3    H258730   0.188   1.526   2.505 -0.5548  0.2135 -0.2804
12439TIP3   OH258731   1.104   1.916   5.616  0.2078  0.1341  0.3977
12439TIP3    H158732   1.160   1.908   5.693 -0.3687 -1.2051  0.6820
12439TIP3    H258733   1.080   1.826   5.593  1.5717  0.4100 -2.2481
12440TIP3   OH258734   0.614   4.664  15.010 -0.3996 -0.0382  0.0275
12440TIP3    H158735   0.638   4.605  14.939  0.7073 -0.2421  0.5528
12440TIP3    H258736   0.687   4.727  15.014  0.1672 -0.7723  1.7801
12441TIP3   OH258737   3.976   5.822   6.480  0.1418  0.3028  0.1567
12441TIP3    H158738   3.894   5.774   6.472 -0.0458  0.4833  0.9567
12441TIP3    H258739   3.954   5.911   6.451  0.4575 -0.0521 -1.1946
12442TIP3   OH258740   1.821   0.750   5.896  0.0679  0.4480  0.0424
12442TIP3    H158741   1.787   0.706   5.974 -1.1327  1.9057  0.3627
12442TIP3    H258742   1.765   0.827   5.885  0.1013  0.1742 -2.3616
12443TIP3   OH258743   3.202   6.305  12.917 -0.3664  0.1515  0.4926
12443TIP3    H158744   3.144   6.381  12.920 -0.3168  0.3352 -2.0979
12443TIP3    H258745   3.145   6.232  12.892  0.5655  0.4658 -2.7710
12444TIP3   OH258746   2.105   4.826  14.064 -0.3802  0.2434  0.1686
12444TIP3    H158747   2.015   4.853  14.046 -0.6727 -0.1734  0.9776
12444TIP3    H258748   2.152   4.842  13.982 -1.5557 -1.0873 -0.7796
12445TIP3   OH258749   4.989   2.786  11.697 -0.4089 -0.6020  0.6807
12445TIP3    H158750   4.997   2.759  11.789  1.1701  1.2308  1.1271
12445TIP3    H258751   5.041   2.866  11.692 -0.6085 -0.6085 -1.7997
12446TIP3   OH258752   5.880   1.797  16.847  0.0564 -0.3506 -0.0006
12446TIP3    H158753   5.806   1.826  16.792  1.0413 -0.5167 -1.4364
12446TIP3    H258754   5.838   1.749  16.919 -1.1991 -1.4305 -1.4028
12447TIP3   OH258755   2.884   3.971  15.786 -0.5655  0.0153 -0.1965
12447TIP3    H158756   2.957   3.968  15.724  0.7819 -1.1241  1.3836
12447TIP3    H258757   2.904   4.046  15.843 -1.0952  0.2428 -0.3064
12448TIP3   OH258758   1.499   6.040   0.274  0.0180  0.7503  0.1242
12448TIP3    H158759   1.439   5.966   0.264 -0.4772  1.4196 -2.2872
12448TIP3    H258760   1.564   6.027   0.205  0.8256  1.7437  0.6895
12449TIP3   OH258761   2.190   1.042  12.845  0.8870 -0.2624  0.0839
12449TIP3    H158762   2.216   1.057  12.754 -0.9195 -2.6044 -0.8722
12449TIP3    H258763   2.265   0.998  12.884  0.7219 -1.4936 -0.9743
12450TIP3   OH258764   5.320   3.344   1.135  0.1117  0.7767  0.1174
12450TIP3    H158765   5.385   3.274   1.140  0.5204  1.2757  2.4479
12450TIP3    H258766   5.364   3.420   1.174 -1.9601  1.0338  2.0476
12451TIP3   OH258767   6.632   3.779   1.261  0.0372  1.0161 -0.4867
12451TIP3    H158768   6.631   3.754   1.168 -0.3664 -0.7152 -0.0370
12451TIP3    H258769   6.700   3.724   1.299 -0.9529  0.5174  0.5678
12452TIP3   OH258770   1.962   0.987   5.637  0.2206  0.2418 -0.2415
12452TIP3    H158771   1.971   0.979   5.732  1.2879  3.1109 -0.0517
12452TIP3    H258772   2.039   0.943   5.601 -1.0866 -2.4300  0.0949
12453TIP3   OH258773   5.723   1.267   3.749  0.1247 -0.1582 -0.4410
12453TIP3    H158774   5.772   1.271   3.667  0.2732  0.8930 -0.3123
12453TIP3    H258775   5.632   1.278   3.723  0.1373 -0.2002 -0.5013
12454TIP3   OH258776   5.758   5.362   1.857 -0.5590  0.5321  0.5195
12454TIP3    H158777   5.697   5.390   1.789  0.5228  0.9133 -0.2855
12454TIP3    H258778   5.833   5.420   1.849  1.1299 -1.7004 -0.3006
12455TIP3   OH258779   1.112   5.736  11.838 -0.3178  0.5230  0.0889
12455TIP3    H158780   1.070   5.665  11.886  0.0987  1.2098  1.4972
12455TIP3    H258781   1.071   5.815  11.872  0.8357  1.0934  0.1631
12456TIP3   OH258782   6.093   3.096   5.566 -0.0887 -0.1144 -0.6908
12456TIP3    H158783   6.174   3.061   5.605 -0.0635  0.2380 -0.4292
12456TIP3    H258784   6.039   3.120   5.641 -0.0082  0.6346 -0.8756
12457TIP3   OH258785   1.517   1.020   3.553  0.2107 -0.0835 -0.2894
12457TIP3    H158786   1.578   1.016   3.626  0.4301  0.8062 -0.4122
12457TIP3    H258787   1.539   0.945   3.497  0.3928 -0.4522  0.2818
12458TIP3   OH258788   4.700   5.598   4.852 -0.0487  0.0788 -0.1618
12458TIP3    H158789   4.764   5.527   4.849  0.6545  0.7541 -1.6301
12458TIP3    H258790   4.752   5.677   4.837 -1.0158  0.7806  0.1780
12459TIP3   OH258791   1.863   2.423   1.019  0.3791 -0.1016  0.2041
12459TIP3    H158792   1.825   2.339   0.993 -0.7936  0.5264 -0.1349
12459TIP3    H258793   1.795   2.487   0.999  0.9572  0.8379  1.2232
12460TIP3   OH258794   3.869   0.005  15.565  0.2847 -1.3320  0.1120
12460TIP3    H158795   3.936   0.018  15.498 -0.9465 -1.3251 -1.1402
12460TIP3    H258796   3.799  -0.043  15.520 -1.6215  0.7687  0.7308
12461TIP3   OH258797   6.672   4.045  10.462  0.5171  0.2201  0.6159
12461TIP3    H158798   6.741   4.062  10.527  0.1170 -0.7457  1.3098
12461TIP3    H258799   6.600   4.009  10.513  0.4969 -1.3127 -0.4773
12462TIP3   OH258800   5.415   3.397  17.067 -0.1021  0.1830 -0.3247
12462TIP3    H158801   5.369   3.424  17.146  0.9886 -0.3033  0.4941
12462TIP3    H258802   5.350   3.352  17.014 -1.5158  2.7894 -0.9110
12463TIP3   OH258803   0.773   0.005   0.923  0.1978  0.2210  0.0235
12463TIP3    H158804   0.761   0.033   1.014 -2.3241  0.9627 -0.4998
12463TIP3    H258805   0.768   0.086   0.872 -2.2613 -0.5661 -1.0786
12464TIP3   OH258806   0.856   5.538  12.078 -0.7103 -0.3510  0.1430
12464TIP3    H158807   0.823   5.539  11.988 -2.9226 -0.5494  0.9347
12464TIP3    H258808   0.790   5.489  12.127 -0.9655  2.2042  2.4134
12465TIP3   OH258809   4.860   5.949  14.943 -0.2578 -0.0054 -0.4104
12465TIP3    H158810   4.774   5.907  14.938 -0.0349 -0.5370  0.0569
12465TIP3    H258811   4.908   5.915  14.868  0.3210 -1.5480  0.6081
12466TIP3   OH258812   5.756   5.730   5.533  0.8192 -0.2223  0.0076
12466TIP3    H158813   5.716   5.758   5.452  1.0019  2.5051  0.8163
12466TIP3    H258814   5.840   5.776   5.536  0.7691 -0.1890  1.7822
12467TIP3   OH258815   4.680   0.922   4.835  0.0832 -0.1637 -0.2832
12467TIP3    H158816   4.636   0.895   4.755 -0.3302  0.9212 -0.4243
12467TIP3    H258817   4.649   1.011   4.851  0.0389 -0.4291  1.1691
12468TIP3   OH258818   5.585   5.440   1.158 -0.1735  0.0368 -0.7622
12468TIP3    H158819   5.677   5.431   1.135 -0.1931  0.9806 -1.2490
12468TIP3    H258820   5.539   5.442   1.074 -0.8161 -2.0248 -0.4989
12469TIP3   OH258821   1.931   6.003  13.407  0.0158 -0.2496  0.0997
12469TIP3    H158822   1.851   6.029  13.362 -0.0644 -0.7115 -0.0284
12469TIP3    H258823   1.913   5.916  13.441  0.5928 -0.5099 -0.2505
12470TIP3   OH258824   5.141   5.033   2.426 -0.5157  0.4590 -0.6193
12470TIP3    H158825   5.052   5.010   2.453 -0.4243  0.5577 -0.2270
12470TIP3    H258826   5.193   4.957   2.451 -0.2783  0.9206  0.3260
12471TIP3   OH258827   1.064   6.296  15.605  0.1084  0.1472 -0.4960
12471TIP3    H158828   1.099   6.336  15.685 -1.4863 -0.4943  0.5325
12471TIP3    H258829   1.068   6.366  15.539 -0.2169  1.1984  0.5981
12472TIP3   OH258830   6.390   3.930  16.946  0.3764  0.0453  0.4143
12472TIP3    H158831   6.383   4.024  16.928 -0.8918  0.0983  1.1490
12472TIP3    H258832   6.484   3.915  16.956  0.9405  0.5109 -3.4756
12473TIP3   OH258833   3.025   2.853   5.103  0.9632  0.0627 -0.6296
12473TIP3    H158834   2.950   2.867   5.045  0.5720  0.8837  0.0698
12473TIP3    H258835   3.038   2.937   5.146  1.1153 -0.5989  0.6322
12474TIP3   OH258836   2.673   5.214  14.725  0.5329  0.1943 -0.1173
12474TIP3    H158837   2.599   5.153  14.724 -0.3647  1.2775 -0.1975
12474TIP3    H258838   2.673   5.251  14.813 -0.2961  1.7152 -0.7296
12475TIP3   OH258839   1.058   6.536   3.802 -0.3433 -0.0508  0.8810
12475TIP3    H158840   1.017   6.456   3.835 -0.8701 -0.3943 -0.5703
12475TIP3    H258841   1.039   6.602   3.869 -0.8489 -0.8788  1.5632
12476TIP3   OH258842   2.829   4.552   5.096  0.5521 -0.3879 -0.0751
12476TIP3    H158843   2.867   4.633   5.063 -0.0005 -0.2997 -0.4885
12476TIP3    H258844   2.858   4.548   5.188  2.3093 -0.7797 -0.6278
12477TIP3   OH258845   3.993   2.427   1.129 -0.3815  0.2035  0.0496
12477TIP3    H158846   3.930   2.497   1.112 -0.4954  0.1106  0.0910
12477TIP3    H258847   4.013   2.392   1.042  1.6593  2.0070 -0.2613
12478TIP3   OH258848   0.059   6.046  11.469 -0.1158  0.2503 -0.5103
12478TIP3    H158849   0.118   5.984  11.426 -1.1997  0.0674 -1.7975
12478TIP3    H258850   0.073   6.033  11.562 -0.7469 -2.3526 -0.7570
12479TIP3   OH258851   5.053   3.748  12.591 -0.2015 -0.1582 -0.1649
12479TIP3    H158852   5.020   3.766  12.502 -2.1169 -0.5010  0.4452
12479TIP3    H258853   5.108   3.671  12.581 -0.5152 -0.2747 -1.0415
12480TIP3   OH258854   6.482   0.920  11.222  0.1014  0.2730  0.5152
12480TIP3    H158855   6.423   0.957  11.156 -0.1258  1.5514  1.4304
12480TIP3    H258856   6.470   0.825  11.213  0.9561  0.3703 -2.0871
12481TIP3   OH258857   0.105   2.883   1.794 -0.4866  0.1755 -0.3994
12481TIP3    H158858   0.069   2.795   1.805  0.1439 -0.1393 -0.8368
12481TIP3    H258859   0.103   2.921   1.882  2.1056 -1.3860  0.3996
12482TIP3   OH258860   1.516   4.775  12.405 -0.1053  0.5088 -0.5788
12482TIP3    H158861   1.424   4.761  12.426 -0.3964  2.6986 -0.2564
12482TIP3    H258862   1.561   4.767  12.490  0.0569 -0.8313 -0.7778
12483TIP3   OH258863   2.215   1.753  11.805  0.0081 -0.3760  0.3959
12483TIP3    H158864   2.153   1.682  11.789  0.0319 -0.4476  0.6187
12483TIP3    H258865   2.165   1.819  11.852 -0.6164  0.7374 -1.7949
12484TIP3   OH258866   4.135   5.973  17.017 -0.1379 -0.5425  0.1050
12484TIP3    H158867   4.079   5.934  17.085 -0.1181 -2.1820 -0.8059
12484TIP3    H258868   4.083   5.967  16.937  0.2606  0.4287 -0.2223
12485TIP3   OH258869   3.296   3.794  15.938 -0.1310  0.0614  0.2417
12485TIP3    H158870   3.311   3.759  15.850  0.6677  0.1026  0.3599
12485TIP3    H258871   3.383   3.803  15.976 -0.5094 -0.5954  1.2943
12486TIP3   OH258872   0.221   0.255  15.088 -0.0958 -0.2431  0.0086
12486TIP3    H158873   0.129   0.278  15.104 -0.1209  0.1511 -0.6811
12486TIP3    H258874   0.221   0.160  15.081 -0.4191 -0.2603  0.2060
12487TIP3   OH258875   1.607   2.219  11.522 -0.1459 -0.2598  0.2721
12487TIP3    H158876   1.653   2.268  11.453 -0.7401 -1.2559 -0.8488
12487TIP3    H258877   1.620   2.127  11.499 -0.8027 -0.5887  1.2038
12488TIP3   OH258878   4.035   4.566   3.963 -0.3316  0.0516 -0.4610
12488TIP3    H158879   4.101   4.635   3.963 -0.8029  0.5148  0.5073
12488TIP3    H258880   4.015   4.552   4.055 -2.3965  0.7039 -0.7696
12489TIP3   OH258881   3.971   1.676   5.017 -0.3965 -0.1440 -0.0808
12489TIP3    H158882   3.962   1.593   4.970  1.5538  0.0720 -0.8659
12489TIP3    H258883   4.048   1.717   4.979 -1.5071  2.1977  0.0887
12490TIP3   OH258884   2.854   0.937   4.553 -0.0206 -0.5426  0.4028
12490TIP3    H158885   2.777   0.896   4.592 -0.0268 -0.5298  0.4039
12490TIP3    H258886   2.824   1.023   4.524 -0.2090 -0.8642 -0.3498
12491TIP3   OH258887   2.627   3.281   2.052  0.1852  0.7297  0.5751
12491TIP3    H158888   2.584   3.280   1.966 -1.1486 -0.0594  1.2324
12491TIP3    H258889   2.655   3.371   2.064  0.7974  0.7463 -0.8919
12492TIP3   OH258890   3.572   5.822   1.011  0.2821  0.1778 -0.0273
12492TIP3    H158891   3.542   5.820   0.919  0.6576  1.2920 -0.1806
12492TIP3    H258892   3.643   5.886   1.011  0.3247  0.1249  1.0374
12493TIP3   OH258893   3.375   5.619  11.480 -0.1034  0.0701  0.2077
12493TIP3    H158894   3.416   5.552  11.425 -0.4253 -0.2188  0.3231
12493TIP3    H258895   3.373   5.697  11.424 -1.2449 -0.4634 -0.4991
12494TIP3   OH258896   1.126   5.521  14.639  0.0531 -0.4286 -0.3945
12494TIP3    H158897   1.146   5.572  14.718 -1.0582 -2.1815  1.0861
12494TIP3    H258898   1.206   5.523  14.587  0.6792  1.0877  0.6064
12495TIP3   OH258899   0.981   5.920  16.661 -0.0480 -0.2321 -0.2278
12495TIP3    H158900   0.979   6.014  16.677  0.0642 -0.1015 -0.9815
12495TIP3    H258901   1.074   5.896  16.669 -0.2153 -0.5048  1.1984
12496TIP3   OH258902   3.490   0.884   1.418  0.1059  0.5390  0.0114
12496TIP3    H158903   3.522   0.962   1.464 -0.3051  0.9901 -0.4679
12496TIP3    H258904   3.396   0.881   1.436  0.1929 -0.1103  0.4085
12497TIP3   OH258905   2.330   2.054  16.803  0.2534 -0.8407  0.2096
12497TIP3    H158906   2.300   2.139  16.836  0.1627 -1.2177  1.0921
12497TIP3    H258907   2.314   2.059  16.709  0.6974  0.3120  0.1860
12498TIP3   OH258908   2.845   1.235  16.948 -0.4752 -0.3055 -0.3395
12498TIP3    H158909   2.913   1.261  17.011 -0.8385 -1.2638  0.4703
12498TIP3    H258910   2.893   1.215  16.868  0.0100  0.7912 -0.3374
12499TIP3   OH258911   4.226   0.172  16.919  0.9781  0.0562 -0.0454
12499TIP3    H158912   4.295   0.177  16.985  0.6182  1.0557  0.2549
12499TIP3    H258913   4.252   0.236  16.853 -0.6032  1.8116  0.9707
12500TIP3   OH258914   2.619   4.938   4.432  0.1062 -0.1083 -0.5292
12500TIP3    H158915   2.690   4.874   4.439 -0.1855 -0.7382 -2.7356
12500TIP3    H258916   2.655   5.009   4.379 -0.5150  0.1277 -0.6467
12501TIP3   OH258917   6.376   4.267  12.492 -0.5812 -0.4837 -0.5196
12501TIP3    H158918   6.357   4.179  12.526 -0.1798  0.2001  1.5364
12501TIP3    H258919   6.310   4.323  12.533  0.2048  0.4416 -0.4972
12502TIP3   OH258920   0.306   2.515   6.062 -0.3332  0.5843 -0.3796
12502TIP3    H158921   0.274   2.595   6.105  0.5066  0.9592 -0.4503
12502TIP3    H258922   0.288   2.530   5.969  0.4414  0.9857 -0.4695
12503TIP3   OH258923   6.263   5.764   4.204 -0.2709  1.3817 -0.3419
12503TIP3    H158924   6.356   5.780   4.186 -0.2080  0.7609 -0.6126
12503TIP3    H258925   6.248   5.800   4.291  0.2284  1.4726 -0.2921
12504TIP3   OH258926   1.372   4.168   4.942 -0.6453  0.2874 -0.0162
12504TIP3    H158927   1.338   4.091   4.987  0.1114  0.3035  0.6006
12504TIP3    H258928   1.307   4.236   4.959 -2.1189 -0.6100 -1.8980
12505TIP3   OH258929   6.398   3.260  16.982 -0.4215 -0.5185 -0.3472
12505TIP3    H158930   6.361   3.227  16.900  0.1511  1.2060 -1.3250
12505TIP3    H258931   6.492   3.265  16.965 -0.3145 -0.0225  0.3887
12506TIP3   OH258932   5.072   1.916   0.437 -0.2172 -0.0960  0.2907
12506TIP3    H158933   5.043   1.946   0.523 -0.0377  1.2331 -0.1154
12506TIP3    H258934   4.994   1.876   0.398 -0.5964  0.3405  0.5988
12507TIP3   OH258935   3.990   1.793  15.351 -0.0106 -0.2543 -0.1190
12507TIP3    H158936   4.083   1.808  15.370 -0.0614 -1.3418  0.9998
12507TIP3    H258937   3.969   1.859  15.285  0.4730  2.7777  2.6367
12508TIP3   OH258938   1.010   1.251  14.501 -0.1450  0.2191 -0.0077
12508TIP3    H158939   1.091   1.302  14.506  1.0065 -1.4640 -0.9230
12508TIP3    H258940   1.022   1.180  14.564 -0.0113 -1.2418 -1.6564
12509TIP3   OH258941   3.007   5.191   1.287 -0.6760  0.7355 -0.0637
12509TIP3    H158942   3.007   5.098   1.266 -1.1453  1.0921 -1.7394
12509TIP3    H258943   3.057   5.198   1.368  2.1793 -0.5826 -1.6420
12510TIP3   OH258944   1.613   4.751   4.501 -0.6489 -0.0237 -0.4372
12510TIP3    H158945   1.591   4.844   4.509 -0.1564  0.2619 -2.1679
12510TIP3    H258946   1.704   4.746   4.532 -0.5350  0.1478 -0.7385
12511TIP3   OH258947   4.749   6.098  15.809  0.3136  0.2921  0.0553
12511TIP3    H158948   4.788   6.184  15.819 -0.0310  0.3594  0.8949
12511TIP3    H258949   4.659   6.108  15.842  0.2608 -0.3750  0.1329
12512TIP3   OH258950   0.932   0.392   1.892 -0.4522  0.6528 -0.6740
12512TIP3    H158951   0.985   0.434   1.825  2.0338 -0.2726  0.6342
12512TIP3    H258952   0.935   0.452   1.967 -0.3413  0.1069 -0.2329
12513TIP3   OH258953   4.704   4.448  15.622  0.0020  0.2350  0.0310
12513TIP3    H158954   4.624   4.492  15.652 -0.3664  0.9396 -1.8910
12513TIP3    H258955   4.689   4.355  15.642 -2.4903 -0.0249 -2.7019
12514TIP3   OH258956   0.183   2.114  16.732 -0.2218  0.2496 -0.1635
12514TIP3    H158957   0.267   2.072  16.747 -0.4441 -0.0400  0.2851
12514TIP3    H258958   0.205   2.202  16.700  0.2396 -0.4651 -1.8479
12515TIP3   OH258959   1.364   4.132  13.936  0.1705  0.1737  0.2076
12515TIP3    H158960   1.283   4.182  13.923 -1.8642 -2.4755  2.2666
12515TIP3    H258961   1.402   4.168  14.016  0.0685  0.1682  0.2574
12516TIP3   OH258962   6.774   4.359  12.006 -0.1813 -0.3489 -0.2101
12516TIP3    H158963   6.748   4.439  12.052 -0.7872 -1.7838  2.0021
12516TIP3    H258964   6.870   4.361  12.005 -0.2013  0.4983 -0.3492
12517TIP3   OH258965   0.541   4.788   3.996  0.0930  0.0841 -0.2998
12517TIP3    H158966   0.554   4.730   3.921  0.2366 -1.7440  1.0864
12517TIP3    H258967   0.451   4.818   3.988 -1.3717 -3.6374  1.1207
12518TIP3   OH258968   5.183   1.254  11.063  0.6107 -0.0316  0.1383
12518TIP3    H158969   5.149   1.237  10.975  0.4348 -0.2707  0.2522
12518TIP3    H258970   5.105   1.257  11.118  0.8788 -2.3731  0.6945
12519TIP3   OH258971   5.396   5.387   3.234 -0.1153 -0.0932 -0.0129
12519TIP3    H158972   5.462   5.444   3.195 -0.6922 -0.1957 -1.1759
12519TIP3    H258973   5.356   5.439   3.303  0.6857  0.2248  0.2041
12520TIP3   OH258974   3.435   1.945   2.004  0.0806  0.3024  0.3908
12520TIP3    H158975   3.526   1.917   2.010  0.2419  0.3872 -1.3359
12520TIP3    H258976   3.388   1.867   1.973  0.1362  1.1993 -2.0649
12521TIP3   OH258977   0.082   3.364   1.007 -0.7417  0.6145  0.4656
12521TIP3    H158978   0.084   3.404   1.095 -1.5974 -0.5977  1.0437
12521TIP3    H258979   0.004   3.308   1.008  1.1015 -2.0159  0.0710
12522TIP3   OH258980   1.599   0.504   3.239 -0.3743  0.2717  0.2997
12522TIP3    H158981   1.519   0.505   3.186  0.1597  0.6562 -0.5118
12522TIP3    H258982   1.640   0.589   3.222  2.1785 -1.4099 -2.3617
12523TIP3   OH258983   1.605   1.265  15.551  0.0469 -0.0227  0.2478
12523TIP3    H158984   1.512   1.241  15.555 -0.9157  3.2278 -1.1977
12523TIP3    H258985   1.630   1.249  15.460  0.1764  1.6266 -0.0088
12524TIP3   OH258986   0.573   5.400   5.097 -0.4451  0.0312  0.1395
12524TIP3    H158987   0.513   5.327   5.110 -0.0344 -0.0730  1.5685
12524TIP3    H258988   0.647   5.362   5.050  0.7415 -0.9926  2.7617
12525TIP3   OH258989   2.181   2.958   5.389  0.3864  0.1923  0.1698
12525TIP3    H158990   2.146   2.937   5.475  0.2187  2.1143  0.5909
12525TIP3    H258991   2.256   3.015   5.406  0.1495  0.8684 -0.9455
12526TIP3   OH258992   1.544   0.113  10.945  0.0871 -0.1148  0.3749
12526TIP3    H158993   1.611   0.096  10.879 -0.6585 -0.8790 -0.1951
12526TIP3    H258994   1.514   0.026  10.972 -1.0383  0.2232  0.2463
12527TIP3   OH258995   3.155   1.932   3.521 -0.2354  0.4242 -0.0237
12527TIP3    H158996   3.213   1.866   3.483 -0.9278  0.0189 -0.3822
12527TIP3    H258997   3.182   2.014   3.480 -1.2149 -0.0609 -1.6890
12528TIP3   OH258998   6.673   5.120   4.186  0.3053  0.0272 -0.0286
12528TIP3    H158999   6.766   5.098   4.184  0.8078  1.9180  0.9800
12528TIP3    H259000   6.647   5.098   4.276  0.1100  0.7870  0.0963
12529TIP3   OH259001   0.506   5.184   1.736  0.3545 -0.0822  0.7043
12529TIP3    H159002   0.524   5.093   1.761  0.6078 -0.2469 -0.0919
12529TIP3    H259003   0.435   5.177   1.672  0.8414  0.2422  0.1368
12530TIP3   OH259004   6.680   5.981   0.867 -0.2939  0.3294 -0.3712
12530TIP3    H159005   6.673   5.939   0.953 -0.4860  1.9537  0.4216
12530TIP3    H259006   6.745   6.051   0.880  0.3425  0.0097 -1.7839
12531TIP3   OH259007   2.546   6.432   3.586  0.7749 -0.4021  0.5281
12531TIP3    H159008   2.546   6.490   3.511 -0.0609  0.9499  1.5596
12531TIP3    H259009   2.592   6.354   3.556 -0.0786 -0.1255 -1.5733
12532TIP3   OH259010   2.629   5.979  16.370 -0.1385 -0.2023  0.1995
12532TIP3    H159011   2.658   5.888  16.370  1.5856  0.3441  0.0888
12532TIP3    H259012   2.684   6.022  16.305 -0.7129  1.0068  0.4997
12533TIP3   OH259013   5.563   3.156  15.714  0.0728  0.2308  0.0024
12533TIP3    H159014   5.647   3.117  15.691  0.7199  0.2012  2.2600
12533TIP3    H259015   5.586   3.239  15.755 -0.9582  0.0029  1.0600
12534TIP3   OH259016   6.124   5.597  15.092  0.8027 -0.1355  0.2189
12534TIP3    H159017   6.051   5.659  15.092  0.5273 -0.4465  1.3257
12534TIP3    H259018   6.143   5.582  15.185 -0.0516 -2.7693  0.0041
12535TIP3   OH259019   0.371   5.568   5.204 -0.4089  0.2625 -0.0926
12535TIP3    H159020   0.456   5.532   5.178  1.0290  3.3474  0.1380
12535TIP3    H259021   0.338   5.506   5.268  0.7427 -2.0264 -1.6254
12536TIP3   OH259022   4.899   0.833   4.944 -0.0935 -0.8561  0.2712
12536TIP3    H159023   4.833   0.877   4.891 -0.0801 -0.3960  0.6352
12536TIP3    H259024   4.864   0.836   5.033 -0.3413 -2.0603  0.2145
12537TIP3   OH259025   6.734   1.863  15.255  0.2390  0.3676 -0.4337
12537TIP3    H159026   6.812   1.906  15.291 -0.8710  1.2719  0.9160
12537TIP3    H259027   6.700   1.924  15.191  0.3525  0.1861 -0.6686
12538TIP3   OH259028   4.579   6.294   4.767 -0.0738  0.1340 -0.1637
12538TIP3    H159029   4.630   6.230   4.817 -1.1190 -0.4965  0.1149
12538TIP3    H259030   4.488   6.268   4.782 -0.5103  1.7535  0.0275
12539TIP3   OH259031   5.304   0.700   4.483  0.5168 -0.0979  0.2230
12539TIP3    H159032   5.265   0.725   4.399  3.1141 -0.2187 -1.0480
12539TIP3    H259033   5.294   0.605   4.487 -0.9437  0.0589  0.7718
12540TIP3   OH259034   1.362   2.982   2.700 -0.0443  0.1281  0.0422
12540TIP3    H159035   1.317   3.003   2.782 -0.3252 -0.7047  0.0981
12540TIP3    H259036   1.365   2.887   2.697  0.1417  0.1555 -0.8227
12541TIP3   OH259037   5.699   3.975   0.031 -0.2715  0.3328 -0.3602
12541TIP3    H159038   5.647   4.054   0.047  0.9743  0.9150  0.9545
12541TIP3    H259039   5.683   3.954  -0.061 -1.5910  1.3982 -0.3837
12542TIP3   OH259040   3.081   1.539   2.416  0.2724 -0.8856  0.2276
12542TIP3    H159041   3.021   1.498   2.354  0.6188 -0.1280 -0.6031
12542TIP3    H259042   3.050   1.629   2.425  1.2391 -0.5100 -0.1440
12543TIP3   OH259043   4.038   6.738   4.142  0.3614  0.2267  0.2808
12543TIP3    H159044   4.047   6.799   4.215  0.8241  1.3180 -0.6718
12543TIP3    H259045   4.079   6.657   4.173  1.3650  0.9589  0.8911
12544TIP3   OH259046   0.453   6.672  11.086 -0.2670  0.5172 -0.0943
12544TIP3    H159047   0.372   6.722  11.084 -0.4511  0.2206 -0.0932
12544TIP3    H259048   0.482   6.670  10.994  1.1199  2.8484  0.2424
12545TIP3   OH259049   4.257   1.730  16.510  0.0643  0.0418  0.3256
12545TIP3    H159050   4.250   1.635  16.501  0.2625 -0.0613  1.2493
12545TIP3    H259051   4.274   1.744  16.603  1.2125  0.9076 -0.0090
12546TIP3   OH259052   5.839   4.020   3.399 -0.5852 -0.6799 -0.1841
12546TIP3    H159053   5.866   4.110   3.417 -2.6410 -0.1146  0.2118
12546TIP3    H259054   5.832   3.980   3.486 -0.9604 -0.8234 -0.2807
12547TIP3   OH259055   1.678   5.120  15.915  0.0777  0.1155  0.1326
12547TIP3    H159056   1.691   5.163  16.000  0.7713 -1.2157  0.7230
12547TIP3    H259057   1.674   5.027  15.936  0.2486 -0.2251 -1.3018
12548TIP3   OH259058   2.390   3.163   1.793 -0.1215  0.2200  0.3697
12548TIP3    H159059   2.355   3.193   1.877 -0.1369 -0.7405  0.7163
12548TIP3    H259060   2.379   3.068   1.795 -0.9956  0.2728 -1.1272
12549TIP3   OH259061   4.165   6.710  11.336 -0.3401  0.4161  0.4564
12549TIP3    H159062   4.142   6.636  11.280  0.5317  2.3060 -2.5610
12549TIP3    H259063   4.230   6.675  11.397 -0.9240 -1.6013 -0.0484
12550TIP3   OH259064   2.714   1.990   3.541  0.0271  0.0194  0.7821
12550TIP3    H159065   2.776   1.945   3.485  0.0727 -0.1975  1.0094
12550TIP3    H259066   2.675   2.057   3.484  0.6458  0.3239  0.7091
12551TIP3   OH259067   1.689   0.273  11.420 -0.2674  0.1565 -0.4334
12551TIP3    H159068   1.667   0.278  11.327 -0.1172 -0.7765 -0.5252
12551TIP3    H259069   1.748   0.198  11.426  0.3060  0.6569  0.3048
12552TIP3   OH259070   4.912   5.408   5.809 -0.4488  1.4002  0.3173
12552TIP3    H159071   4.898   5.416   5.714 -3.2073 -0.2580  0.5318
12552TIP3    H259072   4.980   5.341   5.817 -0.6727  1.0703 -0.4860
12553TIP3   OH259073   5.362   2.452   2.038 -0.2257 -0.2765 -0.3437
12553TIP3    H159074   5.430   2.519   2.053 -0.6399 -0.1021  0.7604
12553TIP3    H259075   5.400   2.395   1.971  1.0023 -0.1565  0.2261
12554TIP3   OH259076   4.634   6.482   5.460 -0.3005 -0.3615 -0.7374
12554TIP3    H159077   4.694   6.438   5.400 -0.0658 -2.4425  0.9212
12554TIP3    H259078   4.547   6.448   5.437 -0.2891 -0.6713 -0.3345
12555TIP3   OH259079   3.055   1.677  15.769 -0.4691  0.4795  0.2041
12555TIP3    H159080   3.034   1.676  15.675 -0.3773  0.6474  0.1816
12555TIP3    H259081   3.148   1.697  15.773  0.4377 -3.3715  0.2210
12556TIP3   OH259082   2.798   4.835   1.794  0.8751  0.2114 -0.0315
12556TIP3    H159083   2.859   4.888   1.846  2.3925  0.3630 -1.9083
12556TIP3    H259084   2.838   4.748   1.790  0.5333  0.0745 -0.5598
12557TIP3   OH259085   4.789   2.563  16.174  0.4255  0.0947  0.2631
12557TIP3    H159086   4.699   2.594  16.183 -0.8126 -1.9603 -3.7228
12557TIP3    H259087   4.787   2.473  16.208  1.5931  0.8469  2.4077
12558TIP3   OH259088   3.488   2.942  15.141 -0.6062  0.2442  0.5213
12558TIP3    H159089   3.544   2.933  15.064 -0.0641 -2.2531  1.1712
12558TIP3    H259090   3.412   2.991  15.110  0.2068  0.4286 -1.2630
12559TIP3   OH259091   1.143   1.443   4.609 -0.0128  0.4814  0.2657
12559TIP3    H159092   1.236   1.465   4.615  0.1870 -0.3673  0.3171
12559TIP3    H259093   1.118   1.468   4.521  0.5285 -0.2569 -0.1097
12560TIP3   OH259094   5.580   5.477  14.698  0.2115 -0.3698 -0.4651
12560TIP3    H159095   5.658   5.424  14.719  0.2369 -1.0033 -2.1205
12560TIP3    H259096   5.567   5.465  14.604 -0.0214  2.2695 -0.8040
12561TIP3   OH259097   3.111   4.313   1.841 -0.1495  0.0493 -0.0302
12561TIP3    H159098   3.084   4.376   1.774 -0.8337 -0.7050 -0.4602
12561TIP3    H259099   3.036   4.255   1.852  1.1014 -1.7372 -0.8693
12562TIP3   OH259100   3.681   5.786   4.698  0.2054  0.4485 -0.4554
12562TIP3    H159101   3.728   5.847   4.756 -0.7101 -0.5791  1.4135
12562TIP3    H259102   3.702   5.699   4.733 -1.2644 -0.1252 -0.9595
12563TIP3   OH259103   4.405   5.336  14.310  0.1073 -0.0492 -0.4753
12563TIP3    H159104   4.354   5.254  14.312  0.9287 -0.5484  0.1529
12563TIP3    H259105   4.338   5.405  14.306 -0.6409 -0.6741  0.8706
12564TIP3   OH259106   5.708   1.180   1.285  0.3059  0.5195 -0.0708
12564TIP3    H159107   5.743   1.155   1.371  0.7821 -0.2573 -0.4791
12564TIP3    H259108   5.692   1.274   1.291  3.0103  1.0094 -0.0488
12565TIP3   OH259109   2.029   2.758   5.296 -0.3513  0.6472 -0.3622
12565TIP3    H159110   1.979   2.742   5.215  0.9678  0.8791 -1.2258
12565TIP3    H259111   2.094   2.823   5.272  0.9157 -0.2631  0.5516
12566TIP3   OH259112   0.641   2.977   0.944 -0.2703 -0.2512 -0.2597
12566TIP3    H159113   0.677   2.941   0.863  0.6578 -1.0680  0.5063
12566TIP3    H259114   0.547   2.958   0.939  0.2057 -2.8767  0.1692
12567TIP3   OH259115   4.213   1.322  15.951  0.0490 -0.5566 -0.1767
12567TIP3    H159116   4.209   1.232  15.918 -1.1976 -0.3763 -0.5667
12567TIP3    H259117   4.186   1.315  16.042  0.8644 -0.6997  0.0556
12568TIP3   OH259118   2.450   5.373  13.286  0.3309  0.2175 -1.1320
12568TIP3    H159119   2.380   5.418  13.333  0.0103 -0.3057 -1.1102
12568TIP3    H259120   2.529   5.422  13.309  0.0838  0.3474 -0.5523
12569TIP3   OH259121   6.432   1.094   0.365  0.0115  0.7193  0.8117
12569TIP3    H159122   6.364   1.031   0.390  0.3200 -0.2403 -0.6631
12569TIP3    H259123   6.409   1.120   0.276  1.0515  1.1079  0.6469
12570TIP3   OH259124   2.300   0.514   4.895 -0.6658 -0.6587 -0.1908
12570TIP3    H159125   2.365   0.459   4.939 -0.8684 -2.5473 -2.1879
12570TIP3    H259126   2.217   0.470   4.910 -1.2005  0.5069  0.3648
12571TIP3   OH259127   6.452   1.764  15.270  0.2493 -0.1674 -0.3229
12571TIP3    H159128   6.385   1.821  15.232 -1.3318 -3.4294 -2.6295
12571TIP3    H259129   6.529   1.779  15.215 -0.6182 -1.2934 -1.9015
12572TIP3   OH259130   1.745   1.429  13.383  0.4015 -0.1223 -0.2884
12572TIP3    H159131   1.812   1.450  13.449 -0.0823  0.0386  0.1555
12572TIP3    H259132   1.662   1.448  13.427  0.0852  0.2928 -1.0574
12573TIP3   OH259133   3.143   1.136   5.751  0.0749 -0.3550 -0.2275
12573TIP3    H159134   3.086   1.213   5.758 -1.0707 -1.0486 -1.5965
12573TIP3    H259135   3.147   1.100   5.839 -1.4836 -0.1976 -0.0804
12574TIP3   OH259136   1.646   3.599   1.941  0.1029 -0.4007 -0.0420
12574TIP3    H159137   1.686   3.686   1.946  0.9309 -0.8451  1.7401
12574TIP3    H259138   1.556   3.612   1.972  0.7098 -0.4295  1.8246
12575TIP3   OH259139   2.388   0.158   4.291  0.3239  0.0610  0.3448
12575TIP3    H159140   2.481   0.145   4.273  0.2325 -1.0590  0.6796
12575TIP3    H259141   2.344   0.086   4.245 -0.3113  0.1092  0.8790
12576TIP3   OH259142   3.605   0.668   4.153  0.0693 -0.0487  0.0735
12576TIP3    H159143   3.530   0.609   4.160  0.8834 -1.3422 -1.6888
12576TIP3    H259144   3.567   0.755   4.150 -1.3162 -0.6483  0.0149
12577TIP3   OH259145   5.649   4.920   0.826  0.2918  0.1452  0.2057
12577TIP3    H159146   5.740   4.898   0.807  0.3172  0.6605 -0.2821
12577TIP3    H259147   5.600   4.881   0.754  0.2381  0.8267 -0.1248
12578TIP3   OH259148   6.426   1.560  14.645  0.5528 -0.5052  0.9397
12578TIP3    H159149   6.338   1.527  14.662  0.7280 -1.6601 -0.3515
12578TIP3    H259150   6.463   1.499  14.582  0.8115  2.2666 -1.7126
12579TIP3   OH259151   2.125   1.968  17.204  0.0924 -0.1631  0.2917
12579TIP3    H159152   2.058   1.903  17.182 -1.4006  0.5097  2.6881
12579TIP3    H259153   2.111   2.039  17.141  0.2099 -1.1185 -0.8297
12580TIP3   OH259154   1.893   4.668   4.527 -0.0405  0.4919 -0.4678
12580TIP3    H159155   1.972   4.615   4.539 -0.2058  0.3280 -0.0623
12580TIP3    H259156   1.921   4.741   4.473 -0.0018 -0.4497 -1.7422
12581TIP3   OH259157   0.945   2.654  15.012  0.3266 -0.1178 -0.5888
12581TIP3    H159158   0.955   2.619  15.100  0.3732 -2.1925 -1.3870
12581TIP3    H259159   1.027   2.632  14.968  1.3647  3.1463 -0.4591
12582TIP3   OH259160   5.269   0.846   1.546  0.0549 -0.0236  0.3954
12582TIP3    H159161   5.179   0.852   1.578 -0.0221 -1.4962  0.4914
12582TIP3    H259162   5.322   0.841   1.625  0.1687  0.1291  0.3289
12583TIP3   OH259163   0.252   5.922  15.337 -0.7090  0.1394  0.5540
12583TIP3    H159164   0.191   5.855  15.368 -1.4047  0.1727 -0.6935
12583TIP3    H259165   0.196   5.996  15.314 -0.5173 -0.7852 -3.1779
12584TIP3   OH259166   2.602   6.755   3.130 -0.0155  0.0513 -0.1362
12584TIP3    H159167   2.669   6.753   3.061  1.3713 -1.4533  1.2122
12584TIP3    H259168   2.581   6.847   3.139  1.2361  0.4724 -1.2015
12585TIP3   OH259169   4.189   3.957   2.916 -0.4778  0.2273  0.4400
12585TIP3    H159170   4.101   3.931   2.887 -0.7438  2.0633 -0.4869
12585TIP3    H259171   4.173   4.005   2.997 -0.1986 -0.4453  0.9019
12586TIP3   OH259172   1.099   0.147   2.183 -0.2902  0.0262 -0.0169
12586TIP3    H159173   1.049   0.084   2.132  1.2695 -1.5121  0.3000
12586TIP3    H259174   1.146   0.199   2.118 -3.0693  2.1985 -0.3649
12587TIP3   OH259175   4.684   6.587   6.470 -0.0393  0.7120  0.8011
12587TIP3    H159176   4.661   6.504   6.429 -1.8374  2.3484 -1.7173
12587TIP3    H259177   4.761   6.617   6.422 -0.2327  1.1469  0.7570
12588TIP3   OH259178   4.934   5.706   0.779 -0.1285  0.3299  0.6464
12588TIP3    H159179   4.843   5.689   0.805  0.6549 -3.0273  1.3955
12588TIP3    H259180   4.984   5.637   0.820  2.4663  0.6767 -1.7838
12589TIP3   OH259181   1.721   0.021   6.004  0.5046 -0.5615 -0.1794
12589TIP3    H159182   1.792   0.046   6.064  0.5089  1.1032 -0.8558
12589TIP3    H259183   1.672  -0.046   6.052  1.2620 -0.1687  1.1725
12590TIP3   OH259184   2.758   3.359   2.787  0.2112 -0.0991  0.5578
12590TIP3    H159185   2.853   3.361   2.801  0.1032 -0.4271  1.3606
12590TIP3    H259186   2.728   3.283   2.837 -0.0030 -2.2460 -2.6172
12591TIP3   OH259187   4.295   0.520  14.284 -0.7105 -0.4762 -0.2105
12591TIP3    H159188   4.251   0.536  14.201  0.0306 -0.9929 -0.7147
12591TIP3    H259189   4.229   0.540  14.351 -1.1566  0.4122 -0.9057
12592TIP3   OH259190   3.434   2.924  15.750 -0.1184  0.1471 -0.5911
12592TIP3    H159191   3.354   2.964  15.716 -0.3882 -0.5056 -0.7298
12592TIP3    H259192   3.450   2.969  15.833  1.6372  3.1622 -2.4880
12593TIP3   OH259193   3.052   1.851   5.243  0.3933 -0.3327  0.2060
12593TIP3    H159194   3.084   1.788   5.307  0.1031 -1.0634 -0.3630
12593TIP3    H259195   2.989   1.905   5.292 -2.5127 -3.1260 -0.2812
12594TIP3   OH259196   2.249   5.441  10.678 -0.2018 -0.6736 -0.7814
12594TIP3    H159197   2.245   5.440  10.582  0.6519 -2.3087 -0.8198
12594TIP3    H259198   2.343   5.439  10.697 -0.3541  0.2360  0.1029
12595TIP3   OH259199   2.179   6.400   5.415  0.1835 -0.1300 -0.0784
12595TIP3    H159200   2.158   6.401   5.508  0.4260 -0.7878 -0.0130
12595TIP3    H259201   2.172   6.492   5.388 -0.0378  0.0431  0.5505
12596TIP3   OH259202   3.825   1.522   1.184 -0.4916 -0.0973 -0.5143
12596TIP3    H159203   3.876   1.540   1.264  0.1761  0.4624 -1.0535
12596TIP3    H259204   3.737   1.552   1.205 -0.9858 -2.4594  0.9578
12597TIP3   OH259205   2.222   6.770   0.270 -0.8108 -0.5893 -0.3389
12597TIP3    H159206   2.166   6.813   0.205 -0.8063 -1.3186 -0.8313
12597TIP3    H259207   2.285   6.838   0.296 -0.5369 -0.4234 -1.4234
12598TIP3   OH259208   6.136   2.281  16.903 -0.1097  0.3107  0.6588
12598TIP3    H159209   6.137   2.261  16.997 -0.4180  0.0658  0.6122
12598TIP3    H259210   6.156   2.198  16.860  0.8804  0.6167  0.5330
12599TIP3   OH259211   0.170   1.686  15.601 -0.1154  0.1101  0.0115
12599TIP3    H159212   0.230   1.678  15.527  0.0332 -0.4337  0.1867
12599TIP3    H259213   0.146   1.778  15.603 -0.2862  0.0896 -0.8467
12600TIP3   OH259214   0.864   2.901  13.717  0.3295  0.1442 -0.4476
12600TIP3    H159215   0.924   2.955  13.665  0.1432  0.7788 -0.0059
12600TIP3    H259216   0.778   2.917  13.679  0.5240 -1.3957 -1.6119
12601TIP3   OH259217   5.367   6.565   4.946  0.4542  0.3618  0.0099
12601TIP3    H159218   5.299   6.541   4.882  0.5749 -0.4414  0.1802
12601TIP3    H259219   5.361   6.498   5.014  2.4550 -0.6388 -0.7437
12602TIP3   OH259220   2.420   0.296   3.881 -0.1871 -0.0311  0.4110
12602TIP3    H159221   2.329   0.291   3.851 -0.2447  0.8745  0.4069
12602TIP3    H259222   2.433   0.217   3.933 -0.6186 -0.7579 -0.5556
12603TIP3   OH259223   1.901   3.369   0.520 -0.3005 -0.2132  0.5543
12603TIP3    H159224   1.813   3.393   0.491 -0.0527 -0.6460 -0.5844
12603TIP3    H259225   1.958   3.436   0.482  0.0173 -0.7479  0.0792
12604TIP3   OH259226   5.457   3.219  14.163 -0.2516 -0.2980  0.3740
12604TIP3    H159227   5.492   3.223  14.074 -1.0287  0.7309  0.0972
12604TIP3    H259228   5.442   3.311  14.187 -0.8466 -0.6091  1.2391
12605TIP3   OH259229   1.122   2.905  14.153  0.3344  0.3927  0.3048
12605TIP3    H159230   1.091   2.885  14.241  0.0736 -0.3262  0.0513
12605TIP3    H259231   1.208   2.863  14.147 -0.6763 -1.5905 -0.5963
12606TIP3   OH259232   2.495   3.480   0.894 -0.2142 -0.3873 -0.2254
12606TIP3    H159233   2.419   3.428   0.871  0.1207 -0.4382 -1.2134
12606TIP3    H259234   2.489   3.558   0.839  0.5684 -0.4966 -0.4766
12607TIP3   OH259235   3.111   0.623  14.740 -0.0567  0.5507 -0.0259
12607TIP3    H159236   3.155   0.567  14.804 -2.3623  0.4169  1.5213
12607TIP3    H259237   3.054   0.564  14.692 -0.6406  1.1520 -0.0827
12608TIP3   OH259238   0.670   3.410  12.855  0.1450  0.4727 -0.1597
12608TIP3    H159239   0.596   3.399  12.796  0.1519  0.8346 -0.2369
12608TIP3    H259240   0.721   3.330  12.846 -0.0024  0.4127 -0.4346
12609TIP3   OH259241   1.217   4.430   0.549 -0.0310  0.2281  0.1121
12609TIP3    H159242   1.128   4.443   0.584  0.0531 -0.0216  0.4245
12609TIP3    H259243   1.269   4.499   0.591  0.3196 -0.7931  1.4168
12610TIP3   OH259244   3.901   1.580  16.938 -0.1497  0.1750 -0.0614
12610TIP3    H159245   3.994   1.581  16.962 -0.1194  0.9425 -0.1851
12610TIP3    H259246   3.857   1.543  17.015  0.1135  1.1574  0.5791
12611TIP3   OH259247   2.504   2.047   6.631 -0.1704 -0.3616 -0.4539
12611TIP3    H159248   2.494   2.141   6.640  0.1972 -0.2210 -1.4794
12611TIP3    H259249   2.597   2.034   6.615 -0.3043 -0.8599 -0.8263
12612TIP3   OH259250   1.958   1.920  11.631  0.4610  0.3547  0.0482
12612TIP3    H159251   1.993   1.997  11.677 -1.2405  0.4990  1.1314
12612TIP3    H259252   1.937   1.858  11.700  0.4546 -0.5126 -0.7259
12613TIP3   OH259253   2.881   3.135   1.972  0.4264  0.0921 -0.2073
12613TIP3    H159254   2.838   3.212   2.009  0.9435 -0.3032  1.2370
12613TIP3    H259255   2.844   3.127   1.884 -0.9354  0.9568  0.2707
12614TIP3   OH259256   4.518   4.210  15.927 -0.2206  0.3560  0.2607
12614TIP3    H159257   4.504   4.196  15.833 -2.4150  1.8812  0.3107
12614TIP3    H259258   4.605   4.248  15.932 -0.8182  2.0549 -1.3850
12615TIP3   OH259259   6.373   4.048   1.635 -0.9196  0.1338  0.1637
12615TIP3    H159260   6.284   4.079   1.656 -0.7387  1.3332 -0.7876
12615TIP3    H259261   6.365   3.953   1.634 -2.4726  0.2488 -0.9787
12616TIP3   OH259262   6.314   4.759   1.374 -0.2560 -0.3575  0.4410
12616TIP3    H159263   6.357   4.676   1.397 -1.2481 -1.1588 -0.5148
12616TIP3    H259264   6.235   4.760   1.429  1.1068  1.2612  2.4290
12617TIP3   OH259265   6.080   4.180   3.637  0.6098  0.3818  0.0286
12617TIP3    H159266   6.051   4.094   3.606 -0.0134  1.2273 -1.7575
12617TIP3    H259267   6.123   4.162   3.721  0.1543 -1.6217 -0.1556
12618TIP3   OH259268   6.003   4.670   2.860  0.6681  0.9632 -0.1309
12618TIP3    H159269   6.047   4.686   2.776  1.1818 -1.0299 -0.2796
12618TIP3    H259270   6.063   4.613   2.907 -0.7018  0.1171  0.6222
12619TIP3   OH259271   5.324   0.937  11.885 -0.5218 -0.2287  0.4517
12619TIP3    H159272   5.257   0.998  11.853  1.1065  0.2596 -2.2153
12619TIP3    H259273   5.311   0.934  11.980 -1.7020  3.0319  0.4592
12620TIP3   OH259274   0.685   2.422   0.522 -0.3142 -0.3675  0.1568
12620TIP3    H159275   0.696   2.353   0.457  2.3285  1.2870 -1.2171
12620TIP3    H259276   0.613   2.475   0.489 -0.2186 -0.6019 -0.4386
12621TIP3   OH259277   4.628   3.210   2.933  0.7286  0.1591  0.6317
12621TIP3    H159278   4.605   3.126   2.893  1.3838  0.3715 -0.2048
12621TIP3    H259279   4.545   3.257   2.938  0.5256 -0.1385  0.1544
12622TIP3   OH259280   0.840   4.485  16.589  0.2053 -0.4454  0.8670
12622TIP3    H159281   0.859   4.408  16.643  2.9681  1.8787  3.3745
12622TIP3    H259282   0.919   4.498  16.536  0.6199  1.8068  1.9668
12623TIP3   OH259283   6.402   6.213   0.714  0.3262  0.4460  0.4378
12623TIP3    H159284   6.371   6.278   0.651 -0.2656 -1.0816 -0.8758
12623TIP3    H259285   6.477   6.255   0.756  0.4313  1.6872 -0.9259
12624TIP3   OH259286   1.646   6.199  11.450 -0.0261 -0.2590 -0.4616
12624TIP3    H159287   1.552   6.215  11.447  0.1945  0.7939 -2.5596
12624TIP3    H259288   1.682   6.276  11.494 -0.0631 -0.3016 -0.3567
12625TIP3   OH259289   1.164   4.674   1.950  0.0803 -0.2419  0.0304
12625TIP3    H159290   1.135   4.625   1.873  2.5605 -1.9489  0.1378
12625TIP3    H259291   1.238   4.727   1.918 -2.0304  2.9303  0.1024
12626TIP3   OH259292   2.349   5.415  14.596  0.7160 -0.0227 -0.0653
12626TIP3    H159293   2.302   5.360  14.660  2.2689 -0.5012  0.6816
12626TIP3    H259294   2.344   5.366  14.515 -0.6796  0.2598 -0.1610
12627TIP3   OH259295   5.700   0.032   0.250 -0.2392  0.0046 -0.4188
12627TIP3    H159296   5.690   0.125   0.227 -1.1726 -0.1522 -0.6476
12627TIP3    H259297   5.651   0.023   0.332 -0.8321 -0.4709 -0.8296
12628TIP3   OH259298   1.808   5.681  14.791 -0.3226 -0.1877 -0.9974
12628TIP3    H159299   1.772   5.761  14.828  1.6820 -0.2986  1.3501
12628TIP3    H259300   1.743   5.652  14.727 -0.8344  3.5763 -2.3042
12629TIP3   OH259301   1.730   3.282  11.923 -0.0306  0.0627  0.2916
12629TIP3    H159302   1.765   3.225  11.991  1.9136  0.1611 -0.6040
12629TIP3    H259303   1.648   3.316  11.960  0.7378 -0.2675  2.3705
12630TIP3   OH259304   4.076   6.044   5.265  0.1361  0.1149  0.0137
12630TIP3    H159305   3.989   6.043   5.227  0.0190  1.3639  0.2348
12630TIP3    H259306   4.071   5.986   5.340 -0.5294  0.2455  0.0672
12631TIP3   OH259307   1.187   5.842   1.999 -0.3859 -0.5513 -0.3144
12631TIP3    H159308   1.202   5.916   2.057  1.4684 -0.8576 -0.3785
12631TIP3    H259309   1.182   5.766   2.057 -0.8990 -0.5645 -0.3693
12632TIP3   OH259310   5.568   0.264   4.910 -0.3375  1.1078 -0.3494
12632TIP3    H159311   5.564   0.223   4.996 -1.5351 -0.9785 -1.3429
12632TIP3    H259312   5.660   0.258   4.885 -0.0015  1.6636  0.7509
12633TIP3   OH259313   6.291   4.093  14.409 -0.1135 -0.0938 -0.2608
12633TIP3    H159314   6.286   4.183  14.375  1.7716 -0.4398 -1.5140
12633TIP3    H259315   6.371   4.058  14.371 -0.8088 -2.2999  0.2772
12634TIP3   OH259316   0.533   4.770  14.007 -0.0788 -0.0536  0.1873
12634TIP3    H159317   0.564   4.728  14.087  0.7572  2.2786  1.1389
12634TIP3    H259318   0.439   4.783  14.022 -0.4290 -1.9332 -0.2987
12635TIP3   OH259319   2.872   1.621   1.616 -0.4138 -0.0353  0.1073
12635TIP3    H159320   2.787   1.577   1.623  0.2738 -1.2163  1.3864
12635TIP3    H259321   2.911   1.585   1.537 -1.3227  0.9147 -0.7828
12636TIP3   OH259322   2.924   2.857   6.688  0.0500 -0.5676  0.2494
12636TIP3    H159323   2.844   2.832   6.642  1.0656 -0.1846 -1.7755
12636TIP3    H259324   2.977   2.777   6.689  0.2657 -0.4263  0.2413
12637TIP3   OH259325   2.916   5.031  16.443  0.2164 -0.6828  0.1308
12637TIP3    H159326   3.009   5.009  16.447  0.5981  0.5698 -0.9659
12637TIP3    H259327   2.872   4.966  16.497  1.3841 -3.2892 -1.9739
12638TIP3   OH259328   2.997   6.178  15.789 -0.4102 -0.3415  0.0738
12638TIP3    H159329   2.988   6.185  15.694 -0.9284 -2.6712 -0.0887
12638TIP3    H259330   3.087   6.206  15.807 -0.4909  0.6512 -1.0351
12639TIP3   OH259331   0.289   3.314   1.413  0.3785 -0.5270  0.5109
12639TIP3    H159332   0.380   3.307   1.384  0.3840 -1.1715  0.6890
12639TIP3    H259333   0.294   3.364   1.494  0.6632 -1.3562  1.0054
12640TIP3   OH259334   6.587   2.879   1.835 -0.1224 -0.1217 -0.6850
12640TIP3    H159335   6.617   2.944   1.771  0.3543  2.6254  2.1616
12640TIP3    H259336   6.667   2.835   1.863  0.1518  1.0726  0.4729
12641TIP3   OH259337   6.299   4.873  17.117 -0.3517  0.0617 -0.3073
12641TIP3    H159338   6.213   4.841  17.093 -1.5253  1.9011  1.2948
12641TIP3    H259339   6.335   4.910  17.036 -2.2325  1.7764 -0.4029
12642TIP3   OH259340   0.455   5.162   5.182  0.3031  0.1026 -0.0998
12642TIP3    H159341   0.455   5.066   5.186 -0.4014  0.1212  0.3434
12642TIP3    H259342   0.530   5.188   5.236 -0.4409 -0.1548  1.0779
12643TIP3   OH259343   2.367   6.035  11.011  0.3153  0.4051  0.0066
12643TIP3    H159344   2.453   6.075  11.024  0.3212  0.2491  0.4528
12643TIP3    H259345   2.384   5.954  10.964  0.5553 -0.3154  1.3085
12644TIP3   OH259346   1.207   6.441  12.822 -0.0349 -0.1233  0.6907
12644TIP3    H159347   1.286   6.409  12.779 -0.0639 -1.0165  1.2826
12644TIP3    H259348   1.157   6.483  12.752  0.5967 -0.2397  0.1616
12645TIP3   OH259349   4.383   1.353   2.733 -0.2025 -0.5291 -0.3790
12645TIP3    H159350   4.383   1.405   2.653 -0.4268 -1.8961 -1.2894
12645TIP3    H259351   4.292   1.327   2.745  0.1626 -2.1860 -0.9476
12646TIP3   OH259352   5.460   5.247  15.433 -0.5055 -0.1726  0.2255
12646TIP3    H159353   5.545   5.235  15.391  0.3573  0.8427  1.6296
12646TIP3    H259354   5.478   5.305  15.507 -2.6196  0.8773 -0.0570
12647TIP3   OH259355   6.304   2.459  15.230 -0.0788  0.1196  0.1768
12647TIP3    H159356   6.219   2.420  15.210 -0.3196  0.6197  0.2340
12647TIP3    H259357   6.288   2.516  15.305  0.5252 -0.5948  0.8555
12648TIP3   OH259358   1.361   6.568   1.584 -0.1610 -0.2829 -0.1299
12648TIP3    H159359   1.287   6.555   1.526  0.7390  0.0589 -1.3752
12648TIP3    H259360   1.407   6.644   1.548  0.8809 -0.5846  0.5271
12649TIP3   OH259361   6.510   6.593   3.409 -0.4426 -0.2932  0.0580
12649TIP3    H159362   6.574   6.625   3.346  0.7396  3.3535  2.9136
12649TIP3    H259363   6.425   6.606   3.367  0.2907  2.6620 -0.6163
12650TIP3   OH259364   6.343   1.673  12.122  0.0272 -0.1122  0.0467
12650TIP3    H159365   6.419   1.648  12.173 -0.8838 -0.9389  1.0161
12650TIP3    H259366   6.306   1.748  12.169 -0.1360 -0.1308 -0.0524
12651TIP3   OH259367   1.704   3.386  15.786 -0.5086  0.4068  0.1008
12651TIP3    H159368   1.792   3.378  15.821 -1.1567 -0.0997  1.6501
12651TIP3    H259369   1.686   3.480  15.784 -0.7066  0.4210  1.7768
12652TIP3   OH259370   1.036   2.089   0.329 -0.0367  0.2571 -0.1990
12652TIP3    H159371   1.091   2.148   0.382 -2.1825  0.8479  1.4343
12652TIP3    H259372   1.023   2.136   0.247  0.1367  1.0546  0.2230
12653TIP3   OH259373   0.557   2.052  16.273 -0.2223 -0.7132  0.6312
12653TIP3    H159374   0.479   2.062  16.220 -1.2410 -0.3316  2.1572
12653TIP3    H259375   0.551   1.964  16.310  1.3655 -1.6413 -1.2405
12654TIP3   OH259376   2.317   6.023  17.165 -0.6971 -0.7613 -0.5000
12654TIP3    H159377   2.395   6.020  17.221 -1.6998 -0.6146  0.9416
12654TIP3    H259378   2.263   5.950  17.195 -1.8170  0.0769 -0.4254
12655TIP3   OH259379   0.261   3.654   0.293  0.1550 -0.2990 -1.0422
12655TIP3    H159380   0.185   3.694   0.336  0.2161  0.9023 -2.0441
12655TIP3    H259381   0.231   3.566   0.269  0.3140 -1.2727  2.0084
12656TIP3   OH259382   4.086   4.711   4.540 -0.4600 -0.2132 -0.6988
12656TIP3    H159383   4.032   4.732   4.465 -0.9345  0.3440 -0.2072
12656TIP3    H259384   4.044   4.757   4.613 -0.8165 -1.8719  0.1596
12657TIP3   OH259385   2.643   4.514  12.256 -0.3885  0.6102 -0.2270
12657TIP3    H159386   2.708   4.563  12.207  0.2825  0.5665  0.6037
12657TIP3    H259387   2.685   4.429  12.274 -0.4650  0.7667  0.7484
12658TIP3   OH259388   6.429   2.860   4.039 -0.1078 -0.2435 -0.1716
12658TIP3    H159389   6.478   2.855   3.957  3.5231  2.3180  1.6763
12658TIP3    H259390   6.457   2.784   4.089  0.4247  0.0920  0.0508
12659TIP3   OH259391   2.637   3.093  15.841 -0.4772  0.2735  0.2467
12659TIP3    H159392   2.723   3.134  15.842 -0.7736  0.9523 -0.8568
12659TIP3    H259393   2.635   3.042  15.760 -1.0329  0.0707  0.3813
12660TIP3   OH259394   6.026   1.327  11.764  0.0532 -0.2932 -0.1528
12660TIP3    H159395   6.093   1.394  11.780  0.2176 -0.3971 -0.4105
12660TIP3    H259396   5.969   1.332  11.841  0.2371 -0.0622 -0.0290
12661TIP3   OH259397   0.549   3.806  12.621  0.1268 -0.1395  0.2825
12661TIP3    H159398   0.589   3.769  12.700 -0.1789 -2.1853 -0.5066
12661TIP3    H259399   0.602   3.773  12.549 -2.5133 -2.3522 -0.7448
12662TIP3   OH259400   2.540   4.978   2.943  0.0743  0.4065 -0.0117
12662TIP3    H159401   2.571   5.069   2.950 -1.6726  0.9066  2.1277
12662TIP3    H259402   2.504   4.959   3.030  1.6543 -2.8240  0.0022
12663TIP3   OH259403   3.641   3.392   0.737 -0.0635 -0.6826  0.2011
12663TIP3    H159404   3.677   3.449   0.669 -1.8201 -0.7672 -0.8418
12663TIP3    H259405   3.601   3.453   0.800  0.3706 -0.6548  0.4478
12664TIP3   OH259406   3.717   4.523   4.719  0.2406 -0.0981  0.8062
12664TIP3    H159407   3.722   4.526   4.623  0.3503  0.5982  0.8341
12664TIP3    H259408   3.623   4.527   4.739  0.2534  0.5217  0.7519
12665TIP3   OH259409   5.151   5.019   5.251 -0.6870 -0.3792  0.3129
12665TIP3    H159410   5.090   5.015   5.177 -0.5039 -1.1813  0.1970
12665TIP3    H259411   5.199   5.101   5.239 -0.8967 -0.3428 -0.2765
12666TIP3   OH259412   5.543   0.979  17.064 -0.0918 -0.1982  0.6495
12666TIP3    H159413   5.462   0.988  17.013  1.4857  1.4103 -1.6484
12666TIP3    H259414   5.593   0.913  17.017  1.2104  1.0025  0.3208
12667TIP3   OH259415   4.588   1.747  10.870  0.1289 -0.3242  0.4989
12667TIP3    H159416   4.594   1.654  10.846  0.4359 -0.3667  0.7394
12667TIP3    H259417   4.663   1.762  10.927  0.3399  0.1900  0.0879
12668TIP3   OH259418   4.325   0.970  11.484 -0.0995  0.0536  0.2077
12668TIP3    H159419   4.326   1.027  11.407 -1.3321  0.3709  0.4213
12668TIP3    H259420   4.232   0.955  11.502  0.1630  0.1881  1.7838
12669TIP3   OH259421   1.155   4.328  14.011 -0.2914 -0.8297 -0.2135
12669TIP3    H159422   1.075   4.295  14.052 -2.0344  1.4421 -1.6756
12669TIP3    H259423   1.167   4.416  14.048  1.9582 -1.4287  0.5457
12670TIP3   OH259424   4.016   2.974   2.179 -0.0144  0.5445 -0.7311
12670TIP3    H159425   3.936   2.936   2.216  0.2883  0.5613 -0.0515
12670TIP3    H259426   4.082   2.962   2.247  0.5854  0.4487 -1.3248
12671TIP3   OH259427   3.540   2.637  16.027 -0.3331  0.3003  0.1629
12671TIP3    H159428   3.468   2.604  16.080 -1.4852  0.8009 -1.0346
12671TIP3    H259429   3.581   2.704  16.081  0.3892 -1.2546  1.5735
12672TIP3   OH259430   5.613   2.931  10.472 -0.8325  0.3973  0.3765
12672TIP3    H159431   5.630   3.018  10.508  0.7964 -0.6398  2.2317
12672TIP3    H259432   5.528   2.906  10.507 -2.6983  2.3749 -2.5103
12673TIP3   OH259433   1.276   6.553  15.927  0.0877 -0.6240 -0.8072
12673TIP3    H159434   1.280   6.535  15.833 -2.6673  0.5676 -1.2042
12673TIP3    H259435   1.251   6.470  15.966  0.0704 -0.8320 -1.2573
12674TIP3   OH259436   3.741   3.807   1.393 -0.3782  0.1513  0.1431
12674TIP3    H159437   3.742   3.860   1.314 -0.1023 -0.4827 -0.2808
12674TIP3    H259438   3.831   3.812   1.426 -0.2703 -0.3210 -0.0789
12675TIP3   OH259439   5.570   3.003   2.588 -0.3144 -0.3193  0.5226
12675TIP3    H159440   5.616   2.937   2.537 -0.9936  0.6772 -1.4477
12675TIP3    H259441   5.614   3.085   2.567 -0.6337  0.1229  1.5223
12676TIP3   OH259442   5.796   6.770  14.316 -0.2722  0.1627  0.0048
12676TIP3    H159443   5.769   6.862  14.312  1.4823  0.6030 -2.4995
12676TIP3    H259444   5.721   6.722  14.282  0.0219  0.9500 -1.8214
12677TIP3   OH259445   3.212   1.567  12.457  0.4204  0.4323 -0.3106
12677TIP3    H159446   3.176   1.638  12.511  0.4006 -0.3582  0.7417
12677TIP3    H259447   3.289   1.605  12.415  1.1383  0.7222  1.2271
12678TIP3   OH259448   5.032   2.930   3.491 -0.0656  0.4294  0.1212
12678TIP3    H159449   5.071   2.889   3.568  1.0763  1.1921 -0.0244
12678TIP3    H259450   5.084   2.897   3.417  1.5588  2.8862  0.1067
12679TIP3   OH259451   1.537   1.453   5.837 -0.0340 -0.3554 -0.4393
12679TIP3    H159452   1.516   1.422   5.749  0.8728 -1.7551 -0.1773
12679TIP3    H259453   1.524   1.376   5.893 -0.9658  0.6229  0.7065
12680TIP3   OH259454   4.966   1.314  11.367 -0.2390 -0.5276 -0.4170
12680TIP3    H159455   4.983   1.402  11.333 -2.2205 -0.0944 -0.3582
12680TIP3    H259456   4.923   1.269  11.295  1.1906 -1.6231 -0.6099
12681TIP3   OH259457   1.979   6.111   1.737 -0.5590  0.2748  0.9700
12681TIP3    H159458   1.977   6.195   1.692  1.0729 -0.0862  0.1937
12681TIP3    H259459   1.966   6.132   1.829  0.9323  1.4691  0.9081
12682TIP3   OH259460   0.581   2.753  13.949  0.3639  0.0618  0.0469
12682TIP3    H159461   0.590   2.659  13.939  1.6139  0.2195 -0.2938
12682TIP3    H259462   0.634   2.774  14.026 -0.4268  0.3983  0.5069
12683TIP3   OH259463   3.189   5.021  16.497 -0.1255  0.1499  0.8298
12683TIP3    H159464   3.239   4.941  16.481 -1.2663 -0.5355  0.5853
12683TIP3    H259465   3.251   5.081  16.539  0.6734 -0.9516  1.2462
12684TIP3   OH259466   1.665   5.417   1.390  0.1470  0.0864  0.4591
12684TIP3    H159467   1.603   5.375   1.331  0.1452 -0.8997  1.1432
12684TIP3    H259468   1.651   5.510   1.378 -1.0637 -0.1252  0.1708
12685TIP3   OH259469   1.185   1.125  14.217 -0.2056 -0.2447 -0.2494
12685TIP3    H159470   1.105   1.083  14.185 -1.2741  0.1201  1.8867
12685TIP3    H259471   1.209   1.076  14.295  1.2591  0.1222 -0.4514
12686TIP3   OH259472   0.129   3.532   0.791 -0.2964 -0.0209  0.0793
12686TIP3    H159473   0.099   3.486   0.870 -0.9565  2.4293  1.2882
12686TIP3    H259474   0.221   3.508   0.783 -0.0690  0.1479  1.9293
12687TIP3   OH259475   0.695   1.291   6.315  1.3007  0.0753  0.1299
12687TIP3    H159476   0.682   1.197   6.307 -1.6718  0.2690  1.8067
12687TIP3    H259477   0.649   1.328   6.240  0.3771  0.2993  0.8001
12688TIP3   OH259478   4.621   2.509  16.452 -0.3871  0.6391 -0.0772
12688TIP3    H159479   4.648   2.599  16.470 -0.7210  0.0935  3.4239
12688TIP3    H259480   4.703   2.460  16.449 -0.3367  0.7152  0.0448
12689TIP3   OH259481   6.378   5.978   3.495  0.4716  0.7410 -0.2553
12689TIP3    H159482   6.375   5.888   3.527 -0.4444  1.0158  0.4602
12689TIP3    H259483   6.453   5.980   3.435  1.4589 -0.0860  0.9306
12690TIP3   OH259484   1.304   0.043  15.503 -0.4893  0.6217 -0.3719
12690TIP3    H159485   1.357  -0.018  15.554 -1.9079  0.1983  0.6298
12690TIP3    H259486   1.362   0.071  15.431  0.4807 -1.1760 -0.3196
12691TIP3   OH259487   1.465   2.404  16.957 -0.1648  1.1005  0.0540
12691TIP3    H159488   1.393   2.459  16.928 -0.3285  0.8282 -0.0527
12691TIP3    H259489   1.544   2.453  16.933 -0.3005  0.8923 -0.8160
12692TIP3   OH259490   1.033   4.907   2.599  0.4459 -0.3834 -0.7435
12692TIP3    H159491   1.010   4.987   2.646  0.3328 -0.9142  0.0974
12692TIP3    H259492   1.101   4.935   2.537  1.2635  0.1233  0.3671
12693TIP3   OH259493   0.561   4.504  16.189 -0.3484  0.1592 -0.0141
12693TIP3    H159494   0.595   4.500  16.278 -0.3033  1.3005  0.0361
12693TIP3    H259495   0.614   4.572  16.147 -2.1597  1.5828 -0.0982
12694TIP3   OH259496   1.725   3.215   4.071 -0.0695  0.2590  0.5122
12694TIP3    H159497   1.690   3.148   4.131 -0.2902  0.1122  0.2238
12694TIP3    H259498   1.813   3.232   4.103  0.4661 -1.1140 -0.1786
12695TIP3   OH259499   3.307   3.662  16.619 -0.5689 -0.0259  0.0702
12695TIP3    H159500   3.256   3.690  16.695  0.9119  1.7620  0.4340
12695TIP3    H259501   3.265   3.705  16.545  1.2160  2.6518  0.5348
12696TIP3   OH259502   5.037   0.290   6.437  0.0490 -0.1980 -0.7605
12696TIP3    H159503   4.977   0.364   6.446  0.4972 -0.0176  0.9377
12696TIP3    H259504   5.123   0.329   6.428  0.1950 -0.4909 -0.6644
12697TIP3   OH259505   4.202   6.209  14.397  0.4258  0.2607 -0.4055
12697TIP3    H159506   4.202   6.268  14.473  0.1717 -2.1168  1.5025
12697TIP3    H259507   4.292   6.177  14.392  0.0040 -1.0435  0.0967
12698TIP3   OH259508   0.586   5.280  14.844  0.1991  0.2693 -0.2733
12698TIP3    H159509   0.657   5.329  14.885  0.1112  0.6293 -0.5441
12698TIP3    H259510   0.512   5.288  14.904  0.4692 -0.3408  0.1436
12699TIP3   OH259511   5.993   4.211  12.584  0.1673 -0.0599 -1.2947
12699TIP3    H159512   6.056   4.140  12.570  0.3204 -0.3052  0.4545
12699TIP3    H259513   6.045   4.291  12.577  0.6257 -0.2481 -0.2253
12700TIP3   OH259514   5.747   3.101   1.499  0.4737  0.3032 -0.2910
12700TIP3    H159515   5.722   3.185   1.461 -1.8446 -0.6471 -1.0276
12700TIP3    H259516   5.745   3.115   1.593 -2.8122  0.3681 -0.3108
12701TIP3   OH259517   2.546   0.212   1.313  0.7564  0.1661  0.2102
12701TIP3    H159518   2.498   0.151   1.370  0.9353  1.4270  1.7148
12701TIP3    H259519   2.617   0.159   1.277  0.9002 -0.5229  1.4780
12702TIP3   OH259520   4.298   4.358   3.001  0.1711 -0.4023  0.6138
12702TIP3    H159521   4.212   4.378   2.966  0.5314 -0.8029 -0.5286
12702TIP3    H259522   4.359   4.385   2.933  0.9156 -0.7453  1.1267
12703TIP3   OH259523   3.153   5.610  15.643 -0.2843 -0.2960 -0.0847
12703TIP3    H159524   3.097   5.570  15.577 -0.1458  0.2371 -0.5273
12703TIP3    H259525   3.203   5.676  15.596 -1.5926  1.4586  0.9286
12704TIP3   OH259526   1.956   1.041  14.880  0.6598 -0.1897 -0.0251
12704TIP3    H159527   1.940   1.098  14.804  2.5502  1.1148  0.5269
12704TIP3    H259528   1.887   1.063  14.942  0.5043  0.4282 -0.4164
12705TIP3   OH259529   5.052   0.663   2.756 -0.2124  0.2917  0.5103
12705TIP3    H159530   5.102   0.588   2.788 -0.7955  0.1535  1.1149
12705TIP3    H259531   4.976   0.624   2.713  0.2747  0.4961 -0.5561
12706TIP3   OH259532   2.181   5.252  12.790 -0.6640 -0.2558  0.0682
12706TIP3    H159533   2.154   5.290  12.873 -0.4676  0.8381 -0.3672
12706TIP3    H259534   2.127   5.295  12.724  1.5316  1.3941 -0.7231
12707TIP3   OH259535   5.245   5.190   4.017 -0.1648  1.1314  0.0776
12707TIP3    H159536   5.305   5.148   4.078 -1.0349  1.2504  1.0340
12707TIP3    H259537   5.262   5.148   3.933 -0.6798 -0.8015  0.9089
12708TIP3   OH259538   0.241   6.594   0.030  0.4474  0.5677 -0.2570
12708TIP3    H159539   0.191   6.573  -0.049  0.9476 -1.3354 -0.0892
12708TIP3    H259540   0.174   6.609   0.097  0.0494  1.1739 -0.7747
12709TIP3   OH259541   5.342   0.485   5.330  0.0438  0.6117 -0.3211
12709TIP3    H159542   5.320   0.548   5.399  0.8011  0.5654 -0.0269
12709TIP3    H259543   5.323   0.400   5.370  1.2013  0.5480  0.1087
12710TIP3   OH259544   5.582   6.249  12.481 -0.2131  0.2124 -0.2208
12710TIP3    H159545   5.652   6.296  12.527  1.3462 -1.5279 -0.7228
12710TIP3    H259546   5.604   6.157  12.493 -3.3104 -0.4163  0.8888
12711TIP3   OH259547   0.408   6.705   6.661 -0.1514  0.1538  0.0139
12711TIP3    H159548   0.448   6.774   6.608 -0.4837  0.0887 -0.3193
12711TIP3    H259549   0.451   6.624   6.632 -0.0133  0.1759  0.1583
12712TIP3   OH259550   1.808   2.433   4.929 -0.0727  0.2691  0.3915
12712TIP3    H159551   1.863   2.453   5.005 -0.2480 -0.0946  0.6186
12712TIP3    H259552   1.850   2.357   4.889  0.1882  0.6416 -0.0527
12713TIP3   OH259553   4.927   2.991  13.253 -0.2414 -0.1409  0.4775
12713TIP3    H159554   4.890   3.020  13.169 -1.4566 -0.6681  0.8132
12713TIP3    H259555   4.851   2.960  13.303  0.4910  0.0315  1.7188
12714TIP3   OH259556   1.826   0.044  13.556  0.3902 -0.7353 -0.5174
12714TIP3    H159557   1.874   0.038  13.474  0.4454  0.7567 -0.6186
12714TIP3    H259558   1.740   0.079  13.532  0.1079 -1.0977 -0.0493
12715TIP3   OH259559   5.207   6.283  13.702  0.1726 -0.2326 -0.1385
12715TIP3    H159560   5.197   6.188  13.706 -1.6974 -0.0146  0.8827
12715TIP3    H259561   5.278   6.302  13.763  0.1319 -0.9193  0.1303
12716TIP3   OH259562   6.511   4.223   6.272 -0.4281  0.5503  0.6040
12716TIP3    H159563   6.522   4.129   6.262 -2.5047  0.4572 -1.1800
12716TIP3    H259564   6.601   4.258   6.274  0.3665 -1.4642  1.7578
12717TIP3   OH259565   5.738   0.887   5.611  0.2054  0.3619 -0.6302
12717TIP3    H159566   5.736   0.979   5.637 -1.4453  0.2186 -0.1777
12717TIP3    H259567   5.723   0.839   5.692  0.5535 -0.2837 -0.9498
12718TIP3   OH259568   0.580   1.002   0.137 -0.7537 -0.2767 -0.2497
12718TIP3    H159569   0.524   1.074   0.111 -0.0827 -0.0206 -1.0116
12718TIP3    H259570   0.650   1.043   0.188 -0.1733 -0.3320 -0.9896
12719TIP3   OH259571   3.492   3.478  15.730  0.1033 -0.0356  0.2495
12719TIP3    H159572   3.427   3.441  15.669  0.9373 -0.7638 -0.2128
12719TIP3    H259573   3.481   3.573  15.721 -0.9086 -0.1444  0.1942
12720TIP3   OH259574   1.622   5.446   2.365 -0.4133  0.0584 -0.4235
12720TIP3    H159575   1.669   5.457   2.282 -0.5184 -0.4914 -0.5563
12720TIP3    H259576   1.688   5.410   2.425 -0.5303 -0.2443 -0.4742
12721TIP3   OH259577   6.574   5.437  12.410 -0.6694  0.5079 -0.0860
12721TIP3    H159578   6.632   5.471  12.478  0.9240 -0.2944 -0.9878
12721TIP3    H259579   6.489   5.477  12.427 -0.4867 -0.2858  2.8189
12722TIP3   OH259580   4.506   0.203   2.157 -0.1680 -0.1297 -0.0104
12722TIP3    H159581   4.479   0.247   2.076  1.3751 -1.7352 -1.4274
12722TIP3    H259582   4.458   0.120   2.155  1.9562 -1.3696 -0.6824
12723TIP3   OH259583   0.783   4.869   3.652  0.3901 -0.1175 -0.3488
12723TIP3    H159584   0.789   4.899   3.743 -1.4108  0.3110 -0.3495
12723TIP3    H259585   0.813   4.779   3.654 -0.0387 -0.2420  0.7689
12724TIP3   OH259586   4.869   6.155   4.251  0.3801  0.0860  0.3544
12724TIP3    H159587   4.796   6.126   4.196 -0.7440 -0.7192  2.2083
12724TIP3    H259588   4.922   6.211   4.194 -1.8693  0.9680 -0.9089
12725TIP3   OH259589   4.274   0.677   0.495 -0.6083  0.0645  0.0803
12725TIP3    H159590   4.200   0.624   0.465  0.1272 -0.0480 -1.5597
12725TIP3    H259591   4.347   0.614   0.502 -0.7240  0.1169  1.9532
12726TIP3   OH259592   6.439   6.522  15.105 -0.4227  0.3363 -0.1323
12726TIP3    H159593   6.523   6.568  15.112  0.4994 -1.2265 -0.5421
12726TIP3    H259594   6.418   6.524  15.012 -0.3091 -0.1749 -0.1715
12727TIP3   OH259595   3.961   0.071  17.018 -0.1770 -0.2860  0.7688
12727TIP3    H159596   3.920   0.135  17.076 -2.6503  1.4083 -2.6736
12727TIP3    H259597   4.044   0.111  16.993  0.3045 -0.4523  2.0503
12728TIP3   OH259598   6.042   4.311  17.137  0.3081 -0.4904  0.1048
12728TIP3    H159599   6.121   4.343  17.093  0.1491 -0.8007 -0.4109
12728TIP3    H259600   6.074   4.266  17.215  0.8779 -3.3764 -1.7157
12729TIP3   OH259601   0.409   3.969  11.821  0.3574 -0.1395 -0.2147
12729TIP3    H159602   0.372   3.995  11.737  0.3698 -3.1601 -1.2351
12729TIP3    H259603   0.360   4.020  11.886 -0.6592  1.1625 -1.9652
12730TIP3   OH259604   3.053   2.921   1.949  0.2573 -0.5147 -0.2772
12730TIP3    H159605   2.999   3.000   1.960  3.2807  1.6577 -0.2013
12730TIP3    H259606   3.007   2.869   1.884 -0.7138  2.3962 -2.0264
12731TIP3   OH259607   5.886   1.629  16.396  0.7567  0.3907  0.1605
12731TIP3    H159608   5.853   1.718  16.404 -1.1072 -0.2800  0.2478
12731TIP3    H259609   5.892   1.596  16.485 -3.4964 -1.2571 -0.0407
12732TIP3   OH259610   1.984   0.378  15.692 -0.4976 -0.6844  0.0925
12732TIP3    H159611   1.940   0.374  15.777 -0.4659 -1.3692  0.0743
12732TIP3    H259612   2.075   0.400  15.713 -0.3523 -1.4534  0.2783
12733TIP3   OH259613   1.831   1.463  13.134 -0.6355  0.2294  0.2158
12733TIP3    H159614   1.782   1.454  13.216 -0.3094 -0.3355  0.3513
12733TIP3    H259615   1.790   1.400  13.075  0.3766 -0.7385  0.5452
12734TIP3   OH259616   0.074   1.902  13.770 -0.5548 -0.1967 -0.4770
12734TIP3    H159617   0.151   1.882  13.717  0.9623  1.3938  1.0569
12734TIP3    H259618   0.055   1.820  13.815  0.6058 -0.4615 -0.4410
12735TIP3   OH259619   3.813   5.179   2.359  0.6852  0.1048 -0.4271
12735TIP3    H159620   3.823   5.086   2.383  2.1204 -0.4075 -2.8147
12735TIP3    H259621   3.796   5.177   2.265 -0.8018  2.2171 -0.2211
12736TIP3   OH259622   1.975   6.145  13.727 -0.5689  0.3408 -0.9637
12736TIP3    H159623   2.021   6.067  13.756  1.1809  1.4626 -0.6672
12736TIP3    H259624   1.975   6.140  13.631 -0.3275  0.0580 -0.9474
12737TIP3   OH259625   4.949   6.624   4.434 -0.1661  0.2343 -0.5825
12737TIP3    H159626   5.037   6.605   4.402  1.3883  1.7653  2.6467
12737TIP3    H259627   4.926   6.547   4.486  0.5405  1.1904  1.1503
12738TIP3   OH259628   1.031   4.941  14.307 -0.2317  0.8113 -0.0645
12738TIP3    H159629   0.964   4.923  14.241  0.0192  1.9297 -0.6389
12738TIP3    H259630   1.063   5.029  14.286  2.1491 -0.1059 -0.4148
12739TIP3   OH259631   4.543   0.258  14.020 -0.1115  0.2591  0.6323
12739TIP3    H159632   4.611   0.224  13.962  2.4997  1.6271  2.8389
12739TIP3    H259633   4.461   0.239  13.973  1.8257  0.1851 -2.9010
12740TIP3   OH259634   6.008   0.110   6.306 -0.0914 -0.3539 -0.0165
12740TIP3    H159635   6.061   0.064   6.371  0.1325  0.9435  0.7413
12740TIP3    H259636   6.058   0.103   6.225  0.3506 -0.7044  0.2826
12741TIP3   OH259637   2.158   0.720  13.810 -0.3758 -0.5773  0.2391
12741TIP3    H159638   2.194   0.687  13.727  1.3312  2.0411 -0.1383
12741TIP3    H259639   2.205   0.671  13.878  1.2170  0.1235 -0.3158
12742TIP3   OH259640   1.515   6.501  12.958 -0.2218  0.3098  0.4062
12742TIP3    H159641   1.509   6.486  13.052  0.1128 -0.2394  0.3389
12742TIP3    H259642   1.599   6.463  12.932 -0.6236 -0.1602 -0.2316
12743TIP3   OH259643   0.756   6.479   3.981 -0.5003 -0.5127  0.0549
12743TIP3    H159644   0.814   6.407   3.958 -1.8222 -1.6567  0.2813
12743TIP3    H259645   0.670   6.439   3.991 -0.8735  0.7417  2.2719
12744TIP3   OH259646   5.350   2.833   5.619 -0.0314  0.6078  0.2057
12744TIP3    H159647   5.363   2.923   5.592 -0.3106  0.5876 -0.0029
12744TIP3    H259648   5.316   2.789   5.541  0.3347  0.2680  0.2318
12745TIP3   OH259649   1.950   4.906   4.425 -0.6711  0.2093 -0.2493
12745TIP3    H159650   1.874   4.964   4.430 -0.1870  0.8812 -0.5629
12745TIP3    H259651   2.020   4.954   4.470  0.1126  0.4929 -1.7404
12746TIP3   OH259652   5.016   0.023   2.760 -0.1600 -0.6208 -0.2172
12746TIP3    H159653   5.017  -0.072   2.745 -0.2638 -0.8547  1.1281
12746TIP3    H259654   4.950   0.035   2.829  0.4578  0.3309  0.2196
12747TIP3   OH259655   3.949   0.455   2.184  0.2938 -0.1360  0.5342
12747TIP3    H159656   3.979   0.445   2.094  0.1644  0.4381  0.4286
12747TIP3    H259657   3.959   0.368   2.222  0.1825 -0.4214 -0.0863
12748TIP3   OH259658   6.613   4.895  16.281  0.2918  0.3369 -0.0833
12748TIP3    H159659   6.642   4.838  16.209  0.3019  0.9615 -0.5746
12748TIP3    H259660   6.690   4.947  16.304  0.9986 -1.5898  2.0687
12749TIP3   OH259661   0.742   1.225  16.784  0.5212  0.4884  0.9268
12749TIP3    H159662   0.807   1.278  16.738 -0.5285  0.4488 -0.6462
12749TIP3    H259663   0.661   1.276  16.777 -0.7601 -1.8013 -1.5687
12750TIP3   OH259664   6.585   0.824   1.901  0.3587 -0.5575  1.3593
12750TIP3    H159665   6.515   0.764   1.925 -0.2228 -0.2855  0.3617
12750TIP3    H259666   6.631   0.781   1.829  0.6447 -0.3144  1.3918
12751TIP3   OH259667   4.451   5.086  13.397  0.3705  0.3114 -0.3379
12751TIP3    H159668   4.386   5.078  13.467  0.3010 -2.0727 -0.6452
12751TIP3    H259669   4.405   5.131  13.326 -0.0181  1.3583  0.5620
12752TIP3   OH259670   1.146   5.794   1.272 -0.2624 -0.5614  0.1197
12752TIP3    H159671   1.120   5.726   1.210  0.6075  0.5427 -1.4917
12752TIP3    H259672   1.233   5.769   1.301  0.8997  0.8427 -1.9916
12753TIP3   OH259673   5.307   6.573   4.591 -0.0903 -0.7369 -0.0083
12753TIP3    H159674   5.245   6.549   4.661 -1.8432  1.4613 -0.7461
12753TIP3    H259675   5.269   6.535   4.512 -0.5271  0.6209 -0.4652
12754TIP3   OH259676   3.552   4.936   2.164 -0.6148  0.0768  0.5256
12754TIP3    H159677   3.635   4.900   2.193 -1.4586 -1.3478  1.2351
12754TIP3    H259678   3.526   4.996   2.234  0.4806  1.5858 -0.3519
12755TIP3   OH259679   2.278   4.976   3.735 -0.2163 -0.2428  0.4799
12755TIP3    H159680   2.205   4.917   3.754  0.1513 -0.4157  1.3984
12755TIP3    H259681   2.346   4.919   3.701 -0.5926 -0.0435 -0.6376
12756TIP3   OH259682   6.276   3.350   5.698  0.4251 -0.0201  0.4853
12756TIP3    H159683   6.199   3.400   5.671  0.3385 -1.3234 -1.8089
12756TIP3    H259684   6.286   3.371   5.791 -0.9978  2.3760  0.1573
12757TIP3   OH259685   4.332   3.770  15.388 -0.0017 -0.9153 -0.1470
12757TIP3    H159686   4.402   3.835  15.387  1.1218 -2.1095 -1.7136
12757TIP3    H259687   4.367   3.698  15.441 -1.7887  0.2793  2.7961
12758TIP3   OH259688   0.740   3.756  11.155 -0.7927  0.2683 -0.0581
12758TIP3    H159689   0.794   3.680  11.180  1.6861  1.6368 -1.1570
12758TIP3    H259690   0.660   3.746  11.207 -1.1085 -3.8256 -1.1538
12759TIP3   OH259691   0.777   5.402   0.545  0.4892  0.0040 -0.1793
12759TIP3    H159692   0.854   5.443   0.585  0.4350 -0.4853  0.4161
12759TIP3    H259693   0.769   5.446   0.460  1.7312 -0.3015 -0.4651
12760TIP3   OH259694   5.074   2.194  14.604 -0.4116 -0.3081  0.7311
12760TIP3    H159695   5.021   2.252  14.659  1.2983  0.8101  1.2170
12760TIP3    H259696   5.012   2.161  14.539 -1.7313  0.9170  1.3221
12761TIP3   OH259697   6.515   6.406   2.223  0.5003 -0.3111  0.7099
12761TIP3    H159698   6.462   6.468   2.172 -0.6424 -0.5222  1.6229
12761TIP3    H259699   6.606   6.425   2.197 -0.0140  0.0232 -0.9033
12762TIP3   OH259700   6.562   1.039  12.161 -0.3472  0.6605 -0.8133
12762TIP3    H159701   6.556   1.102  12.090 -0.0659  1.2786 -0.2941
12762TIP3    H259702   6.566   1.092  12.240 -0.9514 -0.0224 -0.3094
12763TIP3   OH259703   1.049   3.042  12.106  0.4689  0.0239  0.1304
12763TIP3    H159704   1.046   2.959  12.154  0.4126  0.3620  0.7129
12763TIP3    H259705   1.018   3.020  12.018  0.5738 -0.5966  0.2486
12764TIP3   OH259706   4.936   4.718  11.433  0.5252 -0.0089  0.3422
12764TIP3    H159707   4.895   4.689  11.514 -1.8660  2.9070  0.2857
12764TIP3    H259708   4.887   4.674  11.364  1.9170 -1.7304  0.4444
12765TIP3   OH259709   1.693   5.338  15.349  0.6104 -0.4991  0.1730
12765TIP3    H159710   1.742   5.421  15.355  0.0809 -0.1567 -0.1915
12765TIP3    H259711   1.739   5.288  15.281  0.4352 -0.1605 -0.1989
12766TIP3   OH259712   6.332   3.882  16.649  0.0124  0.1444  0.0256
12766TIP3    H159713   6.338   3.879  16.745  2.1489  0.6398 -0.0553
12766TIP3    H259714   6.251   3.836  16.629  0.0109 -0.8078  2.0371
12767TIP3   OH259715   2.972   2.412   6.026  0.9344  0.2060 -0.5456
12767TIP3    H159716   3.030   2.337   6.033 -0.1793 -0.5958  0.2528
12767TIP3    H259717   2.914   2.404   6.101 -1.6539 -0.2348 -2.5287
12768TIP3   OH259718   4.550   5.138  14.087 -0.4446  0.5935  0.1484
12768TIP3    H159719   4.511   5.193  14.155 -2.0747 -1.4088  0.9091
12768TIP3    H259720   4.497   5.058  14.087  1.5156 -0.7866 -1.2619
12769TIP3   OH259721   4.112   4.859  12.760 -0.3201  0.2842 -0.2288
12769TIP3    H159722   4.136   4.907  12.839  0.6130  0.8237 -0.8339
12769TIP3    H259723   4.040   4.910  12.722 -1.2192 -0.3429  0.6236
12770TIP3   OH259724   0.069   5.880   3.880  0.2167 -0.6170 -0.1788
12770TIP3    H159725  -0.026   5.878   3.875  0.1566 -0.7762  0.8050
12770TIP3    H259726   0.091   5.809   3.941  0.7662  1.1746  1.7957
12771TIP3   OH259727   0.315   3.548   2.052 -0.3691 -0.1930 -0.2548
12771TIP3    H159728   0.383   3.481   2.041 -0.3271  0.2922 -3.3149
12771TIP3    H259729   0.321   3.602   1.973 -3.5675  0.5566 -0.0591
12772TIP3   OH259730   4.304   2.243  15.633 -0.6166 -0.6337  0.0598
12772TIP3    H159731   4.365   2.280  15.696 -1.9607  1.6495  0.0874
12772TIP3    H259732   4.319   2.148  15.637  1.8305 -0.2292  1.1349
12773TIP3   OH259733   3.096   6.374   0.064 -0.2096  0.7250  0.5215
12773TIP3    H159734   3.118   6.299   0.120  1.4107  1.9989  1.6140
12773TIP3    H259735   3.139   6.354  -0.020  0.4819  0.5748  0.9058
12774TIP3   OH259736   5.232   6.700   4.162 -0.2723  0.2365 -0.5404
12774TIP3    H159737   5.228   6.605   4.165 -3.6461  0.2957 -0.8988
12774TIP3    H259738   5.262   6.720   4.073  0.8370 -0.4561 -0.3380
12775TIP3   OH259739   0.878   1.183  15.822  0.2419  0.0904 -0.4092
12775TIP3    H159740   0.892   1.092  15.795 -1.0814  0.6613 -3.2572
12775TIP3    H259741   0.801   1.179  15.878  1.7519 -0.8403  1.7011
12776TIP3   OH259742   1.403   5.163   1.025  0.2002  0.5348  0.2933
12776TIP3    H159743   1.313   5.169   0.992  1.1848  3.4263 -2.1550
12776TIP3    H259744   1.426   5.070   1.016 -1.7796  0.1621 -1.2073
12777TIP3   OH259745   5.254   3.650   5.838 -0.5847  0.2929 -0.1346
12777TIP3    H159746   5.196   3.722   5.860 -2.3982 -1.0779 -0.3370
12777TIP3    H259747   5.266   3.602   5.920 -0.4384  0.0814 -0.2779
12778TIP3   OH259748   5.131   5.666  10.752 -0.0543  0.3820  0.4234
12778TIP3    H159749   5.052   5.632  10.794  0.2284  0.4740  1.0319
12778TIP3    H259750   5.191   5.683  10.824  1.0395 -0.9966 -0.1555
12779TIP3   OH259751   0.357   6.144   6.223 -0.5455 -0.3098 -0.1531
12779TIP3    H159752   0.294   6.098   6.166 -1.5332  1.8785 -0.8594
12779TIP3    H259753   0.302   6.188   6.287  0.4719 -0.9857  1.1949
12780TIP3   OH259754   1.811   3.579   5.713  0.3031 -0.5818  0.4746
12780TIP3    H159755   1.875   3.587   5.784  0.1747  1.2274  0.4041
12780TIP3    H259756   1.756   3.657   5.721 -0.7149 -1.1704 -0.6303
12781TIP3   OH259757   5.368   4.910   0.092 -0.3746  0.2606 -0.1970
12781TIP3    H159758   5.302   4.920   0.023  0.1847  0.7127 -0.6604
12781TIP3    H259759   5.449   4.940   0.053 -0.0777  0.6426  0.7014
12782TIP3   OH259760   5.485   3.790  15.759 -0.1865  0.0874 -0.5050
12782TIP3    H159761   5.550   3.781  15.827 -0.5271 -1.0420 -0.3197
12782TIP3    H259762   5.535   3.800  15.678  0.2455 -2.3834 -0.5798
12783TIP3   OH259763   1.405   2.655  12.797 -0.4534  0.4062  0.2144
12783TIP3    H159764   1.335   2.616  12.746  0.5926 -0.0936 -0.8439
12783TIP3    H259765   1.380   2.747  12.806 -1.7159  0.0279  0.6793
12784TIP3   OH259766   2.260   0.057  10.136 -0.0357  0.2900  0.0746
12784TIP3    H159767   2.321  -0.011  10.105 -0.2864 -0.5401  1.3493
12784TIP3    H259768   2.233   0.103  10.057  1.0752 -0.3200 -0.6778
12785TIP3   OH259769   2.576   1.097  10.669  1.2713  0.6212 -0.0233
12785TIP3    H159770   2.507   1.154  10.704  0.5522  1.1659 -2.2805
12785TIP3    H259771   2.548   1.009  10.693  0.0788  0.8818 -0.4253
12786TIP3   OH259772   6.645   6.337  16.097  0.5395 -0.4722  1.2954
12786TIP3    H159773   6.686   6.252  16.113  0.4157 -0.8052 -0.0905
12786TIP3    H259774   6.552   6.318  16.087  0.3966 -0.0618  1.8050
12787TIP3   OH259775   6.261   3.177   4.644  0.2214 -0.2406 -0.3243
12787TIP3    H159776   6.274   3.185   4.549 -0.1616 -1.0407 -0.4479
12787TIP3    H259777   6.166   3.186   4.655 -0.0023 -2.4202 -0.2570
12788TIP3   OH259778   4.454   4.548  15.439  0.1616  0.7170  0.1235
12788TIP3    H159779   4.410   4.523  15.521  0.5009  1.8738  0.6668
12788TIP3    H259780   4.487   4.465  15.404 -1.8083 -0.0746  0.0763
12789TIP3   OH259781   4.206   3.155   0.675  0.5554 -0.4798  0.4191
12789TIP3    H159782   4.165   3.075   0.640 -2.0946  0.5574  1.0197
12789TIP3    H259783   4.186   3.152   0.769  1.6053  0.2325  0.6647
12790TIP3   OH259784   5.952   2.075   1.192  0.9150  0.0696  0.0611
12790TIP3    H159785   5.929   2.160   1.154 -2.1404 -0.2372  1.0688
12790TIP3    H259786   5.875   2.050   1.243  1.6005 -3.4527 -0.4549
12791TIP3   OH259787   5.187   4.766  11.296  0.8430 -0.0841  0.6059
12791TIP3    H159788   5.198   4.784  11.390 -0.3313 -0.2342  0.7743
12791TIP3    H259789   5.096   4.741  11.287  1.6100 -2.7686 -0.1493
12792TIP3   OH259790   4.766   6.589   5.666 -0.2004 -0.2126  0.1270
12792TIP3    H159791   4.716   6.551   5.593 -1.8085  0.3778  0.8974
12792TIP3    H259792   4.797   6.513   5.716  0.9380 -0.6212 -1.1756
12793TIP3   OH259793   5.670   1.769  14.951  0.6950 -0.9630  0.4379
12793TIP3    H159794   5.581   1.779  14.917  0.4351 -2.1484  0.7372
12793TIP3    H259795   5.718   1.842  14.914 -0.3394 -0.4779  0.0328
12794TIP3   OH259796   6.076   4.843   5.007 -0.3214 -0.2106  0.2146
12794TIP3    H159797   6.094   4.817   5.098  0.6456  0.1595  0.1389
12794TIP3    H259798   6.109   4.771   4.954  0.1306  0.0646  0.1151
12795TIP3   OH259799   2.962   5.399   3.687  0.2955 -0.8522 -0.2100
12795TIP3    H159800   2.924   5.324   3.733  0.8634 -1.4703 -0.7360
12795TIP3    H259801   3.025   5.360   3.626  0.5313  0.0491 -0.5468
12796TIP3   OH259802   5.125   0.952  10.989 -0.1843 -0.7098  0.3805
12796TIP3    H159803   5.112   0.872  10.937 -0.5503 -0.4532  0.0763
12796TIP3    H259804   5.106   1.023  10.929 -3.4213 -0.4462  1.6074
12797TIP3   OH259805   3.778   0.489  11.440  0.3155  0.6963  0.0166
12797TIP3    H159806   3.798   0.446  11.357 -1.8701  0.0790 -0.2278
12797TIP3    H259807   3.755   0.417  11.499  0.0361  1.2751  0.6163
12798TIP3   OH259808   4.575   5.072   2.267 -0.0471 -0.0799  0.2791
12798TIP3    H159809   4.540   5.026   2.191 -0.1631  0.6589 -0.1135
12798TIP3    H259810   4.623   5.147   2.231  1.6819 -0.9044  0.8358
12799TIP3   OH259811   3.569   5.347   0.883 -0.0515 -0.3042  0.3549
12799TIP3    H159812   3.555   5.398   0.804 -3.0961 -2.0784 -0.3335
12799TIP3    H259813   3.613   5.407   0.944 -1.1466  2.2557 -1.3373
12800TIP3   OH259814   2.998   4.662   2.560 -0.3183  0.1485  0.4517
12800TIP3    H159815   3.048   4.599   2.508  0.5884  0.9992  0.2747
12800TIP3    H259816   2.983   4.617   2.644  0.3639 -0.2876  0.3433
12801TIP3   OH259817   2.947   0.618  12.655  0.5357  0.7321 -0.0077
12801TIP3    H159818   2.904   0.640  12.573  0.7243  0.5561 -0.1518
12801TIP3    H259819   2.886   0.559  12.699  1.5735 -1.2293 -1.1560
12802TIP3   OH259820   4.197   2.533   3.259  0.0108 -0.2928 -1.1160
12802TIP3    H159821   4.239   2.580   3.332  2.6267 -0.4604 -2.4789
12802TIP3    H259822   4.226   2.579   3.181 -1.1451 -1.3940 -2.2122
12803TIP3   OH259823   6.477   2.784   5.247  0.5747 -0.0910 -0.2920
12803TIP3    H159824   6.470   2.791   5.342 -0.3687 -0.9626 -0.2823
12803TIP3    H259825   6.452   2.870   5.214 -2.4430 -0.7421  0.1262
12804TIP3   OH259826   3.524   5.009   3.034 -0.1294  0.6269  0.2602
12804TIP3    H159827   3.462   5.071   3.072 -0.2401  1.1952 -0.8420
12804TIP3    H259828   3.537   5.039   2.944  1.4844  0.3392  0.3658
12805TIP3   OH259829   6.414   4.504   3.738 -0.3018 -0.4399  0.1978
12805TIP3    H159830   6.432   4.426   3.789  1.0434 -0.8076 -0.8473
12805TIP3    H259831   6.341   4.479   3.681  1.0896 -1.4072 -1.1889
12806TIP3   OH259832   0.352   4.378  13.483  0.3760 -0.0095  0.5442
12806TIP3    H159833   0.339   4.383  13.577  1.5761  1.3184  0.6556
12806TIP3    H259834   0.377   4.287  13.466 -0.8127 -0.4924  1.3735
12807TIP3   OH259835   4.409   1.442  12.859  0.2465 -1.0158  0.0560
12807TIP3    H159836   4.497   1.437  12.896  0.3595 -0.5561 -0.1429
12807TIP3    H259837   4.366   1.511  12.909  0.4152 -0.3609 -0.6878
12808TIP3   OH259838   0.156   3.198   5.844 -0.2475  0.2828 -0.7083
12808TIP3    H159839   0.203   3.164   5.920 -0.1625  1.8000 -0.0684
12808TIP3    H259840   0.225   3.214   5.779 -0.2268 -0.2367 -0.8180
12809TIP3   OH259841   0.392   6.629  12.758 -0.0943  0.9835 -0.1020
12809TIP3    H159842   0.386   6.667  12.670  0.6466 -0.0588 -0.6117
12809TIP3    H259843   0.459   6.561  12.750 -2.7835 -1.8115  0.2935
12810TIP3   OH259844   1.985   3.362   1.558 -0.3430 -0.2810  0.5162
12810TIP3    H159845   1.906   3.412   1.534 -0.8775 -1.2213  0.2904
12810TIP3    H259846   2.015   3.325   1.475 -0.2094 -0.7077  0.7590
12811TIP3   OH259847   2.833   2.142  13.249  0.1236 -0.4947 -0.1515
12811TIP3    H159848   2.903   2.193  13.290 -0.9440 -0.4445  1.6600
12811TIP3    H259849   2.771   2.208  13.217  1.3247 -0.5087 -2.5628
12812TIP3   OH259850   6.226   6.140  15.411  0.2580  0.1507 -0.4556
12812TIP3    H159851   6.188   6.217  15.367  1.1223  1.0975  0.4135
12812TIP3    H259852   6.321   6.152  15.401  0.4593  0.2825  1.4878
12813TIP3   OH259853   3.021   5.990  11.114 -0.1998 -0.4229 -0.0608
12813TIP3    H159854   3.113   6.010  11.096 -0.7000 -0.1902 -2.5332
12813TIP3    H259855   2.989   6.067  11.160  0.2516  0.5463 -1.3308
12814TIP3   OH259856   6.336   4.740  12.434 -0.1444 -0.0268  0.3765
12814TIP3    H159857   6.389   4.730  12.513  1.0447  1.8463 -0.1508
12814TIP3    H259858   6.268   4.803  12.457  0.1842  0.4980 -0.0607
12815TIP3   OH259859   0.039   4.138   3.012  0.0567 -0.6639 -0.2783
12815TIP3    H159860   0.023   4.052   2.974  0.7597 -1.0761  0.3388
12815TIP3    H259861  -0.046   4.168   3.042 -0.2793 -0.9048 -0.9836
12816TIP3   OH259862   0.907   2.563   0.609 -0.3795  0.4518  0.0949
12816TIP3    H159863   0.833   2.511   0.577 -0.0828  0.7596 -1.1193
12816TIP3    H259864   0.882   2.653   0.591 -0.0614  0.6113  0.4526
12817TIP3   OH259865   4.685   5.335  10.184  0.4108  0.3738 -0.1335
12817TIP3    H159866   4.684   5.244  10.156 -0.8180  0.5154 -0.5703
12817TIP3    H259867   4.650   5.384  10.109  1.9120  1.3093 -0.2536
12818TIP3   OH259868   5.118   3.679   2.686  0.4310 -0.3067 -0.0577
12818TIP3    H159869   5.061   3.757   2.683 -1.0601 -1.2794  1.9511
12818TIP3    H259870   5.206   3.714   2.674 -0.1128  1.8461  1.7998
12819TIP3   OH259871   1.967   2.638   6.203  0.0473 -0.3059  0.1047
12819TIP3    H159872   2.058   2.666   6.214  0.2406  0.1026 -2.2112
12819TIP3    H259873   1.919   2.686   6.270  1.2389  1.2018 -0.0892
12820TIP3   OH259874   4.228   0.100  12.056 -0.5659 -0.1729 -0.5172
12820TIP3    H159875   4.210   0.160  12.128  0.0031  0.0247 -0.5329
12820TIP3    H259876   4.234   0.157  11.979 -1.1754 -0.3838 -0.7228
12821TIP3   OH259877   3.611   3.279  13.853  0.8084 -0.2899 -0.2711
12821TIP3    H159878   3.577   3.217  13.917  0.1277 -0.2404 -0.5836
12821TIP3    H259879   3.670   3.227  13.798 -0.5028 -0.8800 -1.1329
12822TIP3   OH259880   1.424   0.586  10.904  0.3657 -0.2436 -0.2845
12822TIP3    H159881   1.437   0.495  10.874  1.6766  0.5925 -2.4059
12822TIP3    H259882   1.358   0.621  10.844 -1.7812 -0.4001  1.9160
12823TIP3   OH259883   2.576   1.772   4.637 -0.1956 -0.0087  0.2016
12823TIP3    H159884   2.644   1.810   4.694 -0.3061  1.6083 -0.7075
12823TIP3    H259885   2.624   1.713   4.579 -0.2127 -2.4861  2.5902
12824TIP3   OH259886   1.460   1.405  16.309  0.1207 -0.1324 -0.3025
12824TIP3    H159887   1.450   1.492  16.271 -0.0074  0.0694  0.1922
12824TIP3    H259888   1.453   1.419  16.403  3.0466 -0.2430 -0.0120
12825TIP3   OH259889   0.584   5.047   3.047 -0.4430  0.2689  0.4491
12825TIP3    H159890   0.604   4.973   3.105 -1.9797 -0.6864 -0.1884
12825TIP3    H259891   0.488   5.053   3.049 -0.4102  1.2752 -0.6999
12826TIP3   OH259892   3.096   3.386  11.771  0.3505 -0.2404 -0.1604
12826TIP3    H159893   3.055   3.416  11.853  1.4977  2.1661 -0.4192
12826TIP3    H259894   3.139   3.464  11.736  1.3104 -1.6482 -2.2146
12827TIP3   OH259895   1.835   2.746  15.528  0.4513  0.1293  0.3827
12827TIP3    H159896   1.753   2.731  15.481  1.1544 -1.0614 -0.5355
12827TIP3    H259897   1.900   2.758  15.458  1.1985  0.2034  1.0838
12828TIP3   OH259898   0.483   4.875   0.361  0.5042 -0.3842  0.3119
12828TIP3    H159899   0.480   4.946   0.298  1.0087 -1.6875 -1.2120
12828TIP3    H259900   0.400   4.828   0.350  0.3775 -0.3197  0.9703
12829TIP3   OH259901   3.907   0.954   4.801 -0.4471  0.0737  0.3217
12829TIP3    H159902   3.930   0.905   4.722 -0.3079  0.3245  0.2075
12829TIP3    H259903   3.814   0.936   4.815 -0.1395 -1.0914  0.8951
12830TIP3   OH259904   4.221   4.096  16.635 -0.8747  0.4242  0.1400
12830TIP3    H159905   4.178   4.014  16.659  0.4248 -0.6772 -1.1929
12830TIP3    H259906   4.177   4.124  16.555 -1.1612  0.9176  0.4665
12831TIP3   OH259907   3.119   5.383   0.261 -0.2159  0.6016  0.1642
12831TIP3    H159908   3.191   5.345   0.211  0.6841  3.5058 -0.8628
12831TIP3    H259909   3.152   5.387   0.351  0.1329  0.0846  0.0644
12832TIP3   OH259910   5.040   3.214  16.211  0.1513  0.0868  0.5524
12832TIP3    H159911   5.044   3.249  16.301 -0.5915  3.5981 -0.6875
12832TIP3    H259912   4.946   3.205  16.194  0.3141 -2.8405  0.8682
12833TIP3   OH259913   5.663   0.454   1.551 -0.0007 -0.6315  0.1350
12833TIP3    H159914   5.731   0.392   1.577 -0.1189 -0.6999  0.2852
12833TIP3    H259915   5.653   0.441   1.457  1.5665  0.7595 -0.2348
12834TIP3   OH259916   6.573   3.373  13.887 -0.0454 -0.0493  0.0898
12834TIP3    H159917   6.495   3.319  13.896 -0.5090  0.6219  0.1323
12834TIP3    H259918   6.547   3.459  13.921  0.1901  0.6480 -1.4402
12835TIP3   OH259919   1.810   4.342  14.941 -0.2998 -0.5291 -0.0322
12835TIP3    H159920   1.717   4.321  14.938 -0.3576 -0.1014 -2.2550
12835TIP3    H259921   1.851   4.276  14.885  0.5727  0.0449 -0.0823
12836TIP3   OH259922   3.964   5.010   0.300 -0.1094  0.2587  0.6409
12836TIP3    H159923   3.918   5.044   0.223  0.2521 -1.2244 -0.2460
12836TIP3    H259924   4.041   5.066   0.309 -0.4030  0.7312  0.2029
12837TIP3   OH259925   6.461   1.650  12.424  0.5292  0.1108  0.5869
12837TIP3    H159926   6.387   1.694  12.466  1.3943  2.1961 -0.0503
12837TIP3    H259927   6.534   1.711  12.432  1.4801 -0.7236 -1.2895
12838TIP3   OH259928   4.475   2.155  16.976  0.5012  0.4413  0.4763
12838TIP3    H159929   4.439   2.242  16.961  2.4916  0.9717 -1.4764
12838TIP3    H259930   4.501   2.154  17.068 -2.4870  0.7464  1.3800
12839TIP3   OH259931   6.348   4.547   4.022 -0.4409 -0.1562  0.2625
12839TIP3    H159932   6.411   4.541   3.950  0.7258  0.5743  1.2018
12839TIP3    H259933   6.382   4.616   4.078 -0.8496 -1.3155  1.9848
12840TIP3   OH259934   6.216   2.391  16.378 -0.7489  0.0972  0.5417
12840TIP3    H159935   6.139   2.431  16.339 -0.9099 -1.9630 -1.3163
12840TIP3    H259936   6.188   2.302  16.401  1.2482 -0.8988 -0.7762
12841TIP3   OH259937   3.369   0.661   1.266 -0.3252  0.6682  0.2620
12841TIP3    H159938   3.296   0.720   1.248 -1.2014  0.4532  2.9111
12841TIP3    H259939   3.447   0.717   1.260 -0.5441  0.6533 -3.7194
12842TIP3   OH259940   0.474   2.091   2.992 -0.1143  0.2402 -0.1073
12842TIP3    H159941   0.438   2.104   2.904 -0.7038  0.9147  0.2305
12842TIP3    H259942   0.402   2.051   3.041 -0.2572  1.1760  0.4494
12843TIP3   OH259943   1.209   2.629   2.881 -0.1976  0.4978  0.2983
12843TIP3    H159944   1.217   2.579   2.962 -2.0966  0.6055  0.5671
12843TIP3    H259945   1.162   2.570   2.821  3.1200 -0.4602 -1.4957
12844TIP3   OH259946   4.299   0.673  16.052 -0.3881  0.0199  0.0439
12844TIP3    H159947   4.276   0.647  15.962  2.1770  1.1395 -0.9702
12844TIP3    H259948   4.342   0.596  16.089  0.5360  0.2938 -0.4480
12845TIP3   OH259949   1.121   2.013  12.215 -0.8342 -0.4123 -0.3016
12845TIP3    H159950   1.182   2.087  12.215  0.8117 -1.7488  0.2554
12845TIP3    H259951   1.128   1.975  12.128 -1.7911  0.1483 -0.6362
12846TIP3   OH259952   0.428   4.539   1.172  0.2003 -0.9409  0.0111
12846TIP3    H159953   0.392   4.519   1.259 -0.5067 -1.1009 -0.3078
12846TIP3    H259954   0.351   4.542   1.116  0.4042  1.6697 -0.1564
12847TIP3   OH259955   1.718   3.084  12.562  0.0687  0.7118 -0.4055
12847TIP3    H159956   1.805   3.093  12.522 -0.8623  0.7192 -2.4963
12847TIP3    H259957   1.684   3.002  12.527 -0.3970  0.1929  1.2005
12848TIP3   OH259958   3.455   2.430  14.402 -0.4155  0.1773  0.0541
12848TIP3    H159959   3.490   2.515  14.374 -1.6324  1.9448  3.6602
12848TIP3    H259960   3.515   2.401  14.470 -1.2164 -0.8217  0.3390
12849TIP3   OH259961   6.026   0.423   0.545  0.1679  0.7099  0.3718
12849TIP3    H159962   6.070   0.453   0.465  1.2092  1.1410  1.0899
12849TIP3    H259963   6.093   0.431   0.613  0.0585 -1.9461  0.8399
12850TIP3   OH259964   0.869   4.926   4.382 -0.4608 -0.4935  0.1916
12850TIP3    H159965   0.961   4.904   4.400 -0.2616  0.4136  0.2618
12850TIP3    H259966   0.823   4.842   4.389  0.4296 -1.0339 -0.2909
12851TIP3   OH259967   0.830   5.096   3.238  0.2471 -0.2006 -0.1899
12851TIP3    H159968   0.834   5.102   3.143 -0.0495 -0.7566 -0.2395
12851TIP3    H259969   0.862   5.008   3.259 -1.2155 -0.6935  0.1018
12852TIP3   OH259970   1.340   5.237  10.778 -0.0032  0.5518  0.7971
12852TIP3    H159971   1.270   5.237  10.843 -1.6404  0.6916 -0.9131
12852TIP3    H259972   1.376   5.149  10.782 -1.4904 -0.0847  0.4331
12853TIP3   OH259973   3.958   4.402  11.502 -0.5686  0.0148 -0.0725
12853TIP3    H159974   3.908   4.326  11.473 -1.9726  1.7689 -2.3980
12853TIP3    H259975   3.979   4.450  11.422 -1.5263  3.1801  1.4556
12854TIP3   OH259976   3.470   1.952  12.443 -0.0020 -0.2578 -0.0563
12854TIP3    H159977   3.391   1.980  12.398  0.3742  0.3948 -0.3175
12854TIP3    H259978   3.439   1.908  12.522 -0.5948  0.8737  0.3435
12855TIP3   OH259979   4.069   5.508   4.820 -0.4139 -0.3989  0.2758
12855TIP3    H159980   4.067   5.602   4.840 -2.8657 -0.3577  0.0640
12855TIP3    H259981   4.055   5.505   4.725  0.5310 -0.9498  0.1566
12856TIP3   OH259982   6.747   5.835   0.420  0.0821  0.5464 -0.2084
12856TIP3    H159983   6.806   5.818   0.494 -0.6523  1.4450  0.5961
12856TIP3    H259984   6.678   5.769   0.429 -0.9575  1.7635  0.9538
12857TIP3   OH259985   6.572   0.653  12.476  0.0561 -0.1905 -0.2104
12857TIP3    H159986   6.491   0.693  12.507  0.8403  2.2803 -1.1761
12857TIP3    H259987   6.556   0.635  12.383 -0.0627 -1.5568  0.0650
12858TIP3   OH259988   0.531   2.203   4.181 -0.4484  0.5766  0.4631
12858TIP3    H159989   0.466   2.133   4.193 -0.8093  0.9583  0.7653
12858TIP3    H259990   0.479   2.281   4.163  0.0610  0.1144 -3.4311
12859TIP3   OH259991   4.202   3.728   4.940  0.5073 -0.2675 -0.2666
12859TIP3    H159992   4.290   3.692   4.954  1.2542  1.0067 -1.5523
12859TIP3    H259993   4.208   3.818   4.972 -1.1106 -0.9655  2.1308
12860TIP3   OH259994   5.403   3.665   3.721 -0.5130  0.0031 -0.2271
12860TIP3    H159995   5.363   3.704   3.799 -1.5071  0.6438 -1.0432
12860TIP3    H259996   5.347   3.694   3.648  0.2960 -0.7370 -1.1565
12861TIP3   OH259997   4.301   1.781  14.904 -0.0016  0.2926 -0.7819
12861TIP3    H159998   4.254   1.777  14.987 -1.3151 -1.2596 -1.5518
12861TIP3    H259999   4.275   1.701  14.858  0.9388  0.9679 -2.5567
12862TIP3   OH260000   3.891   1.767   1.869 -0.8149 -0.3813  0.4633
12862TIP3    H160001   3.932   1.742   1.786 -1.4789  0.8942 -0.2749
12862TIP3    H260002   3.880   1.685   1.917  1.2295 -0.9209  0.0498
12863TIP3   OH260003   0.787   3.366   4.297 -0.1181  0.2269 -0.2108
12863TIP3    H160004   0.712   3.315   4.265 -1.0536  1.0121  0.6784
12863TIP3    H260005   0.755   3.456   4.300  0.9263  0.5912  0.0050
12864TIP3   OH260006   4.306   3.194  14.712 -0.2379  0.0032  0.6595
12864TIP3    H160007   4.314   3.223  14.803 -0.4553 -1.1111  1.0515
12864TIP3    H260008   4.233   3.132  14.714 -0.2267 -0.0452 -0.2783
12865TIP3   OH260009   0.676   0.258  10.377  0.0973 -0.1820 -0.7516
12865TIP3    H160010   0.656   0.349  10.399  1.0245 -0.1645  0.0685
12865TIP3    H260011   0.609   0.207  10.423  0.9996 -0.0433  0.7516
12866TIP3   OH260012   3.746   0.377   3.061  0.7456 -0.0856 -0.0291
12866TIP3    H160013   3.694   0.456   3.075 -1.1639 -1.3603  0.1728
12866TIP3    H260014   3.696   0.326   2.998  1.7681 -1.3107  0.1392
12867TIP3   OH260015   6.138   5.316   0.565 -0.6428 -0.0482  0.0789
12867TIP3    H160016   6.142   5.221   0.574 -2.0490 -0.1726 -0.3742
12867TIP3    H260017   6.119   5.331   0.472  0.3727  0.7056 -0.0125
12868TIP3   OH260018   4.877   1.814   6.008 -0.2317  0.0880  0.5357
12868TIP3    H160019   4.944   1.881   6.010 -0.2678  0.0951  1.6934
12868TIP3    H260020   4.912   1.743   6.062 -0.9503 -0.0833  0.7916
12869TIP3   OH260021   0.570   5.454  10.724  0.2442 -0.1009 -0.2351
12869TIP3    H160022   0.479   5.478  10.742  1.1127  1.8035  1.9162
12869TIP3    H260023   0.611   5.537  10.697  1.3720 -0.8935 -0.9686
12870TIP3   OH260024   0.604   1.673   2.306 -0.3778  0.3309  0.1373
12870TIP3    H160025   0.686   1.715   2.331 -0.0639  0.9152 -1.7971
12870TIP3    H260026   0.538   1.740   2.318 -0.5773 -0.1325  1.6744
12871TIP3   OH260027   1.416   4.033  13.127 -0.0704  0.2847  0.3794
12871TIP3    H160028   1.436   4.045  13.034  0.4032 -0.5347  0.3703
12871TIP3    H260029   1.493   4.066  13.173 -0.5697  1.2955  0.5166
12872TIP3   OH260030   4.133   4.502   3.611 -0.7219  0.1224  0.3112
12872TIP3    H160031   4.089   4.577   3.651 -1.2775 -1.7825  3.4254
12872TIP3    H260032   4.213   4.491   3.662 -0.4881 -1.2306 -0.3386
12873TIP3   OH260033   5.780   1.603  14.207  0.4736 -0.1189 -0.2968
12873TIP3    H160034   5.767   1.591  14.113  0.2820  0.7608 -0.3908
12873TIP3    H260035   5.693   1.590  14.245  0.9050 -2.3176 -0.0320
12874TIP3   OH260036   1.388   6.330   4.111 -0.3294 -0.6429 -0.0871
12874TIP3    H160037   1.302   6.289   4.101  0.2298 -1.7126 -0.7519
12874TIP3    H260038   1.391   6.398   4.044 -0.5901 -0.7397 -0.1958
12875TIP3   OH260039   1.333   6.503  13.799  0.5412 -0.0203  0.2825
12875TIP3    H160040   1.346   6.556  13.721  0.8691 -0.4597  0.0337
12875TIP3    H260041   1.415   6.513  13.849  0.0825  0.7702  0.8775
12876TIP3   OH260042   0.924   1.209   3.922 -0.3986  0.1108 -0.7089
12876TIP3    H160043   1.013   1.177   3.939 -0.4332  1.0659  1.5365
12876TIP3    H260044   0.874   1.130   3.901  0.6235 -0.6675 -0.2641
12877TIP3   OH260045   3.585   6.281  15.840  0.0435  0.0795  0.0913
12877TIP3    H160046   3.555   6.313  15.925 -0.5965 -0.3150  0.0205
12877TIP3    H260047   3.645   6.210  15.862 -2.4586 -2.1022  0.2138
12878TIP3   OH260048   1.086   0.395   3.044  0.9308  0.2158  0.8492
12878TIP3    H160049   1.006   0.390   3.096 -0.4924  2.8800 -0.9518
12878TIP3    H260050   1.104   0.305   3.018 -0.2175 -0.7031  3.0793
12879TIP3   OH260051   5.378   1.927  15.147  0.1738 -0.1259  0.2377
12879TIP3    H160052   5.355   2.010  15.106  0.1315  0.2518  1.0095
12879TIP3    H260053   5.408   1.872  15.075 -2.3007 -0.3371 -0.6779
12880TIP3   OH260054   4.777   3.312  16.062  0.3106  0.0621 -0.0569
12880TIP3    H160055   4.758   3.402  16.086 -1.1062 -0.2344 -0.0413
12880TIP3    H260056   4.694   3.265  16.073  1.5964 -1.7835  2.4270
12881TIP3   OH260057   5.364   6.576   2.805  0.7330 -0.5458  0.3812
12881TIP3    H160058   5.410   6.650   2.766 -1.0343 -0.5632 -1.8493
12881TIP3    H260059   5.304   6.547   2.736 -0.6599 -2.2154  2.2676
12882TIP3   OH260060   1.646   3.566   1.253  0.0486  0.1354 -0.1383
12882TIP3    H160061   1.667   3.538   1.164 -0.4186  2.2561 -0.9607
12882TIP3    H260062   1.567   3.517   1.276  1.0285 -1.5524 -0.2886
12883TIP3   OH260063   4.866   5.933   3.245 -0.4254 -0.1115 -0.0899
12883TIP3    H160064   4.846   5.847   3.208  0.0887  0.2025 -1.1157
12883TIP3    H260065   4.876   5.916   3.339 -1.1558 -1.0192 -0.1613
12884TIP3   OH260066   1.213   3.960  10.829  0.0608 -0.4797  0.4495
12884TIP3    H160067   1.259   3.965  10.913  0.4536  1.6222  0.1556
12884TIP3    H260068   1.120   3.955  10.853  0.3553 -4.7602  1.0461
12885TIP3   OH260069   3.406   1.996  16.382  0.1810 -0.2485  0.6761
12885TIP3    H160070   3.358   2.078  16.374  1.0756  0.4202  1.9704
12885TIP3    H260071   3.404   1.958  16.294 -1.5541  0.4050  0.4162
12886TIP3   OH260072   4.742   3.037   2.608  0.6159 -0.0135  0.6267
12886TIP3    H160073   4.697   3.021   2.525 -1.3750 -0.0107  1.6590
12886TIP3    H260074   4.812   3.099   2.587 -0.5379  0.8065 -0.8521
12887TIP3   OH260075   2.876   0.823   3.973 -0.8162  0.1142 -0.0691
12887TIP3    H160076   2.961   0.866   3.967 -1.1531  0.7792 -0.1649
12887TIP3    H260077   2.894   0.732   3.952 -0.0095  0.1075  0.6543
12888TIP3   OH260078   0.529   1.523   5.065 -0.2731 -0.6659  0.2405
12888TIP3    H160079   0.560   1.551   5.151  0.2000  0.0738 -0.1614
12888TIP3    H260080   0.443   1.486   5.081 -0.2226 -0.4499  1.0203
12889TIP3   OH260081   1.805   1.898   0.838  0.1970  0.4682 -0.0580
12889TIP3    H160082   1.774   1.861   0.755 -0.4504  2.3510 -0.6662
12889TIP3    H260083   1.896   1.868   0.845  0.2640  0.3102 -1.4458
12890TIP3   OH260084   6.143   1.389   1.793  0.2982 -0.2233  0.4286
12890TIP3    H160085   6.175   1.463   1.741 -0.6831  1.2141  1.8255
12890TIP3    H260086   6.048   1.397   1.789  0.1719 -1.8114  0.0640
12891TIP3   OH260087   6.463   4.937   5.382  0.6215  0.3765 -0.1547
12891TIP3    H160088   6.504   5.023   5.375 -0.0818  0.7485  0.1425
12891TIP3    H260089   6.377   4.949   5.342  0.3104 -0.0386  0.3825
12892TIP3   OH260090   4.158   4.463   2.796  1.0253  0.4281 -0.4429
12892TIP3    H160091   4.166   4.541   2.851 -1.6629  1.1996 -1.0816
12892TIP3    H260092   4.206   4.484   2.716  0.9844  1.1014 -0.2876
12893TIP3   OH260093   2.667   1.440   5.252  0.6269 -0.1658 -0.1490
12893TIP3    H160094   2.629   1.470   5.169  0.0099 -0.3553  0.0617
12893TIP3    H260095   2.620   1.358   5.271  1.2643 -0.4903  0.0250
12894TIP3   OH260096   2.945   5.067  15.543 -0.2659  0.7207  0.1201
12894TIP3    H160097   3.028   5.020  15.556  0.2102  1.7224  0.7654
12894TIP3    H260098   2.972   5.157  15.525 -1.1940  0.8558 -0.6256
12895TIP3   OH260099   6.303   5.566   5.462 -0.4098  0.8948 -0.6810
12895TIP3    H160100   6.398   5.558   5.461 -0.3867  1.0344  0.4074
12895TIP3    H260101   6.283   5.631   5.395  0.2634  0.9701 -0.8067
12896TIP3   OH260102   5.080   6.284   4.150  0.1939 -0.2868 -0.3636
12896TIP3    H160103   5.036   6.352   4.099 -0.5115  0.4089  1.1154
12896TIP3    H260104   5.140   6.242   4.089 -0.5633  0.5724 -1.7232
12897TIP3   OH260105   3.170   0.677   3.910 -0.2485  0.3529  0.2101
12897TIP3    H160106   3.230   0.607   3.934 -1.1264 -1.0062 -1.4530
12897TIP3    H260107   3.143   0.715   3.994 -0.4612 -1.8938  1.2066
12898TIP3   OH260108   0.563   4.956   0.590  0.6420  0.2178  0.0764
12898TIP3    H160109   0.574   5.049   0.571 -0.6921  0.2396 -0.6646
12898TIP3    H260110   0.539   4.917   0.506  2.4978 -1.0396  0.0985
12899TIP3   OH260111   1.973   1.457  16.093  0.5292  0.1386 -0.0968
12899TIP3    H160112   2.009   1.383  16.043  2.3553  1.0776 -0.2112
12899TIP3    H260113   1.978   1.531  16.032  1.3805  0.9656  0.9643
12900TIP3   OH260114   2.862   3.647   2.279  0.2930  0.5231 -0.3311
12900TIP3    H160115   2.875   3.734   2.241  0.3347  0.8851  0.4932
12900TIP3    H260116   2.787   3.657   2.338  0.1031 -0.0755 -0.4710
12901TIP3   OH260117   6.761   3.043  15.731  0.2267  0.5208 -0.5464
12901TIP3    H160118   6.804   2.958  15.739  0.1000  0.4315 -0.8024
12901TIP3    H260119   6.831   3.107  15.741  0.5868  0.3672 -1.9309
12902TIP3   OH260120   6.423   4.139   1.262 -0.0989 -0.3016 -0.8218
12902TIP3    H160121   6.433   4.187   1.180  0.5091  0.5379 -0.2603
12902TIP3    H260122   6.429   4.206   1.330 -1.2846 -0.8862 -0.1107
12903TIP3   OH260123   5.156   3.502  12.565  0.0381 -0.3528 -0.4783
12903TIP3    H160124   5.221   3.488  12.634 -0.2384  0.6597 -0.0038
12903TIP3    H260125   5.151   3.418  12.519 -0.4804 -1.3260  1.3267
12904TIP3   OH260126   6.242   1.350  16.558 -0.2020 -0.2807 -0.4087
12904TIP3    H160127   6.251   1.269  16.609 -0.4574  0.6035  1.0825
12904TIP3    H260128   6.321   1.354  16.505 -0.5120 -1.8610 -1.0262
12905TIP3   OH260129   3.377   4.720  11.998  1.0913  0.1806  0.7353
12905TIP3    H160130   3.424   4.724  11.914  0.5646  0.2551  0.4378
12905TIP3    H260131   3.412   4.792  12.049  0.3965  1.0210  0.0333
12906TIP3   OH260132   6.602   0.142   4.450 -0.1470  0.7912 -0.0341
12906TIP3    H160133   6.673   0.137   4.514  0.1202  1.1078 -0.3064
12906TIP3    H260134   6.544   0.211   4.483 -0.6287  0.1459  0.4869
12907TIP3   OH260135   2.532   2.475  11.981  0.2694 -0.5631 -0.2476
12907TIP3    H160136   2.627   2.486  11.987  0.4054 -1.7627 -0.1740
12907TIP3    H260137   2.504   2.542  11.919  1.3635 -1.2525 -1.4935
12908TIP3   OH260138   1.789   0.391   4.406 -0.6924  0.2953 -0.1280
12908TIP3    H160139   1.849   0.417   4.337 -0.5145  0.0702 -0.0601
12908TIP3    H260140   1.802   0.456   4.475  1.9822 -1.6709  1.3112
12909TIP3   OH260141   1.669   2.736  16.502 -0.8785 -0.4877 -0.3819
12909TIP3    H160142   1.646   2.748  16.595  1.0039 -1.8624  0.2983
12909TIP3    H260143   1.668   2.641  16.490  0.2253 -0.3812 -1.3945
12910TIP3   OH260144   5.988   5.081  12.762 -0.5448 -0.1527 -0.6071
12910TIP3    H160145   5.958   5.171  12.767  1.2772  0.4710 -0.6992
12910TIP3    H260146   5.945   5.045  12.685  0.9582  1.5144 -2.2577
12911TIP3   OH260147   0.885   5.967  15.106  0.0770 -0.3792 -0.1867
12911TIP3    H160148   0.962   5.972  15.050 -0.5153 -1.0212 -1.0886
12911TIP3    H260149   0.890   6.043  15.163  1.6973 -0.7570  0.1777
12912TIP3   OH260150   3.883   1.723  13.513  0.0435  0.3760 -0.3882
12912TIP3    H160151   3.917   1.634  13.501 -2.2341 -0.3576 -1.8225
12912TIP3    H260152   3.872   1.756  13.424 -0.7975  1.4400  0.1039
12913TIP3   OH260153   1.889   1.762  12.129 -0.4582  0.3549  0.0019
12913TIP3    H160154   1.909   1.687  12.186  0.5528 -0.5846 -1.5547
12913TIP3    H260155   1.793   1.763  12.125 -0.5055 -0.2975  0.7708
12914TIP3   OH260156   1.040   4.019   1.108 -0.1600 -0.4823  0.0694
12914TIP3    H160157   1.078   4.030   1.195  0.8219 -1.4193 -0.2283
12914TIP3    H260158   1.112   3.985   1.055 -0.5931  0.5784 -1.2404
12915TIP3   OH260159   3.910   3.822   1.723 -0.0879 -0.2182  0.5540
12915TIP3    H160160   3.992   3.846   1.765 -0.5341 -0.3837  1.5482
12915TIP3    H260161   3.875   3.905   1.689 -0.4496  0.1641  1.8388
12916TIP3   OH260162   4.814   5.108   2.972 -0.7198 -0.1522  0.2225
12916TIP3    H160163   4.854   5.188   3.007  0.4389 -0.8410  0.5035
12916TIP3    H260164   4.870   5.085   2.897 -2.4135  0.5898 -1.3132
12917TIP3   OH260165   1.043   4.308  14.628 -1.3224 -0.1339  0.5739
12917TIP3    H160166   1.062   4.399  14.645  0.1754  0.0874 -1.9958
12917TIP3    H260167   1.097   4.259  14.690  1.0710  0.6721 -0.8152
12918TIP3   OH260168   5.958   3.037   4.128 -0.1568 -0.0111 -0.1922
12918TIP3    H160169   6.042   3.018   4.084 -1.0107 -2.9603 -0.6800
12918TIP3    H260170   5.893   3.028   4.058 -1.0891 -0.0995  0.6851
12919TIP3   OH260171   4.389   5.834  15.785 -0.1876 -0.2388 -0.4820
12919TIP3    H160172   4.376   5.887  15.863  1.1328  0.1029 -0.4763
12919TIP3    H260173   4.465   5.779  15.806 -0.2018 -0.5843 -1.2999
12920TIP3   OH260174   1.433   4.590  16.223 -0.0881  0.0036  0.0913
12920TIP3    H160175   1.372   4.615  16.292 -1.9723  0.1400 -1.6019
12920TIP3    H260176   1.473   4.673  16.196 -0.4398  0.1467  0.0094
12921TIP3   OH260177   3.327   1.484  13.403  0.2004 -0.3941  0.5711
12921TIP3    H160178   3.252   1.426  13.395  1.9652 -2.5143 -1.6755
12921TIP3    H260179   3.388   1.437  13.460  0.7965  0.2036  0.4350
12922TIP3   OH260180   0.690   4.358   3.542 -0.3007 -0.4719  0.2748
12922TIP3    H160181   0.626   4.300   3.583 -0.3690 -1.1241 -0.7202
12922TIP3    H260182   0.726   4.306   3.470  0.1904  0.4589 -0.1637
12923TIP3   OH260183   5.083   0.990   3.694  0.4063  0.5111  0.1774
12923TIP3    H160184   5.111   0.901   3.671  0.1668 -0.0716  2.0203
12923TIP3    H260185   5.164   1.038   3.709  0.5145 -0.0955  1.6236
12924TIP3   OH260186   0.272   1.715  10.364  0.2759  0.4427 -0.4575
12924TIP3    H160187   0.236   1.733  10.451  1.0340  0.3289 -0.1083
12924TIP3    H260188   0.218   1.644  10.329 -0.9005  1.4186 -0.6485
12925TIP3   OH260189   2.694   1.354  11.893 -0.0662  0.0678 -0.0214
12925TIP3    H160190   2.653   1.275  11.856 -0.5296  0.6439 -0.7774
12925TIP3    H260191   2.741   1.324  11.970  0.8874 -1.1798 -1.0624
12926TIP3   OH260192   5.054   1.013   4.217 -0.4474 -0.0737  0.6990
12926TIP3    H160193   4.996   0.974   4.152  0.6539  0.3389 -0.5429
12926TIP3    H260194   5.088   1.092   4.175  2.8199 -1.5146  0.4867
12927TIP3   OH260195   6.147   5.745   2.967 -0.2467  0.2386 -0.0214
12927TIP3    H160196   6.163   5.838   2.985 -0.8038  0.4614 -0.6388
12927TIP3    H260197   6.055   5.742   2.940 -1.0163 -0.8582  2.5011
12928TIP3   OH260198   1.882   1.552  13.878  0.4894 -0.3504  0.4746
12928TIP3    H160199   1.957   1.524  13.931 -0.2100  0.4198  1.8993
12928TIP3    H260200   1.918   1.619  13.820  1.1767 -0.9034  0.2547
12929TIP3   OH260201   2.033   1.385  11.828  0.1224 -0.1159  0.8672
12929TIP3    H160202   2.103   1.416  11.771  0.4161  0.8898  1.7630
12929TIP3    H260203   1.953   1.423  11.791  0.3095  0.5297  1.1213
12930TIP3   OH260204   2.630   1.866   1.101 -0.4915  0.0051 -0.0844
12930TIP3    H160205   2.650   1.940   1.160 -1.1853  0.5123 -0.4826
12930TIP3    H260206   2.561   1.899   1.043 -1.3313 -1.1942  0.2082
12931TIP3   OH260207   2.294   6.625   2.213  0.0705 -0.1902  0.2904
12931TIP3    H160208   2.373   6.572   2.228  0.1142  0.2547  1.6742
12931TIP3    H260209   2.323   6.715   2.224 -0.3712  0.0474 -0.4469
12932TIP3   OH260210   6.422   6.364  10.963  0.5324  0.0318  0.6427
12932TIP3    H160211   6.504   6.404  10.935  0.7279 -1.2369 -0.6819
12932TIP3    H260212   6.358   6.392  10.897  0.3862 -0.7721  0.4397
12933TIP3   OH260213   2.626   6.117  13.671  0.1061  0.5715  0.3104
12933TIP3    H160214   2.539   6.078  13.670 -0.1018  1.0351  0.2925
12933TIP3    H260215   2.677   6.061  13.730 -0.3726  0.6564  0.8140
12934TIP3   OH260216   2.451   1.021   4.633  0.2335  0.1828  0.0914
12934TIP3    H160217   2.486   1.065   4.711 -0.8570 -1.2770  1.4331
12934TIP3    H260218   2.526   0.975   4.595  0.5081 -0.0916  0.9633
12935TIP3   OH260219   2.663   4.976  14.349  0.0769 -0.7589 -0.1152
12935TIP3    H160220   2.717   4.994  14.426  0.7325 -1.9863 -0.2742
12935TIP3    H260221   2.609   5.055  14.339  0.9184 -0.0443  0.8096
12936TIP3   OH260222   0.095   4.330  10.961  0.4118  0.1228 -0.2623
12936TIP3    H160223   0.009   4.308  10.926  0.7886 -1.2227 -0.4041
12936TIP3    H260224   0.140   4.374  10.889 -0.3451  1.3221 -0.0036
12937TIP3   OH260225   5.772   2.945   0.476 -0.1575  0.0411 -0.6173
12937TIP3    H160226   5.758   3.022   0.531  0.4007  0.4585 -1.0566
12937TIP3    H260227   5.867   2.934   0.473 -0.2234 -0.5212 -0.7584
12938TIP3   OH260228   2.776   6.522  15.972 -0.5490  0.3135 -0.0366
12938TIP3    H160229   2.844   6.531  15.905 -2.1692  1.5913 -1.5207
12938TIP3    H260230   2.744   6.432  15.961  2.3008 -1.0539  2.0746
12939TIP3   OH260231   0.964   1.511  13.361  0.3524 -0.3450  0.2823
12939TIP3    H160232   0.894   1.573  13.383  0.5069  0.5548 -1.7074
12939TIP3    H260233   0.937   1.429  13.402 -2.6060 -0.4106 -1.6760
12940TIP3   OH260234   5.734   2.834  14.254 -0.3689 -0.5276  0.1824
12940TIP3    H160235   5.662   2.781  14.288 -0.8722 -0.3850 -0.6400
12940TIP3    H260236   5.809   2.775  14.256 -0.4764 -0.6402  1.1618
12941TIP3   OH260237   0.469   2.498   5.372  0.2052  0.3111  0.1964
12941TIP3    H160238   0.420   2.578   5.388 -1.6187 -1.0973  1.8706
12941TIP3    H260239   0.503   2.473   5.458 -0.8548 -1.7208  0.0561
12942TIP3   OH260240   5.772   0.849   0.230 -0.3542  0.0967 -0.6602
12942TIP3    H160241   5.779   0.831   0.136 -3.8066 -0.2801 -0.9282
12942TIP3    H260242   5.808   0.771   0.272  2.0516  0.6492 -1.6298
12943TIP3   OH260243   3.188   1.036   0.274 -0.5375 -0.2290 -0.3725
12943TIP3    H160244   3.248   0.990   0.215 -0.4910 -0.6232 -0.0188
12943TIP3    H260245   3.143   0.966   0.321 -0.9226  0.0768 -0.2872
12944TIP3   OH260246   6.558   6.317  15.605  0.8110  0.0399  0.3072
12944TIP3    H160247   6.620   6.391  15.605 -0.7327  1.3905 -1.7738
12944TIP3    H260248   6.581   6.267  15.527 -0.7365  0.5649 -0.4893
12945TIP3   OH260249   4.684   3.918   4.252  0.2150  0.6746 -0.2086
12945TIP3    H160250   4.691   4.013   4.260  2.0998  0.3980  1.8458
12945TIP3    H260251   4.593   3.898   4.276  0.0995  1.8642  0.3703
12946TIP3   OH260252   4.721   1.332   3.392  0.0427  0.3433 -0.1793
12946TIP3    H160253   4.627   1.315   3.382  0.0903  0.4070 -0.7304
12946TIP3    H260254   4.763   1.268   3.335  0.3024  0.8546 -0.5623
12947TIP3   OH260255   2.589   5.845  11.732 -0.0867 -0.1572 -0.6503
12947TIP3    H160256   2.635   5.795  11.800 -1.1730 -2.4317 -1.5506
12947TIP3    H260257   2.660   5.887  11.682  0.7737  0.4627  1.0417
12948TIP3   OH260258   1.449   4.931   2.738  0.5703  0.5713  0.1081
12948TIP3    H160259   1.448   5.027   2.735  0.8550  0.6315  1.7549
12948TIP3    H260260   1.536   4.908   2.770  0.7235 -0.2714 -0.8717
12949TIP3   OH260261   4.999   0.854  16.071 -0.3659 -0.4665 -0.3189
12949TIP3    H160262   5.046   0.876  16.151  0.1832 -0.9361 -0.5058
12949TIP3    H260263   5.022   0.923  16.009  0.6443 -1.0685 -0.6278
12950TIP3   OH260264   2.246   6.737   5.647  0.1435 -0.0925  0.3323
12950TIP3    H160265   2.311   6.782   5.700 -0.2921 -0.5484  1.2652
12950TIP3    H260266   2.235   6.652   5.690 -0.0596 -0.5502 -0.6051
12951TIP3   OH260267   4.655   1.337  12.939  0.7848  0.5401 -0.4074
12951TIP3    H160268   4.671   1.290  13.021  0.9869  1.0104 -0.1700
12951TIP3    H260269   4.630   1.269  12.877 -1.5123  0.4322  0.5966
12952TIP3   OH260270   0.618   4.331   1.455  0.0925 -0.6112  0.1794
12952TIP3    H160271   0.609   4.304   1.364 -1.7420 -0.9360  0.4370
12952TIP3    H260272   0.637   4.250   1.502 -2.5389 -1.0844  0.5470
12953TIP3   OH260273   4.458   5.269   1.180  0.3302  0.2343  0.1599
12953TIP3    H160274   4.414   5.350   1.206 -0.1709 -0.4626  1.5527
12953TIP3    H260275   4.408   5.200   1.224 -0.5996 -1.0204 -2.7803
12954TIP3   OH260276   2.135   0.326   0.805 -0.3722  0.3844  0.1403
12954TIP3    H160277   2.113   0.341   0.713 -0.1200  1.1298  0.1955
12954TIP3    H260278   2.066   0.268   0.837 -1.2630  1.2563 -0.1576
12955TIP3   OH260279   0.309   5.830   4.204  0.1630 -0.3700 -0.3096
12955TIP3    H160280   0.276   5.840   4.293  0.5162  0.3763 -0.2597
12955TIP3    H260281   0.403   5.814   4.214  0.2315 -0.1298 -0.5492
12956TIP3   OH260282   5.567   4.023   1.243 -0.0368 -0.6649 -0.0764
12956TIP3    H160283   5.560   4.118   1.234  0.4079 -0.5690  0.5199
12956TIP3    H260284   5.481   3.996   1.276 -0.2023 -0.4864 -0.3572
12957TIP3   OH260285   5.281   4.628   1.997 -0.1557  0.3132 -0.2226
12957TIP3    H160286   5.260   4.719   2.016  0.5291  1.2663 -3.6974
12957TIP3    H260287   5.377   4.627   1.989 -0.3331 -0.1803 -2.5792
12958TIP3   OH260288   4.212   6.460   2.903 -0.7487  0.0962  0.4939
12958TIP3    H160289   4.200   6.478   2.810  0.2711 -1.7376 -0.0341
12958TIP3    H260290   4.298   6.497   2.924 -0.4048 -0.6093  0.3677
12959TIP3   OH260291   1.890   5.049  14.441  0.2640 -0.3045  0.1645
12959TIP3    H160292   1.918   5.117  14.502  1.0543 -0.3353 -0.1639
12959TIP3    H260293   1.806   5.080  14.408  0.1875  0.0737  0.7018
12960TIP3   OH260294   2.476   3.692   1.084 -0.2298  0.2918 -0.1797
12960TIP3    H160295   2.512   3.672   1.171  1.2924 -1.1650 -1.1264
12960TIP3    H260296   2.455   3.606   1.047 -0.4268  0.8823 -1.4476
12961TIP3   OH260297   6.714   6.198   5.017 -0.1620 -0.4244  0.6449
12961TIP3    H160298   6.627   6.159   5.025 -0.6199  0.1215 -1.4764
12961TIP3    H260299   6.727   6.209   4.923  0.9758  2.2313  1.0609
12962TIP3   OH260300   4.846   4.088  13.515 -0.4240  0.3873  0.2522
12962TIP3    H160301   4.868   3.997  13.535 -0.8960  0.2395  0.1027
12962TIP3    H260302   4.929   4.127  13.487 -0.5412 -0.4171 -1.2475
12963TIP3   OH260303   4.557   2.193  12.829  1.0862  0.0316 -0.4976
12963TIP3    H160304   4.593   2.109  12.860  0.1045 -0.0009  0.5928
12963TIP3    H260305   4.463   2.185  12.842  0.9433  1.1489 -0.7968
12964TIP3   OH260306   2.525   5.133   2.493  0.1101  0.1622 -0.1896
12964TIP3    H160307   2.467   5.136   2.569 -1.6077 -1.7611 -1.3650
12964TIP3    H260308   2.558   5.044   2.491  2.0128  0.8557 -0.3634
12965TIP3   OH260309   0.195   5.825  13.726 -0.3069  0.0935  0.6531
12965TIP3    H160310   0.232   5.911  13.745  0.3708 -0.1163  0.3108
12965TIP3    H260311   0.100   5.839  13.722 -0.1034  1.0928 -0.8357
12966TIP3   OH260312   3.975   6.609  12.433 -0.3624  0.5180 -0.8334
12966TIP3    H160313   4.057   6.643  12.397 -0.5445  0.3293 -1.4361
12966TIP3    H260314   3.909   6.631  12.366 -0.6516 -0.0990 -0.7485
12967TIP3   OH260315   2.773   3.226   0.573 -0.2227 -0.4004  0.0272
12967TIP3    H160316   2.734   3.199   0.490  1.2555 -1.5690 -0.3010
12967TIP3    H260317   2.762   3.150   0.630 -0.5085  0.1067  0.6477
12968TIP3   OH260318   5.497   6.307   2.851  0.4770  0.0518  0.1496
12968TIP3    H160319   5.462   6.319   2.763 -1.0723 -1.9907  0.4637
12968TIP3    H260320   5.498   6.395   2.888 -2.5788  0.4468 -0.5562
12969TIP3   OH260321   6.721   5.763   5.346 -0.1146  0.3490 -0.0486
12969TIP3    H160322   6.773   5.792   5.271 -2.8115  2.2700 -1.2283
12969TIP3    H260323   6.662   5.696   5.310 -1.7589  1.6250  0.2201
12970TIP3   OH260324   5.568   3.917  17.030 -0.4406  0.3640  0.1186
12970TIP3    H160325   5.588   3.920  16.937 -0.0809  0.2958  0.1933
12970TIP3    H260326   5.502   3.985  17.043 -0.9557 -0.0444 -0.2943
12971TIP3   OH260327   4.173   5.000   1.068  0.0329  0.7222  0.6902
12971TIP3    H160328   4.244   4.963   1.016 -0.4386 -0.4367  0.8593
12971TIP3    H260329   4.157   5.086   1.028  1.8944  1.2471  1.0113
12972TIP3   OH260330   2.652   0.184   4.169 -0.1669 -0.1988 -0.1920
12972TIP3    H160331   2.724   0.156   4.225 -0.3049 -1.1363 -0.4748
12972TIP3    H260332   2.691   0.248   4.110 -0.1902  1.4070  1.4900
12973TIP3   OH260333   3.880   3.695  15.166 -0.0497 -0.0147 -0.3596
12973TIP3    H160334   3.971   3.724  15.154 -0.0386  0.3159  0.4355
12973TIP3    H260335   3.852   3.667  15.079  0.6467  0.3652 -0.7159
12974TIP3   OH260336   3.773   0.591  13.578  0.3062 -0.0059 -0.0234
12974TIP3    H160337   3.689   0.585  13.625 -0.0773  0.8125 -0.5973
12974TIP3    H260338   3.748   0.608  13.487  1.0657 -0.8771 -0.4105
12975TIP3   OH260339   6.447   3.201   3.567 -0.7689 -0.3074 -0.3369
12975TIP3    H160340   6.452   3.248   3.651  0.6281 -1.8619  0.4913
12975TIP3    H260341   6.476   3.265   3.502 -0.4550  0.4822  0.5664
12976TIP3   OH260342   1.402   6.675   3.426 -0.8366 -0.3501 -0.3832
12976TIP3    H160343   1.371   6.614   3.359  0.2925 -0.1636 -1.0922
12976TIP3    H260344   1.370   6.638   3.509 -1.1592 -1.2735 -0.9115
12977TIP3   OH260345   3.751   4.241  12.278 -0.4460  0.3780  0.6965
12977TIP3    H160346   3.730   4.329  12.309 -1.3716  0.2109  0.5605
12977TIP3    H260347   3.796   4.199  12.351  0.8910  1.2866  0.4206
12978TIP3   OH260348   5.800   3.618   5.891  0.0498  0.3717  0.5822
12978TIP3    H160349   5.716   3.580   5.918 -0.0116  0.3332  0.3433
12978TIP3    H260350   5.864   3.581   5.951  0.1079 -0.7325 -0.1350
12979TIP3   OH260351   6.123   2.295  11.982 -0.1374  0.5012 -0.2294
12979TIP3    H160352   6.059   2.281  12.052  1.2531  1.8326  1.3213
12979TIP3    H260353   6.171   2.212  11.977  0.7967  0.9335  1.4571
12980TIP3   OH260354   3.130   1.947  17.084 -0.6133  0.3625  0.0740
12980TIP3    H160355   3.090   1.874  17.036  0.1885  0.0092 -0.0680
12980TIP3    H260356   3.208   1.909  17.124  0.5740  1.4668 -1.1447
12981TIP3   OH260357   4.220   0.949  12.494  0.4519 -0.2194 -0.1950
12981TIP3    H160358   4.163   1.014  12.452  0.8861 -0.7326 -1.6072
12981TIP3    H260359   4.285   1.001  12.541  0.6778  0.3896 -1.1527
12982TIP3   OH260360   2.741   2.874   0.303  0.6029 -0.3018  0.2918
12982TIP3    H160361   2.773   2.802   0.356 -1.2166 -0.6638  0.9602
12982TIP3    H260362   2.735   2.838   0.214  3.9207  0.3912 -0.2671
12983TIP3   OH260363   6.631   0.777  15.538 -0.3198  0.1527 -0.2952
12983TIP3    H160364   6.704   0.792  15.598  0.5658  0.4167 -1.4140
12983TIP3    H260365   6.568   0.845  15.559  0.7393  1.3236 -0.8293
12984TIP3   OH260366   5.415   2.424  11.801 -0.1449 -0.1355 -0.0122
12984TIP3    H160367   5.331   2.404  11.841  1.1264 -2.1278  1.7716
12984TIP3    H260368   5.477   2.425  11.874  1.7394 -0.8402 -1.5500
12985TIP3   OH260369   3.348   4.350   2.466 -0.0487  0.0296  0.0739
12985TIP3    H160370   3.263   4.306   2.460 -0.2538  0.3525  0.5442
12985TIP3    H260371   3.397   4.296   2.529 -1.0499  1.6430  2.3189
12986TIP3   OH260372   5.285   1.822  12.250  0.0718  0.2218 -0.6993
12986TIP3    H160373   5.255   1.760  12.316  1.2273  0.2953 -0.0881
12986TIP3    H260374   5.253   1.787  12.167 -2.5331  0.8250  0.0061
12987TIP3   OH260375   6.238   6.402  16.747  0.0256  0.1676  0.4689
12987TIP3    H160376   6.182   6.326  16.760 -1.8837  1.8894  2.6490
12987TIP3    H260377   6.178   6.473  16.724  1.5275  1.5610  0.7430
12988TIP3   OH260378   3.910   0.572  15.235  0.8408  0.1865  0.3161
12988TIP3    H160379   3.889   0.530  15.318  1.4460 -1.2225 -0.2256
12988TIP3    H260380   3.826   0.577  15.189  0.6832 -0.0118  0.5785
12989TIP3   OH260381   5.307   5.428  10.836 -0.4400  0.6096  0.1391
12989TIP3    H160382   5.387   5.381  10.816 -0.8366 -0.2364  0.4995
12989TIP3    H260383   5.297   5.419  10.931 -2.2699 -1.4540 -0.1985
12990TIP3   OH260384   3.305   6.396   1.768  0.4634  0.2486 -0.6944
12990TIP3    H160385   3.358   6.359   1.697 -0.4124 -0.7747 -0.8368
12990TIP3    H260386   3.307   6.490   1.752  1.9752  0.2037 -0.8733
12991TIP3   OH260387   0.634   1.688  11.140 -0.8078 -0.0548 -0.0892
12991TIP3    H160388   0.570   1.760  11.137 -0.0710  0.6067 -0.0498
12991TIP3    H260389   0.671   1.686  11.052 -0.1695  0.2111  0.1743
12992TIP3   OH260390   0.265   2.241  12.336  0.5175  0.0842  0.5099
12992TIP3    H160391   0.224   2.291  12.266  0.5283  0.1041  0.5185
12992TIP3    H260392   0.228   2.153  12.328 -0.1711  0.3201  1.0434
12993TIP3   OH260393   2.432   5.532  14.912  0.3743 -0.4192  0.1759
12993TIP3    H160394   2.495   5.482  14.964  0.1804 -1.5765 -0.6701
12993TIP3    H260395   2.439   5.494  14.824  0.8938  1.6618 -0.7093
12994TIP3   OH260396   0.046   6.211   6.358 -0.1932 -0.0339 -0.1419
12994TIP3    H160397   0.127   6.262   6.355  0.7138 -1.3809  0.6868
12994TIP3    H260398   0.016   6.218   6.448 -1.5157  1.2204 -0.6674
12995TIP3   OH260399   2.250   4.895  14.296  0.1690 -0.1344 -0.4438
12995TIP3    H160400   2.198   4.869  14.220  0.9977 -1.8606 -0.4526
12995TIP3    H260401   2.193   4.881  14.371 -0.9543  2.3930 -0.7693
12996TIP3   OH260402   1.085   4.843   5.202 -0.2020 -0.6829  0.3891
12996TIP3    H160403   1.129   4.766   5.237 -1.2029 -2.4320 -2.1019
12996TIP3    H260404   0.992   4.826   5.215 -0.5143 -0.6685 -1.6676
12997TIP3   OH260405   5.379   4.051   5.678  0.1028  0.4043  0.7535
12997TIP3    H160406   5.426   4.101   5.745 -0.0690  1.4967  0.0659
12997TIP3    H260407   5.308   4.008   5.726  1.0320 -0.2399  1.5783
12998TIP3   OH260408   0.722   5.336   4.501 -0.1511  0.5334  0.1870
12998TIP3    H160409   0.789   5.312   4.566  0.5977 -0.0575 -0.7748
12998TIP3    H260410   0.762   5.312   4.417 -0.9112  1.7269 -0.5248
12999TIP3   OH260411   4.350   5.664   2.067 -0.6353 -0.1451  0.8289
12999TIP3    H160412   4.310   5.748   2.044  0.1631  0.1791  0.5787
12999TIP3    H260413   4.290   5.625   2.131 -0.9012  0.7233  1.1161
13000TIP3   OH260414   6.559   4.284  13.553  0.6115 -0.2087 -0.7452
13000TIP3    H160415   6.565   4.300  13.458  2.2479  2.7586 -0.2111
13000TIP3    H260416   6.647   4.253  13.577  0.8672  1.1442  0.1247
13001TIP3   OH260417   6.072   3.667   1.198 -0.1368 -0.3575 -0.8422
13001TIP3    H160418   6.150   3.613   1.185  1.1558  0.6205  2.3701
13001TIP3    H260419   6.102   3.738   1.254 -3.1305  0.6169 -0.4218
13002TIP3   OH260420   1.197   3.164  11.633 -0.7459 -0.1383  0.0226
13002TIP3    H160421   1.276   3.113  11.655 -0.4028  0.3305 -0.1151
13002TIP3    H260422   1.178   3.213  11.713  0.4577  1.5111 -0.6540
13003TIP3   OH260423   5.235   6.459  11.356  0.2117 -0.1793 -0.2465
13003TIP3    H160424   5.296   6.509  11.410 -1.4675  1.6272  0.0472
13003TIP3    H260425   5.250   6.490  11.267 -0.7241  0.7621 -0.0850
13004TIP3   OH260426   4.480   3.637  13.018 -0.6424 -0.0140  0.0832
13004TIP3    H160427   4.481   3.581  13.096  0.8618 -0.9295 -0.5807
13004TIP3    H260428   4.554   3.697  13.031 -0.4227 -0.1358 -0.6167
13005TIP3   OH260429   5.926   4.651  11.340 -0.3043  0.3042  0.0049
13005TIP3    H160430   6.002   4.681  11.288 -0.7566 -1.4726 -1.7570
13005TIP3    H260431   5.951   4.563  11.369 -1.7759 -0.4225 -0.8480
13006TIP3   OH260432   5.766   3.861   5.408 -0.4757  0.1215  0.1018
13006TIP3    H160433   5.768   3.814   5.491  0.9793  1.4747  0.8499
13006TIP3    H260434   5.736   3.949   5.430  0.4414  0.6534 -0.7067
13007TIP3   OH260435   4.295   6.766   3.776 -0.2226 -0.4244 -0.1154
13007TIP3    H160436   4.276   6.801   3.863 -0.2754 -2.1665  0.5811
13007TIP3    H260437   4.209   6.753   3.736 -0.2165 -0.4020 -0.1360
13008TIP3   OH260438   6.555   3.432   1.313  0.3096  0.1308 -0.1941
13008TIP3    H160439   6.603   3.455   1.393  0.0184 -0.2556  0.0913
13008TIP3    H260440   6.599   3.353   1.281 -1.0867 -1.1443  0.9133
13009TIP3   OH260441   4.243   1.117  16.679 -0.2715  0.0726 -0.6479
13009TIP3    H160442   4.245   1.043  16.739  0.9502 -0.1230 -0.9061
13009TIP3    H260443   4.321   1.106  16.626  0.1154  1.7298 -0.4571
13010TIP3   OH260444   5.078   0.740   0.197  0.2600  0.1337  0.3131
13010TIP3    H160445   5.077   0.662   0.142  0.2346  0.3318  0.0326
13010TIP3    H260446   5.146   0.723   0.262  2.1014  0.9747 -1.3284
13011TIP3   OH260447   6.713   1.736   5.032  0.2142  0.6553 -0.0108
13011TIP3    H160448   6.671   1.701   4.953  0.6715  0.8588 -0.3468
13011TIP3    H260449   6.651   1.717   5.102  0.3077 -0.5509 -0.2373
13012TIP3   OH260450   5.770   4.490  15.880  0.3033  0.7045 -0.5457
13012TIP3    H160451   5.814   4.512  15.962 -0.8942  0.6977  0.0999
13012TIP3    H260452   5.698   4.433  15.906  0.8352 -0.5565 -1.7623
13013TIP3   OH260453   5.059   3.202  16.751 -0.3321 -0.5957  0.1155
13013TIP3    H160454   5.033   3.223  16.661 -1.1632  0.8230  0.6733
13013TIP3    H260455   5.017   3.117  16.768  0.9119 -1.5057 -1.2726
13014TIP3   OH260456   2.150   6.640  11.343 -0.0586  0.1628  0.2644
13014TIP3    H160457   2.157   6.734  11.361 -0.3060 -0.0740  1.6703
13014TIP3    H260458   2.090   6.634  11.269  1.5573  1.2258 -1.1722
13015TIP3   OH260459   4.592   6.115  13.773  0.4677 -0.1399 -0.1185
13015TIP3    H160460   4.550   6.122  13.858 -0.1168 -1.2852 -0.3028
13015TIP3    H260461   4.521   6.094  13.712  1.0307 -0.3320 -0.7210
13016TIP3   OH260462   5.157   5.382   0.816  0.2887  0.2785  0.7064
13016TIP3    H160463   5.119   5.427   0.891  0.9981 -2.0751  2.5358
13016TIP3    H260464   5.103   5.409   0.741 -1.0059  1.9204  2.2052
13017TIP3   OH260465   6.315   2.926   2.994  0.3857 -0.0013  0.4946
13017TIP3    H160466   6.223   2.953   2.987  0.5749  0.2518 -0.9648
13017TIP3    H260467   6.345   2.916   2.904  1.2870 -1.8141  0.9554
13018TIP3   OH260468   5.048   6.361   0.371 -0.5440 -0.1823  0.3088
13018TIP3    H160469   5.135   6.325   0.391 -0.5672 -0.7492 -0.5874
13018TIP3    H260470   5.061   6.455   0.374 -0.4983 -0.2182  2.7658
13019TIP3   OH260471   0.089   6.390  11.845  0.3318 -0.2243  0.4091
13019TIP3    H160472   0.177   6.428  11.852  0.4233 -0.3542 -0.0282
13019TIP3    H260473   0.075   6.378  11.751 -0.1860 -0.1300  0.4732
13020TIP3   OH260474   3.226   3.665   1.923  0.0722  0.7452 -0.2227
13020TIP3    H160475   3.294   3.732   1.930 -0.0002  0.8053 -0.1077
13020TIP3    H260476   3.164   3.701   1.858  1.1056 -0.1224 -1.7225
13021TIP3   OH260477   3.130   3.789  16.466  0.1524 -0.3239 -0.1073
13021TIP3    H160478   3.037   3.768  16.459 -0.0749  0.1104  1.3317
13021TIP3    H260479   3.132   3.868  16.520  1.4085 -0.7903  0.5403
13022TIP3   OH260480   0.451   2.865  12.450  0.1211  0.1804  0.2120
13022TIP3    H160481   0.444   2.847  12.356  0.8106  1.2434 -0.0438
13022TIP3    H260482   0.542   2.843  12.472 -0.1371 -0.4106  0.7095
13023TIP3   OH260483   0.984   4.843  12.418  0.0147 -0.2342  0.1560
13023TIP3    H160484   0.930   4.795  12.355 -0.1583 -2.7261  2.1592
13023TIP3    H260485   1.046   4.779  12.451 -0.1614  0.9272  2.8475
13024TIP3   OH260486   5.715   6.358  16.084  0.2494 -0.2494 -0.7020
13024TIP3    H160487   5.667   6.277  16.101 -0.5488  0.1145 -1.1984
13024TIP3    H260488   5.647   6.426  16.080  1.0091  0.6319  0.8681
13025TIP3   OH260489   3.215   1.147  16.601 -0.1542  0.0596  0.0388
13025TIP3    H160490   3.264   1.229  16.599  1.7147 -1.0517 -2.3334
13025TIP3    H260491   3.279   1.081  16.628 -1.1754 -0.8866  0.2015
13026TIP3   OH260492   1.115   4.771  15.530 -0.2910 -0.2993  0.1529
13026TIP3    H160493   1.205   4.803  15.532  0.0282 -1.1062 -1.2754
13026TIP3    H260494   1.113   4.702  15.597  0.2611 -0.5828 -0.1216
13027TIP3   OH260495   3.323   5.311   1.694  0.3411  0.2684  0.7673
13027TIP3    H160496   3.365   5.283   1.775  0.5371  1.4641  1.0856
13027TIP3    H260497   3.257   5.244   1.677 -0.2547  0.4213  2.3506
13028TIP3   OH260498   0.803   1.473  14.710  0.2606 -0.2857 -0.3490
13028TIP3    H160499   0.895   1.475  14.739 -0.4641  1.2506  2.0022
13028TIP3    H260500   0.765   1.399  14.758 -0.2468  0.4655  0.4219
13029TIP3   OH260501   4.649   2.057   4.893 -0.1095  0.3817  0.1166
13029TIP3    H160502   4.659   2.078   4.800  0.5173 -0.9479 -0.1305
13029TIP3    H260503   4.669   2.139   4.939 -0.3579  1.0224 -0.9166
13030TIP3   OH260504   5.335   1.053   5.146  0.5917  1.1709 -0.4841
13030TIP3    H160505   5.303   0.963   5.138 -0.3204  1.5327 -1.0485
13030TIP3    H260506   5.337   1.070   5.240  0.6380  0.6003 -0.3841
13031TIP3   OH260507   5.815   3.136  15.045  0.4731 -0.1071  0.1897
13031TIP3    H160508   5.831   3.215  14.994  0.3052 -0.2428 -0.0751
13031TIP3    H260509   5.721   3.136  15.061  0.4240 -0.4201 -0.0881
13032TIP3   OH260510   6.568   3.588  17.102  0.6260  0.8389 -0.0420
13032TIP3    H160511   6.598   3.656  17.042 -0.7475  1.4366 -0.0715
13032TIP3    H260512   6.528   3.522  17.045  1.0316  0.4902  0.0730
13033TIP3   OH260513   0.302   3.122   6.071  0.4246  0.1975  0.3891
13033TIP3    H160514   0.263   3.137   6.157 -0.2169  0.1993  0.1032
13033TIP3    H260515   0.354   3.042   6.082 -0.8948 -0.6831  0.3969
13034TIP3   OH260516   3.262   6.656  13.308  0.0930  0.3286 -0.6256
13034TIP3    H160517   3.272   6.647  13.403  2.2986  0.6166 -0.7888
13034TIP3    H260518   3.181   6.705  13.296 -0.0428  0.5494  1.1212
13035TIP3   OH260519   3.740   2.225  13.120  0.4013  0.0980  0.0786
13035TIP3    H160520   3.796   2.300  13.142 -0.9417  0.7363  1.3812
13035TIP3    H260521   3.654   2.247  13.157 -0.3825 -1.4483 -0.7695
13036TIP3   OH260522   5.723   5.852  11.673  0.3290 -0.4048  0.4055
13036TIP3    H160523   5.630   5.854  11.652  0.0627 -1.1555  1.4746
13036TIP3    H260524   5.748   5.944  11.682 -0.3522 -0.2085  0.3217
13037TIP3   OH260525   2.573   3.892   0.699 -0.3691  0.4587 -0.2850
13037TIP3    H160526   2.520   3.817   0.727  1.1381 -0.4458  0.1905
13037TIP3    H260527   2.603   3.868   0.611  1.8063 -0.4368  0.6723
13038TIP3   OH260528   6.277   4.605  15.317 -0.3258 -0.4474  0.4427
13038TIP3    H160529   6.182   4.597  15.315 -0.2769 -0.7696 -0.5797
13038TIP3    H260530   6.297   4.623  15.409 -1.4211  0.2768  0.5451
13039TIP3   OH260531   6.766   0.615   0.886 -0.1628 -0.0344  0.0811
13039TIP3    H160532   6.810   0.672   0.823  0.3794 -1.0814 -0.5094
13039TIP3    H260533   6.728   0.674   0.950  1.7742  0.9319  0.3795
13040TIP3   OH260534   2.127   1.703   1.538  0.1422  0.1435 -0.1690
13040TIP3    H160535   2.044   1.662   1.514 -0.4565 -0.3624  2.5133
13040TIP3    H260536   2.193   1.636   1.518 -0.5502 -1.1050  1.5187
13041TIP3   OH260537   0.947   5.165   2.644 -0.0509 -0.6030  0.0916
13041TIP3    H160538   0.862   5.202   2.668 -0.2392 -0.9631 -0.0125
13041TIP3    H260539   0.955   5.183   2.551 -0.1413 -0.8210  0.0418
13042TIP3   OH260540   4.206   4.893  10.468 -0.0264 -0.4305  0.3926
13042TIP3    H160541   4.288   4.861  10.506  0.2385 -2.1451 -1.5542
13042TIP3    H260542   4.233   4.951  10.397 -0.5255  1.8042  1.9761
13043TIP3   OH260543   1.395   3.337   3.654 -0.2657  0.1252  0.0788
13043TIP3    H160544   1.444   3.346   3.573  0.3078  2.5838  0.6550
13043TIP3    H260545   1.462   3.321   3.721 -0.7914 -2.6361  0.0039
13044TIP3   OH260546   6.038   5.587  12.509 -0.3995 -0.0325  0.4160
13044TIP3    H160547   5.973   5.518  12.521 -0.0492 -0.4511 -0.1087
13044TIP3    H260548   6.005   5.638  12.434 -0.9912  0.7520  1.2067
13045TIP3   OH260549   4.975   0.280   2.634 -0.4408 -0.0179  0.1195
13045TIP3    H160550   5.046   0.288   2.570  0.7432  2.8288  1.7093
13045TIP3    H260551   5.002   0.208   2.691  0.5605  0.2462 -0.0178
13046TIP3   OH260552   4.373   0.234  13.805 -0.4477 -0.3856 -0.1673
13046TIP3    H160553   4.414   0.248  13.720 -1.0971  1.1912 -0.2416
13046TIP3    H260554   4.284   0.206  13.783  0.4538 -3.5246 -0.0066
13047TIP3   OH260555   2.872   3.196  15.904  0.1239  0.0966 -0.1886
13047TIP3    H160556   2.868   3.143  15.984 -2.8134  0.2553 -0.2043
13047TIP3    H260557   2.891   3.285  15.935 -1.7667  0.3021  0.4039
13048TIP3   OH260558   6.657   0.766   1.084 -0.0098 -0.4178 -0.1766
13048TIP3    H160559   6.742   0.799   1.112  0.0424 -0.1579 -0.6427
13048TIP3    H260560   6.638   0.695   1.145  1.4081 -1.7541 -1.2557
13049TIP3   OH260561   3.597   2.336  11.584 -0.4615 -0.2503 -1.1415
13049TIP3    H160562   3.555   2.418  11.556 -2.6529  0.2256  3.0988
13049TIP3    H260563   3.526   2.272  11.585 -0.2779 -0.4884  2.0015
13050TIP3   OH260564   1.942   3.629   1.898 -0.2233 -0.9029 -0.2486
13050TIP3    H160565   1.995   3.707   1.880  0.8305 -1.5041  0.2012
13050TIP3    H260566   1.853   3.654   1.873  0.0909  0.4767 -0.0313
13051TIP3   OH260567   5.633   5.222   4.449 -0.1740  0.8341 -0.1729
13051TIP3    H160568   5.568   5.275   4.494 -0.3643  0.2301  0.2752
13051TIP3    H260569   5.632   5.253   4.359 -0.2029  1.6602  0.1072
13052TIP3   OH260570   2.195   1.557  15.432  0.4212  0.2918 -0.0081
13052TIP3    H160571   2.136   1.518  15.497  0.1648 -1.3381 -1.1763
13052TIP3    H260572   2.161   1.646  15.419  0.7075  0.7861  2.3405
13053TIP3   OH260573   1.489   1.621  15.476  0.2141  0.3393 -0.4002
13053TIP3    H160574   1.584   1.622  15.489  0.3159 -2.4313 -0.5579
13053TIP3    H260575   1.454   1.587  15.558 -0.4985 -0.3450 -0.9824
13054TIP3   OH260576   6.438   5.216  14.690 -0.2917  0.1099 -0.2705
13054TIP3    H160577   6.465   5.266  14.768 -1.0727  0.9968 -0.5658
13054TIP3    H260578   6.363   5.165  14.720  0.1205 -0.4184 -0.1357
13055TIP3   OH260579   5.117   4.540  15.535 -0.9806 -0.1715  0.9653
13055TIP3    H160580   5.144   4.611  15.593 -0.7074 -0.4444  1.1750
13055TIP3    H260581   5.151   4.564  15.449  0.3650 -0.7578  1.3253
13056TIP3   OH260582   0.340   1.277  11.209 -0.0355  0.2995 -0.4540
13056TIP3    H160583   0.323   1.361  11.252 -0.3799 -0.4615  0.9155
13056TIP3    H260584   0.280   1.216  11.251  1.0671 -0.8971 -0.6022
13057TIP3   OH260585   6.743   0.804  13.408 -0.1564 -0.3632  0.0769
13057TIP3    H160586   6.802   0.818  13.334  1.5158 -1.3426  1.1887
13057TIP3    H260587   6.690   0.883  13.412  1.2718  0.6607 -0.7879
13058TIP3   OH260588   0.251   6.676   5.014  0.7222  0.3135 -0.1029
13058TIP3    H160589   0.337   6.645   5.043  0.3652 -0.1929  0.4383
13058TIP3    H260590   0.207   6.703   5.094 -0.2621 -1.0708 -0.1458
13059TIP3   OH260591   0.202   0.411  14.555 -0.4830  0.0102 -0.1928
13059TIP3    H160592   0.226   0.469  14.628 -0.1409  0.5741 -0.7448
13059TIP3    H260593   0.274   0.421  14.492 -0.8803 -0.3079 -0.6997
13060TIP3   OH260594   5.241   3.733   4.347  0.0590 -0.3215 -0.1675
13060TIP3    H160595   5.242   3.819   4.389 -0.3361 -0.8628  0.9677
13060TIP3    H260596   5.286   3.675   4.409 -0.7418 -1.1797 -0.3823
13061TIP3   OH260597   5.775   2.423  16.264  0.4272  0.0033 -0.2808
13061TIP3    H160598   5.776   2.456  16.174  1.9016  0.9729  0.0755
13061TIP3    H260599   5.687   2.387  16.275  0.4985 -0.9409 -2.4033
13062TIP3   OH260600   2.297   3.817  13.653  0.1256 -0.5467  0.2257
13062TIP3    H160601   2.366   3.753  13.634 -0.1933 -0.9511  0.3992
13062TIP3    H260602   2.330   3.867  13.728  0.4545 -0.3929 -0.0232
13063TIP3   OH260603   2.823   5.156   1.706  0.8551 -0.3249 -0.0170
13063TIP3    H160604   2.863   5.240   1.683  0.9404  0.0485  1.4328
13063TIP3    H260605   2.737   5.179   1.742  0.2577 -0.9674 -1.0124
13064TIP3   OH260606   4.450   2.943  13.590  0.0653 -0.0971 -0.4314
13064TIP3    H160607   4.434   2.850  13.572  1.2179 -0.4020  0.1263
13064TIP3    H260608   4.544   2.953  13.583  0.0553  0.7953  0.6536
13065TIP3   OH260609   5.257   1.498   3.114 -0.7230 -0.2116  0.2575
13065TIP3    H160610   5.180   1.469   3.065 -0.7020 -0.0363  0.1191
13065TIP3    H260611   5.223   1.557   3.181 -0.4650  1.8992 -1.4157
13066TIP3   OH260612   5.664   2.151   2.724 -0.2203 -0.3081  0.3956
13066TIP3    H160613   5.599   2.130   2.658  0.0464  1.1854 -0.3672
13066TIP3    H260614   5.698   2.066   2.753 -0.6853 -0.9872 -1.0224
13067TIP3   OH260615   5.517   2.466  15.809  0.1240  0.4307  0.1537
13067TIP3    H160616   5.465   2.544  15.790  0.9486  0.7228 -0.9075
13067TIP3    H260617   5.533   2.426  15.723  0.3251 -0.5165  0.6247
13068TIP3   OH260618   2.913   5.973   3.739 -0.3125  0.1711  0.0060
13068TIP3    H160619   2.980   6.036   3.712 -0.4895 -0.3110 -1.6626
13068TIP3    H260620   2.962   5.903   3.782 -0.0160  0.9892  0.9979
13069TIP3   OH260621   6.433   0.226  14.550 -0.0151 -0.7356 -0.4602
13069TIP3    H160622   6.508   0.172  14.523  0.9727 -0.8680  2.3821
13069TIP3    H260623   6.467   0.278  14.623 -1.6666  1.9439 -1.5589
13070TIP3   OH260624   0.862   2.179   1.300 -0.7313 -0.3655  0.0239
13070TIP3    H160625   0.811   2.102   1.325 -1.3678  0.2910  0.7836
13070TIP3    H260626   0.845   2.243   1.369 -0.0933  0.4105 -0.5191
13071TIP3   OH260627   0.097   1.816  15.933 -0.4762  0.0269 -0.6885
13071TIP3    H160628   0.056   1.762  15.865 -1.0677 -1.1586  0.5803
13071TIP3    H260629   0.190   1.815  15.910 -0.3832 -2.0823 -0.3542
13072TIP3   OH260630   3.245   2.966  13.275  0.1011  0.5164  0.0612
13072TIP3    H160631   3.180   3.026  13.314 -1.7937 -0.7040 -1.1576
13072TIP3    H260632   3.278   2.916  13.350 -0.3175  1.1880  0.7098
13073TIP3   OH260633   3.069   3.192  11.580 -0.3459 -0.2882 -0.1719
13073TIP3    H160634   3.108   3.230  11.501  1.1071  0.5221  0.9030
13073TIP3    H260635   3.063   3.266  11.641 -0.5777 -1.1006  0.8036
13074TIP3   OH260636   2.287   0.153   2.540  0.2904 -0.4901  0.0163
13074TIP3    H160637   2.244   0.161   2.626 -1.2717 -0.8368 -0.7082
13074TIP3    H260638   2.376   0.125   2.561  0.3073  0.6683  1.5876
13075TIP3   OH260639   4.715   1.999   3.127  0.2049 -0.5913  0.1028
13075TIP3    H160640   4.653   1.943   3.079 -0.8414 -0.1167  0.8682
13075TIP3    H260641   4.759   1.940   3.187  0.5271 -0.9449 -0.4778
13076TIP3   OH260642   1.863   1.042   4.208  0.0099  0.2086 -0.0634
13076TIP3    H160643   1.791   0.987   4.238 -0.6395  1.6308  1.0351
13076TIP3    H260644   1.921   1.051   4.284  0.2709  0.7878 -0.3214
13077TIP3   OH260645   6.031   3.372  15.963  0.2295 -0.3900  0.5120
13077TIP3    H160646   6.041   3.277  15.961 -3.5645 -0.8481 -1.5335
13077TIP3    H260647   5.998   3.390  16.052 -0.4647 -1.1815  0.4243
13078TIP3   OH260648   6.254   6.247  11.139 -0.0781 -0.4131  0.4468
13078TIP3    H160649   6.309   6.303  11.084 -0.9530 -0.2640 -0.2815
13078TIP3    H260650   6.176   6.231  11.087 -0.2278 -1.5865  1.0101
13079TIP3   OH260651   1.759   0.462  16.135 -0.3482 -0.4730  0.3976
13079TIP3    H160652   1.817   0.515  16.189  1.2775 -0.2230 -1.5323
13079TIP3    H260653   1.680   0.451  16.188  1.1604 -0.2066  2.7753
13080TIP3   OH260654   3.049   2.343  15.948  0.0540  0.3759  0.0249
13080TIP3    H160655   3.015   2.294  16.022  1.3835 -0.2151  0.2509
13080TIP3    H260656   3.143   2.349  15.963  0.4227 -0.1838 -1.8489
13081TIP3   OH260657   2.822   1.457   2.514 -0.0829 -0.1634  0.8175
13081TIP3    H160658   2.794   1.519   2.448 -0.1159 -0.7262  0.2995
13081TIP3    H260659   2.744   1.440   2.567 -0.0114  0.4245  1.1215
13082TIP3   OH260660   1.617   2.281   3.703  0.3523  0.1082  0.0860
13082TIP3    H160661   1.638   2.373   3.715 -0.7570  0.2063  1.3932
13082TIP3    H260662   1.699   2.235   3.723 -0.0663  0.6034  3.2138
13083TIP3   OH260663   2.389   1.191   3.551  0.5620  0.2674 -0.6360
13083TIP3    H160664   2.448   1.117   3.563  2.0792  1.6293  0.5751
13083TIP3    H260665   2.385   1.233   3.637 -2.0074  0.3393 -0.7668
13084TIP3   OH260666   1.696   0.903  12.098 -0.1821  0.3203  0.5279
13084TIP3    H160667   1.725   0.988  12.132 -3.1112  1.3427  0.6236
13084TIP3    H260668   1.749   0.890  12.020  1.8632  1.1763  1.7357
13085TIP3   OH260669   3.232   6.176   1.960 -0.2664  0.0166 -0.2435
13085TIP3    H160670   3.257   6.229   1.884  1.2547  0.6194  0.6354
13085TIP3    H260671   3.312   6.171   2.012 -0.4672 -2.9224 -0.1486
13086TIP3   OH260672   6.423   3.248   1.033 -0.2299 -0.1366  0.3054
13086TIP3    H160673   6.497   3.292   1.075  2.0541 -1.8868 -1.7045
13086TIP3    H260674   6.439   3.258   0.939 -2.5568 -0.5865 -0.1779
13087TIP3   OH260675   1.165   0.188  16.274 -0.2771  0.4182  0.3994
13087TIP3    H160676   1.156   0.216  16.365  1.2310  0.2974  0.5972
13087TIP3    H260677   1.180   0.093  16.280 -1.1776  0.2373 -0.0383
13088TIP3   OH260678   5.940   0.175  12.760  0.5323  0.3048  0.2143
13088TIP3    H160679   5.988   0.119  12.698  1.2643 -0.2724  1.2794
13088TIP3    H260680   5.848   0.162  12.737  0.7711 -0.2153 -0.4886
13089TIP3   OH260681   0.340   1.218  12.858 -0.3665  0.5997  0.0927
13089TIP3    H160682   0.421   1.261  12.884 -0.0871 -0.3844  0.8781
13089TIP3    H260683   0.345   1.131  12.897 -0.8536 -0.2219 -1.6046
13090TIP3   OH260684   6.621   1.449  15.613  0.1490 -0.0059  0.0575
13090TIP3    H160685   6.656   1.485  15.532 -0.7090 -0.2532 -0.4291
13090TIP3    H260686   6.676   1.373  15.632 -0.2586 -0.5190 -0.8132
13091TIP3   OH260687   4.265   0.429  15.837 -0.1449 -0.3329 -0.4950
13091TIP3    H160688   4.187   0.468  15.878  0.4471 -0.5340  0.8567
13091TIP3    H260689   4.290   0.359  15.897  1.5054  0.2145 -0.5377
13092TIP3   OH260690   2.474   0.325  12.327  0.7064 -0.1568  0.2155
13092TIP3    H160691   2.396   0.372  12.297  0.9685 -1.2402 -2.2562
13092TIP3    H260692   2.441   0.260  12.389  0.0846  1.7310  1.9194
13093TIP3   OH260693   2.209   1.947   4.503  0.2040 -0.3271 -0.3748
13093TIP3    H160694   2.209   2.009   4.576  1.8118 -0.3806 -0.3208
13093TIP3    H260695   2.192   1.862   4.544  0.3458 -0.2511 -0.1552
13094TIP3   OH260696   3.153   2.835  14.030 -0.5488  0.0171 -0.6451
13094TIP3    H160697   3.062   2.838  14.000 -0.9843 -1.1701  0.5101
13094TIP3    H260698   3.147   2.804  14.120  0.6142  4.9754  1.2811
13095TIP3   OH260699   3.004   5.902  12.710 -0.0525  0.1149  0.1891
13095TIP3    H160700   3.081   5.847  12.694  0.0892  0.5551 -0.6761
13095TIP3    H260701   2.940   5.873  12.644 -1.3629 -1.6044  2.1544
13096TIP3   OH260702   1.577   5.816  16.705 -0.3612  0.3872 -0.0417
13096TIP3    H160703   1.515   5.866  16.758  0.0240 -1.6689  2.4260
13096TIP3    H260704   1.661   5.824  16.751  0.3501 -0.1626 -1.1994
13097TIP3   OH260705   0.902   1.356   3.228  0.0657  0.4885 -0.1572
13097TIP3    H160706   0.953   1.396   3.158  1.3203 -0.3663  0.2636
13097TIP3    H260707   0.893   1.265   3.201  0.9425  0.0513  1.0147
13098TIP3   OH260708   2.932   4.799  13.151 -0.1271  0.0527  0.0711
13098TIP3    H160709   2.979   4.765  13.227  1.8076  1.8624 -0.2703
13098TIP3    H260710   2.937   4.729  13.086 -1.4370 -1.3486  1.4215
13099TIP3   OH260711   5.486   0.658  12.669 -0.1713 -0.0390 -0.2999
13099TIP3    H160712   5.415   0.635  12.609  0.9342 -1.7025 -1.0171
13099TIP3    H260713   5.558   0.684  12.612  0.4778 -0.4222  0.3420
13100TIP3   OH260714   3.054   3.076  13.730  0.3785 -0.1806  0.9279
13100TIP3    H160715   3.008   3.106  13.809 -1.3940 -0.5612  0.0778
13100TIP3    H260716   2.992   3.016  13.688  1.8960 -1.1522  0.0210
13101TIP3   OH260717   3.495   4.606  11.403 -0.5378  0.3159  0.7032
13101TIP3    H160718   3.531   4.691  11.428 -0.5378  0.0075  1.7463
13101TIP3    H260719   3.411   4.601  11.450 -1.1791  0.3224 -0.4216
13102TIP3   OH260720   1.676   6.008   6.453 -0.3101  0.2486  0.5569
13102TIP3    H160721   1.648   6.082   6.506 -0.1037  1.2594 -0.7296
13102TIP3    H260722   1.731   6.046   6.384  1.8787 -1.3632  1.3411
13103TIP3   OH260723   6.140   4.872   4.499  0.1214 -0.5903  0.0618
13103TIP3    H160724   6.067   4.839   4.552  0.0713 -1.0728 -0.3088
13103TIP3    H260725   6.123   4.838   4.411 -1.0401  2.0542 -0.8009
13104TIP3   OH260726   4.870   6.221  14.805  0.3134  0.2892 -0.5439
13104TIP3    H160727   4.887   6.133  14.772  0.5159  0.6366 -1.3648
13104TIP3    H260728   4.955   6.254  14.832  0.1938  0.1248  0.0429
13105TIP3   OH260729   2.846   5.332  16.670 -0.3394 -0.5069  0.1025
13105TIP3    H160730   2.759   5.294  16.654  0.0558 -2.0434  1.4468
13105TIP3    H260731   2.905   5.281  16.615  0.0780 -1.3178  1.2780
13106TIP3   OH260732   4.742   4.155  15.720 -0.2103  0.3852 -0.4640
13106TIP3    H160733   4.793   4.155  15.801 -0.7982  2.1813 -0.0718
13106TIP3    H260734   4.745   4.064  15.689  0.4784 -0.1972  1.2771
13107TIP3   OH260735   1.115   4.662   4.852 -0.4844  0.6298  0.1882
13107TIP3    H160736   1.205   4.647   4.880 -0.8808 -0.0125  1.1466
13107TIP3    H260737   1.082   4.730   4.912 -0.9524  0.1402  0.4899
13108TIP3   OH260738   3.224   2.483   5.780 -0.3021 -0.2018 -0.1014
13108TIP3    H160739   3.179   2.407   5.744 -2.1853  0.9601 -0.2137
13108TIP3    H260740   3.269   2.449   5.858  0.3253 -1.7873 -1.1285
13109TIP3   OH260741   3.839   3.637  15.773  0.1058  0.1262  0.1050
13109TIP3    H160742   3.800   3.665  15.690 -0.4256 -2.0561 -0.4179
13109TIP3    H260743   3.824   3.543  15.775  0.9848  0.0168  2.2415
13110TIP3   OH260744   0.315   2.352  14.093  0.6557  0.0819  0.2000
13110TIP3    H160745   0.346   2.295  14.022 -0.1262 -0.6523  0.4359
13110TIP3    H260746   0.268   2.422  14.048 -1.1251 -1.1869  0.0395
13111TIP3   OH260747   4.965   3.520  10.913  0.4121 -0.3080  0.7496
13111TIP3    H160748   4.897   3.472  10.866  0.7945  0.0242 -0.1570
13111TIP3    H260749   4.926   3.606  10.931  0.3896 -0.3182  0.7502
13112TIP3   OH260750   1.390   0.348  12.334 -0.3019 -0.1439 -0.1052
13112TIP3    H160751   1.483   0.369  12.345 -0.0316 -2.0377  1.6578
13112TIP3    H260752   1.347   0.388  12.409 -0.3479 -2.3275  1.0807
13113TIP3   OH260753   2.761   6.734   1.343  0.7657  0.9587 -0.2350
13113TIP3    H160754   2.684   6.689   1.308  1.1960  0.8295 -1.0093
13113TIP3    H260755   2.835   6.699   1.293  1.4530  0.3947  1.1197
13114TIP3   OH260756   3.657   6.446  12.665  0.6717  0.3261 -0.7209
13114TIP3    H160757   3.640   6.440  12.571 -0.3582  2.1402 -0.6703
13114TIP3    H260758   3.751   6.464  12.671  0.8483 -0.3371 -1.3679
13115TIP3   OH260759   0.160   1.971   2.224 -0.8305  0.3842 -0.2175
13115TIP3    H160760   0.145   2.053   2.177 -1.9399 -0.0003 -0.5511
13115TIP3    H260761   0.181   1.908   2.156  1.1285  0.6195  0.1348
13116TIP3   OH260762   2.266   4.294  13.746  0.3478  0.3097  0.0496
13116TIP3    H160763   2.342   4.328  13.793  1.7890 -0.6089 -1.5752
13116TIP3    H260764   2.228   4.229  13.805  1.3055  0.1855  0.5256
13117TIP3   OH260765   1.348   3.704   1.376 -0.0901 -0.6090 -0.4978
13117TIP3    H160766   1.357   3.658   1.292  0.4752 -3.6213  1.1698
13117TIP3    H260767   1.285   3.652   1.426 -0.2576  1.0320  1.0533
13118TIP3   OH260768   6.160   4.418   5.826 -0.1384  0.5599  0.0291
13118TIP3    H160769   6.158   4.507   5.861  0.6776  0.6774 -0.2078
13118TIP3    H260770   6.213   4.425   5.747 -2.1405  0.3437 -1.3717
13119TIP3   OH260771   6.718   3.956  16.596  0.1189  0.0421  0.2490
13119TIP3    H160772   6.648   3.918  16.544  0.2678 -0.4838  0.4305
13119TIP3    H260773   6.787   3.890  16.597 -0.4825 -0.5871  2.3704
13120TIP3   OH260774   6.311   5.518  12.453 -0.2158  0.0161  0.2537
13120TIP3    H160775   6.243   5.454  12.474  2.2177 -3.1585 -1.1219
13120TIP3    H260776   6.299   5.588  12.518 -4.0555 -0.9370  0.7090
13121TIP3   OH260777   1.466   5.925   1.059 -0.3866 -0.4718  0.5402
13121TIP3    H160778   1.473   5.833   1.084 -0.7225 -0.6366  0.0417
13121TIP3    H260779   1.372   5.943   1.062 -0.2406  0.1372  1.6313
13122TIP3   OH260780   2.667   5.673  11.949 -0.0144 -0.1101 -0.1679
13122TIP3    H160781   2.705   5.633  12.027 -1.4898 -0.3256  0.4584
13122TIP3    H260782   2.687   5.612  11.879  0.4046 -0.4356  0.2308
13123TIP3   OH260783   1.346   3.709   3.686  0.1221  0.4195  0.3757
13123TIP3    H160784   1.359   3.614   3.692  0.7975  0.4858  0.0508
13123TIP3    H260785   1.289   3.731   3.760 -1.4512 -0.4846 -0.5306
13124TIP3   OH260786   1.200   4.132   1.665 -0.5644 -0.3024  0.1836
13124TIP3    H160787   1.257   4.189   1.717 -0.4599  0.2727 -0.5617
13124TIP3    H260788   1.257   4.061   1.635  0.3755  1.5967 -2.6697
13125TIP3   OH260789   0.163   2.604  15.914  0.1189 -0.1498  0.1081
13125TIP3    H160790   0.138   2.670  15.979 -0.4758  0.0809 -0.3569
13125TIP3    H260791   0.241   2.640  15.872  0.2525 -0.1051  0.3871
13126TIP3   OH260792   0.432   3.304   6.398 -0.4773  0.1213  0.1090
13126TIP3    H160793   0.520   3.269   6.386 -0.3981 -0.1312  1.3585
13126TIP3    H260794   0.431   3.386   6.350  0.3396 -0.0329 -0.1704
13127TIP3   OH260795   5.705   4.983   4.598  0.7623  0.2554 -0.2869
13127TIP3    H160796   5.621   4.938   4.596  0.1392  1.3148  1.3932
13127TIP3    H260797   5.697   5.052   4.532  0.3502  0.3077 -0.1807
13128TIP3   OH260798   5.552   2.728  12.586  0.2164  0.3118  0.2804
13128TIP3    H160799   5.470   2.683  12.608  0.2498 -0.7210 -1.5884
13128TIP3    H260800   5.525   2.804  12.535  0.4425 -0.7380 -1.4699
13129TIP3   OH260801   2.991   0.762  15.272 -0.1420  0.3733  0.0978
13129TIP3    H160802   2.895   0.756  15.268 -0.1023 -0.6069  0.6937
13129TIP3    H260803   3.020   0.730  15.187 -0.2695 -1.0272  0.5706
13130TIP3   OH260804   1.339   5.093  13.308 -0.1832 -0.7528 -0.9142
13130TIP3    H160805   1.391   5.032  13.360 -0.3733 -1.6735 -1.7963
13130TIP3    H260806   1.397   5.167  13.293 -0.3280 -0.1894  1.1239
13131TIP3   OH260807   6.154   5.788  11.718 -1.0342 -0.2042  0.7871
13131TIP3    H160808   6.076   5.821  11.672 -0.7122 -0.3986  0.0854
13131TIP3    H260809   6.144   5.692  11.715  1.1563 -0.4257 -2.8306
13132TIP3   OH260810   1.438   3.860   5.312  0.1352  0.3297  0.2920
13132TIP3    H160811   1.472   3.933   5.364  0.3722  0.3024  0.1752
13132TIP3    H260812   1.468   3.877   5.223 -1.8179  1.3407 -0.2031
13133TIP3   OH260813   2.964   6.214  11.315 -0.3399  0.4640  0.2760
13133TIP3    H160814   2.971   6.309  11.323 -0.6940  0.4807  0.4116
13133TIP3    H260815   2.870   6.198  11.308 -0.3395  0.0607  1.1177
13134TIP3   OH260816   3.980   4.427   4.195  0.3198 -0.2710 -0.4671
13134TIP3    H160817   3.995   4.425   4.290 -0.8902 -0.3404 -0.2743
13134TIP3    H260818   3.990   4.336   4.167  1.6820 -0.1070 -0.5831
13135TIP3   OH260819   4.855   4.826  15.859  0.1246  0.0182 -0.2836
13135TIP3    H160820   4.820   4.789  15.778 -1.1689 -1.4217  0.8988
13135TIP3    H260821   4.783   4.878  15.895  0.3419 -0.1807  0.4565
13136TIP3   OH260822   3.169   2.895  11.629 -0.2455 -0.3262  0.1498
13136TIP3    H160823   3.234   2.920  11.696  0.8364 -0.2892 -0.8968
13136TIP3    H260824   3.120   2.976  11.613 -0.8183 -0.4469  1.2158
13137TIP3   OH260825   3.332   5.112   0.719  0.0685 -0.5335  0.4047
13137TIP3    H160826   3.302   5.188   0.769 -3.0393 -3.3482  3.0628
13137TIP3    H260827   3.281   5.113   0.638 -1.0331 -0.5822  1.0974
13138TIP3   OH260828   1.741   5.135  14.776  0.0353  0.4052 -0.0152
13138TIP3    H160829   1.650   5.121  14.802  0.5664 -2.1030  0.6070
13138TIP3    H260830   1.735   5.190  14.698 -1.9743  0.8268  0.4010
13139TIP3   OH260831   2.680   0.280  10.814  0.5150  0.2598 -0.4497
13139TIP3    H160832   2.622   0.356  10.819 -1.0752 -0.8446 -1.5567
13139TIP3    H260833   2.730   0.293  10.733  1.9883  1.3109  0.6064
13140TIP3   OH260834   3.908   2.620  14.500 -0.1803  0.1111  0.5576
13140TIP3    H160835   3.903   2.678  14.423 -1.4119  0.4536  0.8878
13140TIP3    H260836   3.878   2.535  14.468  1.1322 -0.2400  0.2022
13141TIP3   OH260837   5.142   4.764  10.401  0.7672 -0.3382 -0.0183
13141TIP3    H160838   5.229   4.724  10.405  0.9987  0.2284  0.6640
13141TIP3    H260839   5.118   4.760  10.308  1.3492 -0.8573 -0.1497
13142TIP3   OH260840   4.502   0.360   5.741  0.1085 -0.8950  0.3067
13142TIP3    H160841   4.525   0.422   5.672  1.6958  1.3332  2.7747
13142TIP3    H260842   4.585   0.320   5.766 -0.6433 -2.6648  0.0514
13143TIP3   OH260843   3.947   4.433  14.906  0.0204  0.4979  0.1510
13143TIP3    H160844   4.028   4.406  14.862  0.8803  1.3707  1.1606
13143TIP3    H260845   3.948   4.384  14.988 -0.6950  0.1961 -0.0225
13144TIP3   OH260846   4.727   1.336   5.636  0.6715 -0.2867  0.2869
13144TIP3    H160847   4.666   1.316   5.564 -0.8568  3.9683  0.2414
13144TIP3    H260848   4.670   1.354   5.711  1.9458  1.5944  0.8315
13145TIP3   OH260849   3.166   0.589  15.410 -0.1796  0.3196 -0.4095
13145TIP3    H160850   3.091   0.630  15.367 -0.5427 -0.4692 -0.5302
13145TIP3    H260851   3.242   0.623  15.363 -0.3398  2.5470  0.8774
13146TIP3   OH260852   3.066   1.365  15.775 -0.1150  0.4556 -0.0005
13146TIP3    H160853   3.053   1.295  15.839  0.0869  0.6683  0.2783
13146TIP3    H260854   3.005   1.434  15.801 -1.0598 -0.0299 -0.8943
13147TIP3   OH260855   5.924   3.859  16.301 -0.3001  0.0437 -0.4381
13147TIP3    H160856   5.843   3.843  16.350 -0.8675  0.8704 -1.0910
13147TIP3    H260857   5.927   3.954  16.289 -0.7541 -0.2060 -2.9094
13148TIP3   OH260858   3.151   3.447   3.287 -0.2946  0.0232  0.0159
13148TIP3    H160859   3.095   3.490   3.351 -0.2367 -0.2191  0.2323
13148TIP3    H260860   3.216   3.513   3.263 -1.1076  0.5515 -0.7941
13149TIP3   OH260861   3.690   3.627  12.405  0.4048 -0.1318 -0.2653
13149TIP3    H160862   3.678   3.719  12.384 -0.6206 -0.4408 -1.0835
13149TIP3    H260863   3.652   3.580  12.331 -0.7932 -1.2217  0.9967
13150TIP3   OH260864   6.387   1.111   6.340 -0.3612 -0.4466 -0.2894
13150TIP3    H160865   6.348   1.195   6.317  0.7920 -0.4095 -2.2123
13150TIP3    H260866   6.317   1.047   6.327 -0.8116  0.0422 -0.2518
13151TIP3   OH260867   6.195   4.325  16.533 -0.3506  0.6522  0.8447
13151TIP3    H160868   6.276   4.275  16.544 -0.7331 -0.3253 -0.6851
13151TIP3    H260869   6.220   4.397  16.476 -0.2880  1.0591  1.3749
13152TIP3   OH260870   1.129   5.000   4.130 -0.1314  0.5035 -0.2134
13152TIP3    H160871   1.136   4.932   4.062 -1.8518  0.1113 -0.0102
13152TIP3    H260872   1.038   4.998   4.157  0.1996  1.7146  1.0517
13153TIP3   OH260873   4.843   6.289  17.138  0.4989 -0.7649  0.7658
13153TIP3    H160874   4.761   6.243  17.119  0.8874 -1.6278  1.1559
13153TIP3    H260875   4.816   6.371  17.178 -0.2337 -0.2597 -0.7404
13154TIP3   OH260876   0.797   2.535  11.140 -0.3188 -0.1816 -0.1492
13154TIP3    H160877   0.833   2.463  11.088  0.6664 -0.0935  0.3958
13154TIP3    H260878   0.787   2.498  11.228 -0.4254  0.1576 -0.0181
13155TIP3   OH260879   1.773   0.121  15.591 -0.0263  0.4644  0.1273
13155TIP3    H160880   1.696   0.068  15.571  0.3437  0.5930 -1.6800
13155TIP3    H260881   1.740   0.189  15.651 -0.7666 -1.0152  1.4332
13156TIP3   OH260882   3.378   1.917  13.293  0.4896  0.0521  0.3991
13156TIP3    H160883   3.336   1.991  13.336  0.4599  0.0178  0.4296
13156TIP3    H260884   3.431   1.956  13.224 -0.3803  0.0389 -0.2943
13157TIP3   OH260885   0.001   0.214  10.805 -0.2103 -0.4169  0.6155
13157TIP3    H160886  -0.057   0.185  10.875 -0.3968  0.0727  0.6703
13157TIP3    H260887   0.069   0.147  10.800 -0.8541 -1.0544  0.4583
13158TIP3   OH260888   6.758   4.879  11.761 -0.0562  0.4939 -0.4413
13158TIP3    H160889   6.686   4.844  11.815  0.0835  0.9836  0.0700
13158TIP3    H260890   6.832   4.822  11.779 -0.4144 -0.2450 -1.2610
13159TIP3   OH260891   3.793   2.791   2.193 -0.4668  0.1391 -0.1312
13159TIP3    H160892   3.845   2.714   2.171  1.4212  1.1050  0.8809
13159TIP3    H260893   3.776   2.833   2.109  0.9134  0.1560 -0.4010
13160TIP3   OH260894   0.007   3.870   5.130  0.3986  0.0418  0.5412
13160TIP3    H160895  -0.044   3.804   5.178  0.0897 -0.3499 -0.3094
13160TIP3    H260896   0.059   3.914   5.197  1.7820 -2.1067  0.9337
13161TIP3   OH260897   5.488   1.564  13.188 -0.3111  0.1920  0.0504
13161TIP3    H160898   5.527   1.640  13.231  0.3488  0.5067 -1.0739
13161TIP3    H260899   5.506   1.491  13.247  0.5976  0.6123  0.2999
13162TIP3   OH260900   2.351   6.601   2.855 -0.0256 -0.0569 -0.2012
13162TIP3    H160901   2.386   6.603   2.765 -0.1777  0.8591 -0.2436
13162TIP3    H260902   2.412   6.546   2.903  0.0541 -0.5624 -0.8749
13163TIP3   OH260903   0.351   0.642  12.433 -0.2562  0.3099  0.4233
13163TIP3    H160904   0.422   0.707  12.438 -0.6439  0.6915  1.1439
13163TIP3    H260905   0.324   0.642  12.341  2.7449 -2.0889 -0.5652
13164TIP3   OH260906   4.017   4.445   3.092  0.0804  0.1212 -0.3022
13164TIP3    H160907   3.967   4.386   3.148  1.5369 -1.1473 -0.3166
13164TIP3    H260908   4.003   4.532   3.130 -0.3941 -0.4972  0.9555
13165TIP3   OH260909   3.552   4.696  11.772  0.3994  0.8044  0.0149
13165TIP3    H160910   3.500   4.775  11.758 -0.4622  0.5367  1.6164
13165TIP3    H260911   3.636   4.715  11.729 -0.2313  2.0947 -0.6785
13166TIP3   OH260912   4.547   4.578   5.857  0.0532  0.2684 -0.6228
13166TIP3    H160913   4.464   4.616   5.886  0.3595  0.2164  0.3272
13166TIP3    H260914   4.523   4.489   5.830 -0.4395  0.7160 -1.6577
13167TIP3   OH260915   1.377   2.553  11.711  0.4566 -0.6893 -0.1249
13167TIP3    H160916   1.400   2.612  11.640  1.1643 -1.0720 -0.2219
13167TIP3    H260917   1.461   2.531  11.752  0.0495 -0.3991  0.8852
13168TIP3   OH260918   1.973   0.311  16.428 -0.1435 -0.5976  0.1694
13168TIP3    H160919   1.930   0.272  16.352 -0.1528  0.9685 -0.6389
13168TIP3    H260920   1.935   0.265  16.503 -0.0978 -2.1855 -0.7672
13169TIP3   OH260921   5.711   4.673   4.086 -0.3420 -0.2432  0.7988
13169TIP3    H160922   5.735   4.615   4.014 -1.4562  0.2774 -0.0121
13169TIP3    H260923   5.760   4.754   4.068 -0.5206 -0.1575  0.6999
13170TIP3   OH260924   1.328   0.004   3.136  0.0150 -0.2086  0.0020
13170TIP3    H160925   1.367  -0.044   3.063  0.0936  0.0882 -0.1526
13170TIP3    H260926   1.390   0.075   3.154  0.5454 -0.9266  1.0834
13171TIP3   OH260927   5.296   5.706   4.953 -0.1630 -0.3433  0.1825
13171TIP3    H160928   5.205   5.689   4.930  0.7853 -2.8088 -1.9113
13171TIP3    H260929   5.320   5.782   4.900 -0.3652 -1.0434 -0.9259
13172TIP3   OH260930   3.703   3.048  11.546 -0.7698  0.0182  0.3593
13172TIP3    H160931   3.704   2.956  11.519 -0.0609 -0.4648  1.9146
13172TIP3    H260932   3.794   3.077  11.534 -0.7604  0.2023  0.8548
13173TIP3   OH260933   3.201   6.304  15.548  0.0236 -0.0515  0.8531
13173TIP3    H160934   3.288   6.279  15.515  0.8191  2.8863  0.5614
13173TIP3    H260935   3.143   6.293  15.473  0.8328  1.4426 -0.0084
13174TIP3   OH260936   2.181   4.746  16.719 -0.8072  0.0677 -0.2566
13174TIP3    H160937   2.198   4.662  16.761 -1.1174  0.3200  0.3713
13174TIP3    H260938   2.133   4.723  16.639  0.6705 -0.4877 -1.0082
13175TIP3   OH260939   6.381   2.480  16.906 -0.9133 -0.3424  0.1201
13175TIP3    H160940   6.298   2.446  16.941 -0.3967 -0.7660  0.9419
13175TIP3    H260941   6.446   2.415  16.933  0.0504  1.1706  1.5281
13176TIP3   OH260942   5.959   2.658   5.492  0.1884  0.0166 -0.4793
13176TIP3    H160943   5.938   2.751   5.481 -1.4048 -0.0660  1.5676
13176TIP3    H260944   5.939   2.618   5.407 -2.5796  0.9290 -0.2864
13177TIP3   OH260945   5.389   5.948  13.589 -0.1643  0.1462  0.4005
13177TIP3    H160946   5.301   5.962  13.554 -0.0653 -1.3986 -0.5416
13177TIP3    H260947   5.393   6.002  13.668 -1.9763  0.2102  0.4688
13178TIP3   OH260948   3.460   1.729   0.719 -0.2141 -0.2809 -0.1432
13178TIP3    H160949   3.544   1.769   0.741 -1.0715  1.9665 -0.7478
13178TIP3    H260950   3.419   1.713   0.804  0.5070 -0.6871  0.1328
13179TIP3   OH260951   1.277   6.068  11.397  0.1745  0.1028 -0.7815
13179TIP3    H160952   1.247   6.035  11.313  0.1864  0.8314 -1.0720
13179TIP3    H260953   1.372   6.056  11.395 -0.0508 -2.0337  0.0685
13180TIP3   OH260954   0.922   6.147  15.309  0.1950 -0.0384 -0.4369
13180TIP3    H160955   0.997   6.089  15.320 -1.0518 -1.3576  1.3663
13180TIP3    H260956   0.934   6.215  15.376  1.4844  1.6577 -2.3313
13181TIP3   OH260957   2.605   4.803   2.384  0.4637  0.1569  0.0250
13181TIP3    H160958   2.567   4.790   2.471  1.6490 -1.4846  0.3287
13181TIP3    H260959   2.530   4.819   2.327 -0.4796 -0.5976  1.0335
13182TIP3   OH260960   0.700   3.526  15.577  0.2290  0.5072  0.0399
13182TIP3    H160961   0.661   3.610  15.554 -0.2641  0.5652  1.0757
13182TIP3    H260962   0.746   3.543  15.660  1.7436  0.2364 -0.7224
13183TIP3   OH260963   4.236   5.104  13.579  0.1828 -0.6996 -0.9207
13183TIP3    H160964   4.149   5.117  13.541  1.0045  0.8160 -2.3819
13183TIP3    H260965   4.255   5.185  13.625  1.7775 -0.0681 -2.6344
13184TIP3   OH260966   3.490   4.245   2.262  0.2052 -0.1927  0.3643
13184TIP3    H160967   3.416   4.228   2.203  0.2046 -1.5490  0.7574
13184TIP3    H260968   3.453   4.302   2.330 -0.8802 -2.0516  1.3754
13185TIP3   OH260969   0.973   1.122  11.402 -0.3571 -0.5352  0.1345
13185TIP3    H160970   1.006   1.196  11.453 -0.5353  0.0833 -0.6320
13185TIP3    H260971   0.895   1.156  11.359  0.5490 -0.6250 -1.6255
13186TIP3   OH260972   6.582   1.460  16.994 -0.2921  0.9798 -0.9429
13186TIP3    H160973   6.631   1.529  16.950  0.6266  0.5002 -0.6756
13186TIP3    H260974   6.542   1.410  16.922 -1.3430  2.0426 -1.1334
13187TIP3   OH260975   6.037   4.472  16.256 -0.1670  0.3651  0.1744
13187TIP3    H160976   6.037   4.498  16.164  1.1400  1.2407  0.4106
13187TIP3    H260977   6.089   4.539  16.300 -0.3566 -0.3235  1.4739
13188TIP3   OH260978   6.083   5.665  12.220 -0.3365 -0.3407  0.2746
13188TIP3    H160979   6.026   5.669  12.143  1.4767  1.3416 -1.0542
13188TIP3    H260980   6.141   5.591  12.202  0.0261 -0.0050  0.0435
13189TIP3   OH260981   5.683   0.332   3.764 -0.0239 -0.3690 -0.1440
13189TIP3    H160982   5.739   0.321   3.687  1.4847 -0.4816  0.9611
13189TIP3    H260983   5.659   0.425   3.763 -0.3875 -0.4632 -0.9904
13190TIP3   OH260984   5.893   1.934   5.602 -0.0343 -0.0157 -0.0156
13190TIP3    H160985   5.863   1.991   5.673 -0.3576  1.1370 -1.0702
13190TIP3    H260986   5.960   1.984   5.556  1.7959 -1.6217  0.7986
13191TIP3   OH260987   4.966   5.278  16.533 -0.2696  0.3872 -0.5800
13191TIP3    H160988   5.035   5.236  16.481  0.3756  0.0427  0.5277
13191TIP3    H260989   4.991   5.370  16.537 -1.7629  0.9498 -3.1363
13192TIP3   OH260990   1.443   2.501   3.128  0.2497 -0.0671 -0.0478
13192TIP3    H160991   1.472   2.412   3.107 -0.1752  0.0731 -1.2815
13192TIP3    H260992   1.514   2.538   3.180 -0.7325 -2.0399  2.8447
13193TIP3   OH260993   4.098   4.798   1.200  0.3682 -0.0858  0.1684
13193TIP3    H160994   4.179   4.758   1.233 -0.0646 -3.0520 -2.1850
13193TIP3    H260995   4.128   4.869   1.143  1.2538 -0.3461  0.3005
13194TIP3   OH260996   6.363   4.783  16.178 -0.5418 -0.9905  0.1277
13194TIP3    H160997   6.317   4.720  16.233 -0.4300 -1.0517  0.1515
13194TIP3    H260998   6.432   4.818  16.234  0.7916 -2.4665 -0.5566
13195TIP3   OH260999   3.765   1.945  15.810 -0.4086  0.2487  0.4257
13195TIP3    H161000   3.709   2.003  15.861 -0.7969  0.1172  0.1527
13195TIP3    H261001   3.824   1.905  15.874 -0.2862  0.7800  0.6423
13196TIP3   OH261002   6.392   3.441  13.293 -0.2766 -0.6044  0.0827
13196TIP3    H161003   6.485   3.420  13.290 -0.4952 -1.6920  0.4901
13196TIP3    H261004   6.384   3.500  13.368 -0.0299 -1.2258  0.6168
13197TIP3   OH261005   5.755   4.686   4.859 -0.0047 -0.0546  0.1145
13197TIP3    H161006   5.790   4.600   4.838 -0.5066 -0.4090  0.7156
13197TIP3    H261007   5.784   4.703   4.949  0.4649  0.5918 -0.1588
13198TIP3   OH261008   3.284   2.307  10.788  0.2920  0.3210 -0.9247
13198TIP3    H161009   3.213   2.298  10.725 -1.1284  0.3720  0.6389
13198TIP3    H261010   3.360   2.267  10.745 -0.4703  1.0087 -2.9354
13199TIP3   OH261011   5.086   5.574   0.975  0.1642 -0.0828 -0.3589
13199TIP3    H161012   5.147   5.647   0.986  0.7367 -0.7687  1.1762
13199TIP3    H261013   5.070   5.543   1.064 -0.8848 -1.1709 -0.9184
13200TIP3   OH261014   4.496   6.280   3.884  0.1069 -0.3307  0.0926
13200TIP3    H161015   4.449   6.361   3.864 -0.0262  0.5307  3.6767
13200TIP3    H261016   4.579   6.289   3.838 -0.1873  1.5395 -0.1227
13201TIP3   OH261017   4.728   4.653   4.393 -0.7409 -0.0979  0.0451
13201TIP3    H161018   4.696   4.715   4.459 -2.2902 -0.8590  0.0478
13201TIP3    H261019   4.669   4.667   4.318  0.9430  0.7006 -1.1574
13202TIP3   OH261020   4.656   3.422  14.612 -0.0851  0.5234 -0.2463
13202TIP3    H161021   4.715   3.351  14.637 -0.1221  0.9671  1.1954
13202TIP3    H261022   4.603   3.437  14.691 -1.6266  0.6243 -1.2714
13203TIP3   OH261023   0.811   6.202   4.601 -0.1213  0.2644  0.4229
13203TIP3    H161024   0.753   6.162   4.667 -0.7368 -0.5394 -0.5941
13203TIP3    H261025   0.868   6.259   4.652 -0.6659 -0.2546  1.6527
13204TIP3   OH261026   3.018   4.056  14.900  0.2661  0.2369 -0.8684
13204TIP3    H161027   2.949   4.073  14.836  0.4623 -1.2584 -1.5031
13204TIP3    H261028   3.018   4.133  14.958 -2.5790 -0.1746 -0.2642
13205TIP3   OH261029   6.378   3.742  11.389  0.1437 -0.0700 -0.5773
13205TIP3    H161030   6.406   3.665  11.439  0.4044 -0.7633 -1.7613
13205TIP3    H261031   6.284   3.750  11.406  0.6709  1.2127  2.0199
13206TIP3   OH261032   0.060   1.674  15.089 -0.6576  0.2524  0.0868
13206TIP3    H161033  -0.001   1.601  15.102 -2.4339  1.6347 -0.2256
13206TIP3    H261034   0.033   1.739  15.154  1.6326  0.2172  1.1314
13207TIP3   OH261035   5.530   4.541   0.777  0.4440 -0.3528  0.5062
13207TIP3    H161036   5.566   4.519   0.863 -0.6956  0.7718  1.2882
13207TIP3    H261037   5.437   4.555   0.793  0.2442 -0.0524 -0.9052
13208TIP3   OH261038   6.589   6.287  13.450 -0.1569 -0.0008  0.2294
13208TIP3    H161039   6.634   6.224  13.394  1.1054  1.6537 -0.6488
13208TIP3    H261040   6.659   6.339  13.489 -1.2441  2.0445 -0.4713
13209TIP3   OH261041   1.583   1.960  15.163 -0.0973  0.3079 -0.4013
13209TIP3    H161042   1.631   2.024  15.109  0.9122 -0.5217 -0.5174
13209TIP3    H261043   1.491   1.978  15.145  0.1894  1.3371 -0.8935
13210TIP3   OH261044   1.726   5.111  12.631 -0.1104 -0.4570 -0.1230
13210TIP3    H161045   1.740   5.027  12.675 -1.3650 -0.4014  0.3977
13210TIP3    H261046   1.638   5.104  12.593 -0.7486  1.0940  1.0141
13211TIP3   OH261047   4.955   4.530   5.977 -0.6582  0.0606 -0.3972
13211TIP3    H161048   4.872   4.547   6.023 -0.4476  0.7057 -0.2625
13211TIP3    H261049   5.006   4.610   5.987 -0.1283 -0.2284 -0.7351
13212TIP3   OH261050   4.696   4.743   3.064 -0.0069 -0.2024  1.0015
13212TIP3    H161051   4.783   4.770   3.034 -0.2015 -0.7421 -0.0619
13212TIP3    H261052   4.637   4.765   2.992 -0.6111 -0.7302  1.3255
13213TIP3   OH261053   4.905   3.861  14.955 -0.5834  0.4665  0.2306
13213TIP3    H161054   4.950   3.836  15.036  0.0592  1.9422  0.3426
13213TIP3    H261055   4.954   3.937  14.922 -1.4443  0.5061 -1.0103
13214TIP3   OH261056   2.195   2.952  11.339  0.5105  0.2130 -0.0797
13214TIP3    H161057   2.144   2.887  11.292 -0.3853 -0.5743  1.9478
13214TIP3    H261058   2.248   2.902  11.401  1.3717  1.2630  0.0617
13215TIP3   OH261059   1.665   4.082  13.238  0.0940 -0.7663  0.0417
13215TIP3    H161060   1.675   4.145  13.167 -0.1275  2.1319  2.4977
13215TIP3    H261061   1.755   4.058  13.262  0.1592 -2.1955 -1.5501
13216TIP3   OH261062   2.073   0.854  13.077  0.3381  0.1370  0.4892
13216TIP3    H161063   2.159   0.818  13.057  0.4880  0.5190  0.4340
13216TIP3    H261064   2.053   0.821  13.165  0.0718 -0.8094  0.0689
13217TIP3   OH261065   4.999   6.469   1.027 -0.3912  0.5670  0.4879
13217TIP3    H161066   5.088   6.498   1.005 -0.3900  0.3990  0.2637
13217TIP3    H261067   5.009   6.377   1.053 -0.6962  0.1064 -0.9665
13218TIP3   OH261068   2.791   4.742   4.460 -0.2287  0.4517  0.2483
13218TIP3    H161069   2.868   4.718   4.409 -1.5228 -0.2350 -1.4582
13218TIP3    H261070   2.781   4.671   4.523 -1.6396 -1.5049 -2.0586
13219TIP3   OH261071   1.137   1.804   2.232  0.1473  0.1265  0.1126
13219TIP3    H161072   1.201   1.770   2.294  1.1830 -1.3849 -1.7274
13219TIP3    H261073   1.168   1.774   2.146 -2.1861  0.6672 -0.9690
13220TIP3   OH261074   4.837   3.611  16.532 -0.0868 -0.0071 -0.3392
13220TIP3    H161075   4.929   3.615  16.507  0.3887 -1.7841  1.0967
13220TIP3    H261076   4.805   3.529  16.496 -1.0849  0.5160 -0.6809
13221TIP3   OH261077   3.540   2.615  13.888  0.2203 -0.3455 -0.4908
13221TIP3    H161078   3.635   2.610  13.877  0.1119 -0.4696 -1.4561
13221TIP3    H261079   3.524   2.583  13.977  1.2597  1.7924  0.4954
13222TIP3   OH261080   5.072   5.519  10.382 -0.4411  0.2460  0.2469
13222TIP3    H161081   5.090   5.459  10.310 -1.4291 -1.0135  1.0340
13222TIP3    H261082   5.087   5.467  10.461  0.2285  1.4899  0.9555
13223TIP3   OH261083   4.755   1.501  17.125 -0.2546  0.6794 -0.0528
13223TIP3    H161084   4.673   1.488  17.076  0.9317 -0.1348 -1.8769
13223TIP3    H261085   4.811   1.550  17.064  0.7824  0.8222  1.0103
13224TIP3   OH261086   6.376   5.561  17.015  0.0576  0.1550  0.2371
13224TIP3    H161087   6.395   5.627  17.083 -0.5797 -0.6732  1.2355
13224TIP3    H261088   6.415   5.481  17.049 -0.4513 -0.3183 -0.2908
13225TIP3   OH261089   0.551   1.995   5.757  0.1481 -0.5741 -0.5406
13225TIP3    H161090   0.628   1.940   5.771 -0.1901 -1.3750 -1.7103
13225TIP3    H261091   0.477   1.935   5.763 -0.2112 -0.3081 -2.0563
13226TIP3   OH261092   2.205   3.435   3.807  0.2737  0.1321 -0.0913
13226TIP3    H161093   2.271   3.434   3.876 -0.5852  0.9402  0.7647
13226TIP3    H261094   2.124   3.409   3.850 -0.3714  1.1280 -0.6769
13227TIP3   OH261095   1.141   2.783   3.952  0.6672  0.2130  0.7121
13227TIP3    H161096   1.188   2.862   3.925 -1.1687  0.7822 -0.9498
13227TIP3    H261097   1.090   2.810   4.028  1.3014  0.1855  1.1493
13228TIP3   OH261098   0.330   6.465  11.294 -0.4332 -0.3287  0.5962
13228TIP3    H161099   0.235   6.468  11.281 -0.2154  0.3979 -0.8982
13228TIP3    H261100   0.364   6.538  11.243  1.0904 -1.6054 -0.2724
13229TIP3   OH261101   6.733   4.563   2.686  0.6463  0.0323  0.5603
13229TIP3    H161102   6.782   4.480   2.686  0.2307 -0.2125  0.9051
13229TIP3    H261103   6.644   4.538   2.709  0.4123  0.5146  0.1680
13230TIP3   OH261104   2.187   5.712  10.844  0.4869  1.0316 -0.0682
13230TIP3    H161105   2.281   5.730  10.846  1.1560 -1.9912 -1.0865
13230TIP3    H261106   2.179   5.635  10.788 -2.4758  0.4884  1.0173
13231TIP3   OH261107   0.564   4.087  14.113  0.1428 -0.4793  0.3154
13231TIP3    H161108   0.657   4.088  14.134 -0.3894  1.9893  2.7908
13231TIP3    H261109   0.520   4.103  14.197 -2.4605 -0.4391 -1.0131
13232TIP3   OH261110   3.448   6.439   4.152 -0.5728  0.3661 -0.5356
13232TIP3    H161111   3.462   6.350   4.119  2.0954 -0.0514  1.5189
13232TIP3    H261112   3.525   6.488   4.122 -1.2220  1.5867 -0.2536
13233TIP3   OH261113   3.498   2.156   2.230 -0.0678 -0.0874  0.0689
13233TIP3    H161114   3.457   2.221   2.173  1.7027 -0.1721 -1.3477
13233TIP3    H261115   3.446   2.077   2.217 -1.1578  0.5543  0.4517
13234TIP3   OH261116   4.544   2.391   3.279 -0.5503  0.2864 -0.0006
13234TIP3    H161117   4.449   2.391   3.267 -0.4459  0.1798 -0.8487
13234TIP3    H261118   4.568   2.484   3.279 -0.3884  0.2563 -1.9924
13235TIP3   OH261119   2.123   1.628   0.014  0.4285  0.1097 -0.2897
13235TIP3    H161120   2.190   1.570   0.048 -0.7738 -1.1937 -0.0916
13235TIP3    H261121   2.097   1.681   0.089  0.9019  0.2997 -0.2575
13236TIP3   OH261122   1.096   6.353  16.288  0.3744 -0.4938 -0.2995
13236TIP3    H161123   1.136   6.403  16.360  1.1847 -1.4594 -0.0620
13236TIP3    H261124   1.069   6.420  16.225  0.0499  0.3382  0.7027
13237TIP3   OH261125   4.210   3.690   5.696  0.4217  0.0032 -0.0388
13237TIP3    H161126   4.199   3.613   5.641  2.3837  0.9788 -1.8307
13237TIP3    H261127   4.301   3.687   5.725  0.0933  0.8413  1.1563
13238TIP3   OH261128   2.387   3.991  14.864 -0.2242  0.3000 -0.3848
13238TIP3    H161129   2.414   3.900  14.874  1.2867  0.8175  0.3716
13238TIP3    H261130   2.333   3.991  14.785 -1.5510 -1.5239  0.4788
13239TIP3   OH261131   3.937   6.382  12.923 -0.0433 -0.3585  0.5282
13239TIP3    H161132   3.903   6.467  12.951 -1.8104 -1.5832  2.1753
13239TIP3    H261133   3.895   6.366  12.838 -2.3386 -1.1026  1.7851
13240TIP3   OH261134   4.473   4.354   2.336  0.6243 -0.8841  0.9352
13240TIP3    H161135   4.498   4.296   2.265 -2.3767 -0.0484 -0.8850
13240TIP3    H261136   4.532   4.429   2.328  0.6113 -1.0152 -0.3544
13241TIP3   OH261137   3.673   4.011   1.892  0.0789 -0.0629 -0.6479
13241TIP3    H161138   3.642   3.923   1.869 -1.8574  0.6690 -0.9732
13241TIP3    H261139   3.662   4.062   1.812  1.6902  0.3629 -0.6074
13242TIP3   OH261140   3.844   2.573   2.900 -0.3526 -0.3681  0.2109
13242TIP3    H161141   3.809   2.611   2.819 -2.2506 -0.5736  0.9043
13242TIP3    H261142   3.936   2.556   2.881 -0.1048  2.1355 -0.9852
13243TIP3   OH261143   2.781   0.610  15.707  0.3060  0.6148  0.0338
13243TIP3    H161144   2.856   0.630  15.764 -0.0448 -3.9603  2.3121
13243TIP3    H261145   2.819   0.563  15.633 -0.3140 -2.9192  1.8537
13244TIP3   OH261146   4.508   6.286  11.610 -0.2417  0.1839  0.2718
13244TIP3    H161147   4.588   6.264  11.659  0.7778  0.7915 -1.0864
13244TIP3    H261148   4.480   6.202  11.573 -1.2106 -0.3464  2.1216
13245TIP3   OH261149   0.872   1.184   1.636  0.5945  0.0125  1.3171
13245TIP3    H161150   0.802   1.248   1.647  0.1179 -0.4753  1.1418
13245TIP3    H261151   0.838   1.105   1.677  0.0346 -0.9635 -0.9617
13246TIP3   OH261152   3.440   2.004   6.335 -0.2287  0.1112 -0.3266
13246TIP3    H161153   3.451   2.088   6.291 -0.3154  0.1165 -0.3385
13246TIP3    H261154   3.378   2.023   6.406  0.4129  0.2534  0.2069
13247TIP3   OH261155   1.937   5.962  10.523  0.0723 -0.1208  0.3092
13247TIP3    H161156   1.968   6.009  10.446 -2.0994 -0.1453 -0.5991
13247TIP3    H261157   1.930   6.030  10.591  1.3955  0.0096  0.3306
13248TIP3   OH261158   4.412   4.941   2.476 -0.2096 -0.0997 -0.0663
13248TIP3    H161159   4.489   4.930   2.533  0.2624 -0.4961 -0.7700
13248TIP3    H261160   4.447   4.978   2.395 -0.7153 -0.5651 -0.5054
13249TIP3   OH261161   0.228   1.922   3.942  0.1939  0.3283 -0.1927
13249TIP3    H161162   0.296   1.855   3.948 -1.2678 -1.0875  1.1554
13249TIP3    H261163   0.200   1.935   4.032 -0.1087  2.1948 -0.5421
13250TIP3   OH261164   6.113   6.107   0.745  0.4805  0.3564  0.1421
13250TIP3    H161165   6.034   6.097   0.691  0.7092  0.3688 -0.1978
13250TIP3    H261166   6.185   6.093   0.683  0.7775  1.9772  0.1169
13251TIP3   OH261167   3.098   0.005  10.535 -0.1488 -0.3907 -0.2048
13251TIP3    H161168   3.012  -0.036  10.523 -0.4006  0.3755 -1.0526
13251TIP3    H261169   3.078   0.091  10.572  0.1685  0.4088 -1.8927
13252TIP3   OH261170   0.078   3.375   4.907  0.1823 -0.7925  0.1621
13252TIP3    H161171   0.121   3.374   4.822 -1.8035 -1.7945 -0.8719
13252TIP3    H261172   0.118   3.302   4.955  0.7050 -0.7634 -0.2362
13253TIP3   OH261173   1.052   1.038   3.600  0.2432  1.1844  0.2169
13253TIP3    H161174   1.137   1.077   3.577  0.7642  0.4457  0.8777
13253TIP3    H261175   0.988   1.101   3.567  1.0172  1.1980 -1.3221
13254TIP3   OH261176   2.861   2.264   2.628 -0.4868  0.5189 -0.0066
13254TIP3    H161177   2.890   2.300   2.712 -0.7281 -0.1213  0.3542
13254TIP3    H261178   2.937   2.269   2.571 -0.6330  1.9920 -0.0855
13255TIP3   OH261179   6.461   0.509   2.090  0.8356  0.1336  0.2043
13255TIP3    H161180   6.448   0.426   2.044  1.1098 -0.2348  0.7999
13255TIP3    H261181   6.372   0.537   2.115  0.6684  0.4077 -0.6667
13256TIP3   OH261182   5.508   3.101   5.206 -0.9816 -0.4520  0.6400
13256TIP3    H161183   5.453   3.177   5.187 -0.2741  0.1870  1.1419
13256TIP3    H261184   5.448   3.037   5.243 -2.2500 -1.4131 -2.8653
13257TIP3   OH261185   2.454   6.440  16.497 -0.2077  0.2782 -0.0528
13257TIP3    H161186   2.493   6.354  16.512 -1.3256 -0.1706  0.2984
13257TIP3    H261187   2.447   6.447  16.402  1.7644  0.8381 -0.1882
13258TIP3   OH261188   3.688   3.955   3.945  0.3194  0.3954  0.1328
13258TIP3    H161189   3.707   4.046   3.968 -0.1293 -0.3156  3.5572
13258TIP3    H261190   3.593   3.951   3.935  0.5697  0.8573 -2.7586
13259TIP3   OH261191   4.212   2.413   5.573  0.0973  0.0612  0.2634
13259TIP3    H161192   4.188   2.499   5.608 -0.4985 -0.6033  1.5415
13259TIP3    H261193   4.136   2.387   5.521 -0.3040 -0.2673  0.9923
13260TIP3   OH261194   0.389   4.042   4.189 -0.2420 -0.0557  0.1409
13260TIP3    H161195   0.371   4.045   4.095  0.0687  0.7963  0.1042
13260TIP3    H261196   0.346   4.120   4.224 -0.7220 -0.5994  0.7709
13261TIP3   OH261197   3.679   1.824   5.173  0.8814 -0.2480  0.0208
13261TIP3    H161198   3.753   1.845   5.229  0.6410  0.6141  0.0180
13261TIP3    H261199   3.716   1.825   5.084  0.8417  0.3323  0.0061
13262TIP3   OH261200   1.398   1.237   5.219 -0.4317  0.7559 -0.3457
13262TIP3    H161201   1.304   1.228   5.238 -0.5064 -0.3837 -1.2067
13262TIP3    H261202   1.405   1.220   5.125  0.8295 -0.7475 -0.0043
13263TIP3   OH261203   3.167   3.577  15.214 -0.9559  0.0743  0.0044
13263TIP3    H161204   3.112   3.575  15.292 -1.6293  0.0493 -0.4724
13263TIP3    H261205   3.162   3.667  15.182 -0.6908  0.0822 -0.0216
13264TIP3   OH261206   5.842   1.233   3.487  0.1308 -0.6806  0.3239
13264TIP3    H161207   5.904   1.303   3.466  0.8083 -1.9351 -2.2062
13264TIP3    H261208   5.763   1.255   3.438  0.1833 -1.3862 -0.0995
13265TIP3   OH261209   3.139   3.492   4.750 -0.5096 -0.7925 -0.2458
13265TIP3    H161210   3.051   3.475   4.784 -0.2339  0.0369  0.9407
13265TIP3    H261211   3.159   3.416   4.695 -1.5479 -1.5001  0.3309
13266TIP3   OH261212   3.619   6.351  14.026  0.1506  0.7674 -0.0417
13266TIP3    H161213   3.634   6.290  14.098  3.5587  1.7167  0.1730
13266TIP3    H261214   3.623   6.438  14.067  1.3943  1.2878 -1.2029
13267TIP3   OH261215   5.515   2.725   3.065  0.0816 -0.0289  0.1252
13267TIP3    H161216   5.472   2.806   3.093  0.5145  0.4495 -0.5749
13267TIP3    H261217   5.443   2.669   3.036 -0.3598 -0.4651  1.9838
13268TIP3   OH261218   4.655   6.106   3.055  0.8067 -0.1296 -0.2523
13268TIP3    H161219   4.727   6.057   3.096  0.7688  0.4962  0.5731
13268TIP3    H261220   4.634   6.175   3.118  1.4147  1.4772 -1.7718
13269TIP3   OH261221   1.538   0.641  16.173  0.5781 -0.3331  0.4857
13269TIP3    H161222   1.598   0.715  16.164  0.8443 -0.6354 -0.3480
13269TIP3    H261223   1.461   0.677  16.217  1.3536  0.0675  1.5279
13270TIP3   OH261224   4.891   6.426   0.683  0.2031 -0.2715 -0.1015
13270TIP3    H161225   4.840   6.481   0.743  1.1788 -0.6336  1.0979
13270TIP3    H261226   4.950   6.487   0.639 -1.2336  0.1416 -1.4681
13271TIP3   OH261227   1.750   2.859   3.364  0.5528 -0.4936 -0.5086
13271TIP3    H161228   1.690   2.921   3.405  1.1073 -0.6216  0.5133
13271TIP3    H261229   1.763   2.893   3.275  0.4402  0.5704 -0.1262
13272TIP3   OH261230   3.321   1.411   1.699 -0.3314  0.3534 -0.4439
13272TIP3    H161231   3.271   1.366   1.767  0.0931  0.5484 -0.0001
13272TIP3    H261232   3.295   1.368   1.618  1.3849 -1.9260  0.1629
13273TIP3   OH261233   1.273   5.323   3.997  0.2336  0.1105  0.3689
13273TIP3    H161234   1.299   5.351   4.085  0.0899 -1.7454  1.0135
13273TIP3    H261235   1.347   5.273   3.964  0.2981  0.8220 -0.6020
13274TIP3   OH261236   5.299   6.622   5.538 -0.0447  0.1577  0.3318
13274TIP3    H161237   5.335   6.691   5.594  0.8752 -1.0083  1.1829
13274TIP3    H261238   5.205   6.622   5.558  0.1684  0.2341  1.3461
13275TIP3   OH261239   0.727   3.306   2.558 -0.0618 -1.0708  0.0683
13275TIP3    H161240   0.821   3.296   2.541 -0.1595 -1.1400 -0.4380
13275TIP3    H261241   0.722   3.368   2.631  0.3604 -0.6921 -0.2237
13276TIP3   OH261242   6.334   3.408  15.943  0.1496 -0.1314  0.0052
13276TIP3    H161243   6.295   3.451  15.867  1.3097  0.3124 -0.3494
13276TIP3    H261244   6.276   3.431  16.016 -0.4159  0.2597 -0.5583
13277TIP3   OH261245   6.392   3.256  11.587 -0.5465  0.0687 -0.8257
13277TIP3    H161246   6.439   3.319  11.532 -1.0115 -1.3763 -2.9584
13277TIP3    H261247   6.419   3.171  11.553 -0.8570 -0.8750  1.2350
13278TIP3   OH261248   0.897   6.225   4.969  0.8748 -0.0538 -0.0659
13278TIP3    H161249   0.935   6.170   4.900 -0.3944 -0.3974 -0.5085
13278TIP3    H261250   0.888   6.311   4.929 -1.4824 -0.6565 -0.9629
13279TIP3   OH261251   5.488   0.416   0.841 -0.3881 -0.6703  0.5862
13279TIP3    H161252   5.471   0.424   0.935 -1.1548 -1.0076  0.4757
13279TIP3    H261253   5.481   0.505   0.807  0.1327 -0.5109  0.8852
13280TIP3   OH261254   2.099   2.038   4.997 -0.2302  0.4025 -0.4080
13280TIP3    H161255   2.006   2.056   5.004 -0.2070  0.9594 -1.4070
13280TIP3    H261256   2.117   2.036   4.903  0.6131 -0.5012 -0.2375
13281TIP3   OH261257   5.957   2.939   5.401  0.2099 -0.4371 -0.7136
13281TIP3    H161258   5.892   3.005   5.376  2.4051  0.8113 -3.3982
13281TIP3    H261259   6.010   2.982   5.468 -0.6560 -0.8274  0.2233
13282TIP3   OH261260   5.158   1.002  14.401  0.0935  0.2490  0.2376
13282TIP3    H161261   5.125   1.089  14.425 -1.0546 -0.3075  0.7082
13282TIP3    H261262   5.110   0.942  14.457 -0.1888 -0.8056 -1.1108
13283TIP3   OH261263   5.723   4.508   5.308  0.8175  0.0721 -0.3251
13283TIP3    H161264   5.769   4.431   5.341 -0.3311 -0.7969 -0.7062
13283TIP3    H261265   5.631   4.493   5.333  0.9250  2.3585  1.5319
13284TIP3   OH261266   1.418   5.602   6.213  0.0433  0.0532  0.0136
13284TIP3    H161267   1.325   5.620   6.200 -0.3276 -1.0470  0.9932
13284TIP3    H261268   1.439   5.643   6.297  0.8118  1.5592 -0.9035
13285TIP3   OH261269   3.310   3.172   1.725  0.3499  0.3639 -0.1466
13285TIP3    H161270   3.266   3.184   1.810  0.3691 -2.8245  0.3902
13285TIP3    H261271   3.312   3.077   1.713  2.4400  0.6813 -2.6523
13286TIP3   OH261272   1.727   1.409   2.756  0.5626 -0.4791 -0.1982
13286TIP3    H161273   1.779   1.433   2.833  0.6524 -1.8439  0.1772
13286TIP3    H261274   1.670   1.339   2.786  0.4784 -0.9124 -1.3317
13287TIP3   OH261275   4.973   3.895  17.151  0.0544 -0.2216  0.1020
13287TIP3    H161276   5.023   3.894  17.069  1.5204 -2.2531  0.9697
13287TIP3    H261277   4.909   3.965  17.139  1.4401  0.7441 -2.0579
13288TIP3   OH261278   6.292   5.258  14.408 -0.2747  0.1346 -0.6679
13288TIP3    H161279   6.386   5.265  14.388 -0.1620 -0.7983 -0.5015
13288TIP3    H261280   6.277   5.323  14.476  0.4130 -0.2391 -0.1604
13289TIP3   OH261281   0.836   1.074  11.795  0.3431 -0.3885 -0.1954
13289TIP3    H161282   0.834   1.149  11.855  1.1358 -1.2477  0.9217
13289TIP3    H261283   0.890   1.009  11.840  0.5390 -1.2282 -1.6372
13290TIP3   OH261284   2.736   0.228   3.689 -0.4179 -0.3959 -0.4100
13290TIP3    H161285   2.775   0.292   3.629  0.2275  0.2136  0.6433
13290TIP3    H261286   2.673   0.181   3.635  0.0367  0.2452 -1.5350
13291TIP3   OH261287   2.210   0.113   2.831  0.2517  0.1312  0.1410
13291TIP3    H161288   2.155   0.040   2.861  1.4566 -1.2102 -0.8916
13291TIP3    H261289   2.148   0.185   2.818 -1.2135 -1.2292 -0.5874
13292TIP3   OH261290   4.074   4.247   1.600 -0.0701 -0.1101  0.5978
13292TIP3    H161291   4.047   4.199   1.678 -3.3498 -0.3484 -0.5962
13292TIP3    H261292   4.061   4.339   1.622  0.4905 -0.0880  0.8461
13293TIP3   OH261293   1.134   1.188   4.685  0.2755  0.2677  0.2023
13293TIP3    H161294   1.142   1.278   4.656  1.2387 -0.1525 -0.8688
13293TIP3    H261295   1.141   1.193   4.781  0.8538  1.2607  0.1109
13294TIP3   OH261296   2.528   3.795   1.773  0.5021 -0.2634  0.1892
13294TIP3    H161297   2.459   3.764   1.833 -0.4411  1.2169 -0.1102
13294TIP3    H261298   2.498   3.768   1.686  1.1009 -1.0212  0.2083
13295TIP3   OH261299   6.219   2.598   1.737  0.3800  0.3162 -0.7600
13295TIP3    H161300   6.308   2.566   1.755  1.2024  3.0735  0.3926
13295TIP3    H261301   6.197   2.651   1.814 -0.9712  2.3193 -2.4855
13296TIP3   OH261302   3.380   6.726   2.903  0.1531 -0.2794  0.3780
13296TIP3    H161303   3.448   6.664   2.931 -0.0624 -0.4926  0.4323
13296TIP3    H261304   3.298   6.680   2.919 -0.0649  0.5365  1.6807
13297TIP3   OH261305   5.725   4.667  15.076 -0.6774 -0.4076 -0.0421
13297TIP3    H161306   5.662   4.706  15.136 -0.2455  1.1063 -0.5434
13297TIP3    H261307   5.705   4.707  14.991  1.5599  0.8540 -0.0243
13298TIP3   OH261308   6.018   3.598   6.101  0.3738  0.4684 -0.2267
13298TIP3    H161309   5.960   3.663   6.139  0.6934  2.2911 -2.7439
13298TIP3    H261310   6.105   3.620   6.134  0.4801  1.3269 -1.0715
13299TIP3   OH261311   0.513   6.728  16.615 -0.0938  0.0606  0.0500
13299TIP3    H161312   0.539   6.732  16.523 -0.1150  1.0037  0.0881
13299TIP3    H261313   0.443   6.663  16.618  0.1088 -0.1824 -0.5502
13300TIP3   OH261314   3.249   1.001  17.066 -0.2190  0.2854  0.0193
13300TIP3    H161315   3.216   0.911  17.075  0.1635  0.2052  0.6097
13300TIP3    H261316   3.344   0.992  17.069 -0.1862  0.7435  0.4367
13301TIP3   OH261317   2.238   0.254  16.345 -0.1569  0.1976  0.0189
13301TIP3    H161318   2.152   0.288  16.369  0.4947  1.2247  0.9132
13301TIP3    H261319   2.254   0.289  16.258 -0.5382  0.1828 -0.0587
13302TIP3   OH261320   1.688   5.597   3.586 -0.3992  0.2588  0.2282
13302TIP3    H161321   1.772   5.641   3.575 -0.1421 -0.4436 -0.6919
13302TIP3    H261322   1.711   5.513   3.626 -0.6342 -0.0430 -0.2666
13303TIP3   OH261323   5.861   5.913  16.265 -0.1341  0.5612  0.1895
13303TIP3    H161324   5.873   5.902  16.359  2.4358 -0.4220 -0.2074
13303TIP3    H261325   5.926   5.979  16.241  1.3648 -1.4321 -1.3708
13304TIP3   OH261326   3.708   3.243   1.986 -0.1982 -0.0448 -0.2583
13304TIP3    H161327   3.622   3.212   2.015 -0.8049 -0.9477 -2.8717
13304TIP3    H261328   3.689   3.315   1.926  0.9971  1.2732  0.8775
13305TIP3   OH261329   0.157   1.481  15.331 -0.3397  0.2736 -0.0138
13305TIP3    H161330   0.217   1.527  15.390  0.1499  0.2721 -0.5096
13305TIP3    H261331   0.072   1.524  15.345 -0.4147 -0.2450  1.2692
13306TIP3   OH261332   4.011   2.701   1.986  0.7021 -0.5093  0.5959
13306TIP3    H161333   4.090   2.654   2.013 -0.2648 -2.8053 -0.4274
13306TIP3    H261334   3.942   2.635   1.988 -1.0863  1.2958  0.8066
13307TIP3   OH261335   1.268   0.952   4.777  0.2165 -0.4822 -0.4003
13307TIP3    H161336   1.297   0.893   4.708  0.3779 -0.6129 -0.2209
13307TIP3    H261337   1.226   1.024   4.731 -2.5324 -2.1025 -0.4884
13308TIP3   OH261338   4.809   4.130  15.186  0.2589 -0.0485 -0.1056
13308TIP3    H161339   4.893   4.095  15.156  0.3042  0.1003 -0.1569
13308TIP3    H261340   4.819   4.138  15.281 -0.6592 -2.5770  0.2237
13309TIP3   OH261341   1.609   6.409   0.952  0.0856 -0.5121  0.1255
13309TIP3    H161342   1.593   6.444   0.864 -0.7391  1.2597  0.9413
13309TIP3    H261343   1.523   6.382   0.983 -0.0040  1.0321  1.2594
13310TIP3   OH261344   1.014   3.905   4.052  0.7413  0.1981 -0.1370
13310TIP3    H161345   1.025   3.959   4.130  0.2644 -0.4098  0.3599
13310TIP3    H261346   0.971   3.826   4.084 -2.5301  1.3430 -1.5706
13311TIP3   OH261347   4.362   5.021  14.805 -0.5759  0.5040 -0.0190
13311TIP3    H161348   4.273   5.047  14.829  0.3651  2.8257  1.1991
13311TIP3    H261349   4.406   5.004  14.889  0.4489  0.5387 -0.5349
13312TIP3   OH261350   2.175   0.092  16.014 -0.1458  0.2605 -0.4669
13312TIP3    H161351   2.144   0.001  16.022 -0.6579  0.5745  1.3114
13312TIP3    H261352   2.171   0.110  15.920  0.6362 -1.7907 -0.9263
13313TIP3   OH261353   3.867   3.611   3.186  0.1581  0.0447 -0.1958
13313TIP3    H161354   3.773   3.619   3.167  0.1894  1.0951  0.0500
13313TIP3    H261355   3.899   3.547   3.123 -0.5839  0.2487 -0.7871
13314TIP3   OH261356   0.481   3.990  11.508 -0.1615 -0.3408 -0.1095
13314TIP3    H161357   0.554   3.941  11.545 -0.6608  0.9200  2.7228
13314TIP3    H261358   0.522   4.054  11.449  0.6315 -2.6605 -2.1343
13315TIP3   OH261359   1.568   3.200  15.247  0.3605  0.1840  0.0580
13315TIP3    H161360   1.606   3.137  15.185 -4.4911 -1.7229 -1.1561
13315TIP3    H261361   1.570   3.284  15.200  1.4337 -0.2122 -0.6302
13316TIP3   OH261362   6.650   4.717  16.881 -0.0811 -0.0418  0.0429
13316TIP3    H161363   6.568   4.703  16.834 -0.3743  1.2024  0.1673
13316TIP3    H261364   6.633   4.684  16.969  0.2148 -1.6518 -0.4844
13317TIP3   OH261365   0.627   6.463  15.993 -0.3690 -0.1379  0.3679
13317TIP3    H161366   0.635   6.372  16.023  0.4306 -0.1829  0.0331
13317TIP3    H261367   0.713   6.484  15.958 -0.9735  0.2647 -0.9161
13318TIP3   OH261368   6.156   2.462  11.464 -0.2388  0.0858  0.6581
13318TIP3    H161369   6.202   2.450  11.547 -0.2317 -0.4612  0.5839
13318TIP3    H261370   6.225   2.457  11.397 -0.3835 -0.5881  0.5559
13319TIP3   OH261371   1.999   0.039  12.983 -0.7453 -0.2661 -0.5157
13319TIP3    H161372   2.042  -0.018  13.047  1.2022  1.7564 -0.0040
13319TIP3    H261373   1.907   0.038  13.009 -0.2226 -0.6746  1.3924
13320TIP3   OH261374   0.537   0.189   5.173 -0.1493 -0.0185 -0.3051
13320TIP3    H161375   0.528   0.110   5.120 -2.2572 -0.0579  0.0962
13320TIP3    H261376   0.586   0.250   5.116  0.7639 -1.3014 -0.9181
13321TIP3   OH261377   6.733   6.747  16.778 -0.1469  0.3738  0.4375
13321TIP3    H161378   6.723   6.671  16.721  0.4068  0.1840  0.5928
13321TIP3    H261379   6.650   6.794  16.771  0.0859  0.5963 -0.8773
13322TIP3   OH261380   2.703   4.796  10.958 -0.7595 -0.7314 -0.1628
13322TIP3    H161381   2.770   4.859  10.932 -0.5677 -0.9929 -0.3120
13322TIP3    H261382   2.622   4.847  10.965 -1.0107 -0.8033 -2.1394
13323TIP3   OH261383   0.778   3.279  16.360  0.0325 -0.0103  0.2610
13323TIP3    H161384   0.775   3.357  16.305 -1.9911 -0.8318 -0.8441
13323TIP3    H261385   0.766   3.312  16.449 -1.2333  0.9419 -0.2451
13324TIP3   OH261386   2.830   1.034  12.445 -0.0850 -0.1481  0.1801
13324TIP3    H161387   2.858   1.074  12.363 -1.3673 -1.8657 -1.1662
13324TIP3    H261388   2.758   1.089  12.476  2.3086  2.2006  1.7633
13325TIP3   OH261389   5.255   6.232  16.781 -0.1049  0.4326  0.1306
13325TIP3    H161390   5.231   6.150  16.738 -0.4113  0.6433 -0.1028
13325TIP3    H261391   5.192   6.241  16.851 -0.4596  0.7903 -0.2381
13326TIP3   OH261392   3.051   0.769  17.030  0.2280 -0.1886  0.3583
13326TIP3    H161393   3.024   0.700  16.969 -1.4410  0.1607  0.6671
13326TIP3    H261394   2.969   0.796  17.072  1.0897  0.9388  1.3229
13327TIP3   OH261395   2.883   2.550   0.262 -0.5074 -0.0352 -0.1545
13327TIP3    H161396   2.826   2.494   0.315  0.6693 -0.3957  0.7745
13327TIP3    H261397   2.938   2.488   0.214  0.6395  0.3120  0.6968
13328TIP3   OH261398   6.173   1.701   5.297  0.8375  0.0494  0.3733
13328TIP3    H161399   6.194   1.704   5.204 -2.8674 -2.6153 -0.6514
13328TIP3    H261400   6.247   1.655   5.337  1.5724 -0.4710 -1.5450
13329TIP3   OH261401   2.701   6.109   2.053  0.0939  0.2251 -0.0411
13329TIP3    H161402   2.681   6.190   2.006  0.0123  1.0350  1.3654
13329TIP3    H261403   2.645   6.044   2.012  0.3025  0.8223 -1.3240
13330TIP3   OH261404   4.116   2.900  13.668  0.1758 -0.1747  0.1930
13330TIP3    H161405   4.138   2.811  13.640  1.3596 -0.3453  1.6500
13330TIP3    H261406   4.029   2.915  13.630  1.4791 -0.5602 -3.1733
13331TIP3   OH261407   5.806   0.700  13.147  0.3915 -0.0815  0.1898
13331TIP3    H161408   5.719   0.712  13.184  1.3845  2.6731  1.7598
13331TIP3    H261409   5.801   0.740  13.060 -0.1939 -0.9687 -0.1980
13332TIP3   OH261410   1.819   4.917  14.019  0.3923 -0.0483 -0.1312
13332TIP3    H161411   1.872   4.976  14.072  1.0432  0.2757 -1.1278
13332TIP3    H261412   1.750   4.972  13.982  0.0475 -0.2346  0.2356
13333TIP3   OH261413   3.458   2.171   4.406  0.1595  0.3709 -0.7149
13333TIP3    H161414   3.397   2.100   4.427 -0.9364  1.0808 -1.5004
13333TIP3    H261415   3.482   2.207   4.491 -0.0226 -0.3113 -0.3662
13334TIP3   OH261416   0.575   3.360  13.665 -0.4132  0.1014 -0.4503
13334TIP3    H161417   0.619   3.422  13.607  0.4394 -2.0900 -2.2254
13334TIP3    H261418   0.642   3.336  13.729 -0.2443 -0.1628 -0.7200
13335TIP3   OH261419   3.907   3.462   6.153  0.4434 -0.5451  0.2256
13335TIP3    H161420   3.907   3.537   6.213  0.1035  0.8424 -1.4591
13335TIP3    H261421   3.849   3.398   6.194 -0.5399  0.7658  0.9137
13336TIP3   OH261422   6.312   0.904  14.296  0.9547  0.6512 -0.8211
13336TIP3    H161423   6.313   0.998  14.276  1.7646  0.5591 -1.2184
13336TIP3    H261424   6.339   0.862  14.214  0.8581  0.0791 -0.5603
13337TIP3   OH261425   6.291   4.368  13.220 -0.3548 -0.0080 -0.2541
13337TIP3    H161426   6.221   4.362  13.285  1.1235 -1.0706  1.3012
13337TIP3    H261427   6.295   4.281  13.180  1.5099 -0.6813  1.2708
13338TIP3   OH261428   6.198   1.222  11.177  0.1428 -0.1859 -0.5552
13338TIP3    H161429   6.260   1.163  11.133 -0.5182 -1.8153  0.6624
13338TIP3    H261430   6.151   1.264  11.105 -0.3496 -2.2003 -1.4606
13339TIP3   OH261431   3.595   1.047   4.164 -0.2949  0.0893 -0.3252
13339TIP3    H161432   3.568   1.139   4.167 -0.8327 -0.0907  4.3614
13339TIP3    H261433   3.513   0.998   4.171  0.0817 -0.7706 -1.6889
13340TIP3   OH261434   3.952   2.884   2.473 -0.0648  0.1498 -0.2772
13340TIP3    H161435   4.035   2.918   2.441 -0.3375 -0.0855 -1.2273
13340TIP3    H261436   3.917   2.955   2.528  1.7776 -0.5957  1.9462
13341TIP3   OH261437   5.137   1.002  14.129  0.0147 -0.3979  0.5371
13341TIP3    H161438   5.157   1.095  14.121 -0.3941 -0.3928 -0.5091
13341TIP3    H261439   5.137   0.985  14.223  0.4726  0.5741  0.7157
13342TIP3   OH261440   3.359   2.201   3.113  0.6437  0.2881  0.3214
13342TIP3    H161441   3.296   2.240   3.052  0.2123 -0.3625  0.3459
13342TIP3    H261442   3.384   2.118   3.071 -1.4408 -1.3024  2.1270
13343TIP3   OH261443   6.195   4.009  14.904 -0.2951 -0.0456  0.1219
13343TIP3    H161444   6.236   4.076  14.847  3.0924 -2.8394 -0.9251
13343TIP3    H261445   6.118   3.980  14.855 -0.0290  0.8773 -0.8691
13344TIP3   OH261446   4.969   0.362   2.910 -0.2417  0.3963 -0.0052
13344TIP3    H161447   5.060   0.390   2.899 -0.1540 -0.3268 -1.2381
13344TIP3    H261448   4.925   0.393   2.831 -0.8434 -0.1435  0.1130
13345TIP3   OH261449   0.189   0.412  13.254 -0.2347  0.0897 -0.0258
13345TIP3    H161450   0.126   0.383  13.320 -0.5489  0.2735 -0.2456
13345TIP3    H261451   0.136   0.447  13.183  0.1237  0.4626 -0.1139
13346TIP3   OH261452   2.799   2.192  14.934 -0.3831  0.0507 -0.1922
13346TIP3    H161453   2.793   2.106  14.976  0.4361 -0.0968 -0.3677
13346TIP3    H261454   2.709   2.224  14.932 -0.6865 -0.7878 -0.0856
13347TIP3   OH261455   6.264   1.829  10.912  0.1756 -0.1864 -0.9254
13347TIP3    H161456   6.234   1.741  10.935 -1.3990  0.6357  0.3102
13347TIP3    H261457   6.304   1.819  10.825 -0.5350 -2.0068 -1.0655
13348TIP3   OH261458   3.345   0.246  16.967 -0.2115 -0.0673 -0.2018
13348TIP3    H161459   3.369   0.177  16.905  2.5659  1.0796 -0.4722
13348TIP3    H261460   3.291   0.306  16.916 -1.2744 -1.1746 -0.4043
13349TIP3   OH261461   4.264   2.066   4.709  0.3736  0.0203 -0.0227
13349TIP3    H161462   4.310   2.102   4.633 -0.1381  1.8934  0.5392
13349TIP3    H261463   4.172   2.088   4.693  0.1741 -0.2209  0.7895
13350TIP3   OH261464   2.623   5.239  10.981 -0.2743 -0.4015  0.3752
13350TIP3    H161465   2.709   5.212  10.948  0.2961  1.1398  0.5589
13350TIP3    H261466   2.560   5.191  10.927  0.6694  0.2766 -1.3591
13351TIP3   OH261467   1.094   5.373  15.171  0.1499 -0.7741 -0.1832
13351TIP3    H161468   1.039   5.338  15.241  1.7383 -0.9398  1.0025
13351TIP3    H261469   1.139   5.447  15.211 -0.5407  0.4860 -1.6655
13352TIP3   OH261470   0.781   5.890  13.200  0.2416  0.4198 -0.4029
13352TIP3    H161471   0.807   5.865  13.111  0.4604 -1.7800  0.2444
13352TIP3    H261472   0.859   5.876  13.253 -1.0452 -2.4261  0.8584
13353TIP3   OH261473   4.270   5.151   1.346  0.3927  0.4326  0.5449
13353TIP3    H161474   4.183   5.113   1.359  0.8344 -1.0026 -0.5155
13353TIP3    H261475   4.264   5.238   1.385 -2.2134  1.2667 -1.5184
13354TIP3   OH261476   5.058   4.740  16.887 -0.7271 -0.5593 -0.6624
13354TIP3    H161477   4.993   4.687  16.840 -3.0488  1.3366  0.2968
13354TIP3    H261478   5.038   4.830  16.862  0.6314  0.1716  0.7804
13355TIP3   OH261479   6.248   3.274   0.503 -0.3768 -0.5347 -0.3726
13355TIP3    H161480   6.298   3.353   0.484  2.8631 -2.5660 -0.5591
13355TIP3    H261481   6.254   3.263   0.598 -1.0471 -0.4259 -0.3140
13356TIP3   OH261482   4.609   0.718   2.985  0.1952  0.3897 -0.0222
13356TIP3    H161483   4.607   0.814   2.976  0.5969  0.3447 -0.6533
13356TIP3    H261484   4.576   0.686   2.901  2.1958 -0.0357 -0.6904
13357TIP3   OH261485   2.122   0.908   2.076  0.7290  0.1454 -0.3766
13357TIP3    H161486   2.174   0.933   1.999  1.3638  0.8060  0.2501
13357TIP3    H261487   2.088   0.991   2.109  1.3297 -0.0155  0.6635
13358TIP3   OH261488   1.620   5.372   0.746 -0.4920 -0.0181 -0.0926
13358TIP3    H161489   1.599   5.376   0.653  2.8745  1.5315 -0.8631
13358TIP3    H261490   1.653   5.283   0.760 -0.5343 -0.0959 -0.4923
13359TIP3   OH261491   4.898   3.683  13.258  0.0421 -0.3749  0.2943
13359TIP3    H161492   4.833   3.634  13.307 -1.3110 -0.0047 -1.0784
13359TIP3    H261493   4.961   3.617  13.228 -0.9061 -1.0474 -0.2228
13360TIP3   OH261494   3.469   3.613   5.036  0.1144 -0.4118 -0.2253
13360TIP3    H161495   3.544   3.556   5.052  0.2452 -0.0577  0.4668
13360TIP3    H261496   3.410   3.597   5.110  1.1258  1.9056  1.1215
13361TIP3   OH261497   5.540   0.611  13.873 -0.6096 -0.5267  0.6221
13361TIP3    H161498   5.622   0.601  13.824 -0.6521  1.4121  0.1163
13361TIP3    H261499   5.565   0.598  13.964  0.3302  0.3097  0.4954
13362TIP3   OH261500   2.549   5.892   2.510  0.1441  0.3795  0.2664
13362TIP3    H161501   2.536   5.966   2.570 -1.3673 -0.2650  0.7594
13362TIP3    H261502   2.596   5.930   2.436  3.1550  0.9555  2.3524
13363TIP3   OH261503   6.129   2.547  17.196  0.1513  1.0488 -0.3283
13363TIP3    H161504   6.156   2.456  17.186 -0.9091  0.5613  1.1429
13363TIP3    H261505   6.045   2.553  17.150  0.8959  1.6599 -1.6595
13364TIP3   OH261506   2.695   0.893  12.991  0.4637  0.3773 -0.4958
13364TIP3    H161507   2.667   0.951  13.062  0.3926 -0.7573  0.4308
13364TIP3    H261508   2.677   0.942  12.911 -0.1870  1.3746  0.2452
13365TIP3   OH261509   2.602   1.027  14.804  0.4202  0.1254  0.1616
13365TIP3    H161510   2.526   1.041  14.860  0.4842  0.4361  0.1719
13365TIP3    H261511   2.591   1.089  14.732  0.2431 -0.4013 -0.2702
13366TIP3   OH261512   1.088   2.054  15.280  0.1365 -0.3362 -0.5350
13366TIP3    H161513   1.074   2.137  15.235  2.3795 -0.5421 -1.6757
13366TIP3    H261514   1.112   1.993  15.210  0.5759 -1.4293  0.5536
13367TIP3   OH261515   1.911   1.566   0.637 -0.1239  0.7283 -0.3775
13367TIP3    H161516   1.857   1.643   0.618  0.9739  1.3246 -1.0924
13367TIP3    H261517   1.994   1.583   0.592 -0.1880 -1.2840 -1.2879
13368TIP3   OH261518   1.059   3.066   3.262  0.2926 -0.5348 -0.1426
13368TIP3    H161519   1.093   3.003   3.326  1.3435  0.1354 -0.0391
13368TIP3    H261520   1.067   3.020   3.178  0.0927 -0.9350  0.0558
13369TIP3   OH261521   1.047   4.206  15.600 -0.4994  0.0734  0.4213
13369TIP3    H161522   0.961   4.187  15.637 -1.1320 -0.3373 -1.2256
13369TIP3    H261523   1.064   4.133  15.539  1.5738 -0.5390  1.6631
13370TIP3   OH261524   2.397   1.011   1.925  0.5654 -0.7515 -0.4535
13370TIP3    H161525   2.354   0.929   1.948 -0.2077 -0.3851 -0.5579
13370TIP3    H261526   2.421   1.002   1.833 -0.5349 -0.4305 -0.7775
13371TIP3   OH261527   1.222   6.497  14.786  0.1193  0.0783  0.3071
13371TIP3    H161528   1.204   6.455  14.703  0.9237  1.0681 -0.3817
13371TIP3    H261529   1.233   6.425  14.848 -1.0455 -0.6493 -0.3115
13372TIP3   OH261530   3.476   5.195   4.644 -0.2449 -0.3311  0.2230
13372TIP3    H161531   3.438   5.201   4.731 -1.9637 -1.8140 -0.3841
13372TIP3    H261532   3.506   5.104   4.637  1.4089  0.2214 -0.1363
13373TIP3   OH261533   4.445   5.496   1.389 -0.1587  0.2980 -0.3819
13373TIP3    H161534   4.460   5.431   1.458  1.0985  0.4289 -0.5245
13373TIP3    H261535   4.376   5.553   1.425 -1.6150 -1.3731 -0.4631
13374TIP3   OH261536   0.033   0.372   2.502 -0.0106  0.3140  0.6467
13374TIP3    H161537  -0.009   0.435   2.561 -1.8728 -0.0376 -0.2704
13374TIP3    H261538   0.053   0.423   2.424 -2.8926 -0.4995 -0.7006
13375TIP3   OH261539   1.627   0.323  14.181 -0.2935  0.5700 -0.1904
13375TIP3    H161540   1.619   0.254  14.246 -2.2518 -0.3957 -1.4107
13375TIP3    H261541   1.659   0.279  14.103 -3.6135  0.5814 -1.6347
13376TIP3   OH261542   4.755   1.809  16.784 -0.1215  0.1686 -0.2029
13376TIP3    H161543   4.669   1.844  16.804  0.3453  0.6608  0.9929
13376TIP3    H261544   4.816   1.865  16.832  0.8056 -0.7182 -0.3173
13377TIP3   OH261545   2.604   1.350   0.839 -0.0172 -0.4089  0.5998
13377TIP3    H161546   2.679   1.310   0.883  0.6943  0.3683  0.0855
13377TIP3    H261547   2.573   1.417   0.900 -0.9563 -1.4269  1.2779
13378TIP3   OH261548   2.546   4.332   4.765  0.5463 -0.2677 -0.4194
13378TIP3    H161549   2.576   4.401   4.824  2.1184 -0.0001 -1.5065
13378TIP3    H261550   2.529   4.377   4.682  0.7273 -1.0492 -0.8830
13379TIP3   OH261551   3.280   0.789   3.331  0.3456  0.4363 -0.3467
13379TIP3    H161552   3.194   0.749   3.340  1.1535 -0.7565  2.3209
13379TIP3    H261553   3.319   0.744   3.256  0.0509 -1.6418  0.7047
13380TIP3   OH261554   2.852   3.367  17.086  0.0403  0.3794  0.5495
13380TIP3    H161555   2.813   3.395  17.169  1.7277  0.0428  1.4734
13380TIP3    H261556   2.849   3.445  17.030  0.4511  1.0828  1.5122
13381TIP3   OH261557   0.630   0.638  13.407 -0.1740  0.5416 -0.5637
13381TIP3    H161558   0.712   0.674  13.375  1.2775 -2.3973 -0.3161
13381TIP3    H261559   0.596   0.587  13.333 -1.0921  0.5951 -0.1892
13382TIP3   OH261560   6.678   0.806   4.137  0.2288  0.2598 -0.2373
13382TIP3    H161561   6.636   0.837   4.056 -1.4334  0.8723  0.8179
13382TIP3    H261562   6.772   0.811   4.119 -0.1152 -0.5671 -2.4708
13383TIP3   OH261563   6.463   4.624  16.539  0.4207 -0.5021  0.1894
13383TIP3    H161564   6.428   4.593  16.623 -1.7446  0.8948 -0.1707
13383TIP3    H261565   6.510   4.705  16.562  2.2175 -1.5776  0.4409
13384TIP3   OH261566   5.046   2.948  16.289 -0.5704  0.2335  0.2763
13384TIP3    H161567   5.119   3.009  16.285  1.0586 -1.7628 -2.4814
13384TIP3    H261568   4.968   3.001  16.270  0.6493  1.6578 -0.8304
13385TIP3   OH261569   1.580   0.197  16.549 -0.2695  0.2680  0.1639
13385TIP3    H161570   1.508   0.134  16.548 -0.2657  0.2920 -1.9899
13385TIP3    H261571   1.657   0.145  16.573 -0.7985  0.0611  1.4730
13386TIP3   OH261572   4.432   5.220  12.624  0.4613  0.2550 -0.1746
13386TIP3    H161573   4.493   5.271  12.571 -1.2781  0.0779 -2.4141
13386TIP3    H261574   4.475   5.136  12.637  0.5377 -0.0202 -2.1102
13387TIP3   OH261575   5.737   1.282  12.607  0.1163  0.2448 -0.1782
13387TIP3    H161576   5.778   1.362  12.574 -0.9217  0.2534 -1.4653
13387TIP3    H261577   5.800   1.213  12.589  1.2167  0.8132  1.3437
13388TIP3   OH261578   2.103   6.059   5.103  0.1290 -0.3539  0.1464
13388TIP3    H161579   2.097   6.045   5.009  0.2331 -0.6994  0.1900
13388TIP3    H261580   2.092   6.154   5.114  0.2385 -0.2970 -0.2219
13389TIP3   OH261581   4.267   5.283  16.185 -0.1848  0.1494  0.4929
13389TIP3    H161582   4.362   5.271  16.183 -0.2043  0.0686 -0.6899
13389TIP3    H261583   4.250   5.337  16.262  0.7782 -0.1608  0.9262
13390TIP3   OH261584   2.560   6.581   6.079  0.2719 -0.2535 -0.7446
13390TIP3    H161585   2.615   6.506   6.101 -1.0388 -1.5560 -1.8297
13390TIP3    H261586   2.566   6.638   6.156  0.1021 -2.1709  0.7305
13391TIP3   OH261587   4.078   2.750  15.889  0.2835 -0.1331  0.4831
13391TIP3    H161588   3.998   2.778  15.935 -0.4525  0.9713 -1.4149
13391TIP3    H261589   4.047   2.690  15.821  1.0479  0.3217 -0.2851
13392TIP3   OH261590   4.949   4.870  12.213  0.0097 -0.3298 -0.0522
13392TIP3    H161591   4.902   4.809  12.270  0.5087 -0.0672  0.6499
13392TIP3    H261592   4.995   4.814  12.151  1.7868 -0.7713  1.6166
13393TIP3   OH261593   5.908   5.309   5.476 -0.8087  0.5708 -0.0141
13393TIP3    H161594   5.860   5.359   5.410 -0.2123 -1.4972 -2.1056
13393TIP3    H261595   5.956   5.375   5.526 -2.3477  2.3015 -0.7649
13394TIP3   OH261596   3.577   2.197  16.112 -0.4181 -0.1389 -0.1046
13394TIP3    H161597   3.489   2.227  16.133 -0.7889 -1.3419  0.0711
13394TIP3    H261598   3.589   2.221  16.020 -0.5488  0.9059  0.1353
13395TIP3   OH261599   1.013   3.377  13.076  0.3247 -0.0738  0.0358
13395TIP3    H161600   1.017   3.385  12.981 -0.8258  2.9541  0.1710
13395TIP3    H261601   1.101   3.400  13.106  0.5799 -0.6426 -0.2687
13396TIP3   OH261602   1.794   6.096  12.890 -0.5900  0.1080  0.2903
13396TIP3    H161603   1.835   6.058  12.812  0.4266 -0.1025  0.9145
13396TIP3    H261604   1.713   6.046  12.901  0.1794 -1.1403  0.4509
13397TIP3   OH261605   6.066   0.255  14.762 -0.3992 -0.0913  0.3290
13397TIP3    H161606   6.030   0.223  14.845  0.2578  0.3253  0.7804
13397TIP3    H261607   6.159   0.234  14.766 -0.6698 -1.6270 -1.0625
13398TIP3   OH261608   3.089   1.828   2.675  0.1010  0.0574 -0.1138
13398TIP3    H161609   3.002   1.851   2.707 -0.0849 -0.7958  0.0150
13398TIP3    H261610   3.073   1.795   2.586  0.4247  0.9211 -0.4980
13399TIP3   OH261611   0.737   6.288   5.209 -0.7285  0.2562  0.0924
13399TIP3    H161612   0.797   6.349   5.253 -0.1704 -0.1652 -0.0816
13399TIP3    H261613   0.788   6.254   5.135 -1.1671 -0.1436 -0.0253
13400TIP3   OH261614   3.145   3.738  16.827  0.1349  0.0801  0.4231
13400TIP3    H161615   3.130   3.826  16.862  0.0530  0.1607  0.1868
13400TIP3    H261616   3.065   3.690  16.848 -0.2481  0.3609 -0.3700
13401TIP3   OH261617   1.907   0.563   3.170 -0.6240  0.2745 -0.2343
13401TIP3    H161618   1.864   0.507   3.105  2.2062  0.3418 -2.2928
13401TIP3    H261619   1.923   0.506   3.244  0.3451 -1.1425 -1.4966
13402TIP3   OH261620   5.887   6.783   0.051  0.7022 -0.2121 -0.3960
13402TIP3    H161621   5.964   6.829   0.083  1.1090 -1.2808  0.1841
13402TIP3    H261622   5.831   6.772   0.128 -0.0756  0.6372 -0.8306
13403TIP3   OH261623   4.007   6.115  16.751 -0.1676  0.4155 -0.1698
13403TIP3    H161624   3.946   6.130  16.680 -1.6760 -0.7271  0.8429
13403TIP3    H261625   3.980   6.176  16.820  0.5420  0.7022 -0.1410
13404TIP3   OH261626   2.689   2.865  15.649  0.2515  0.4141 -0.0395
13404TIP3    H161627   2.684   2.913  15.566 -2.4012 -1.5270 -1.0576
13404TIP3    H261628   2.751   2.795  15.632 -1.8315 -1.2392 -1.1233
13405TIP3   OH261629   6.549   0.215  15.875  0.7424 -0.4337  0.2007
13405TIP3    H161630   6.640   0.239  15.892  0.5425  0.0012  0.6720
13405TIP3    H261631   6.507   0.297  15.851  0.1291 -0.3413  1.5083
13406TIP3   OH261632   6.777   5.598  15.330  0.5103  0.4614  0.1227
13406TIP3    H161633   6.716   5.540  15.375  1.6626 -1.6521 -0.9614
13406TIP3    H261634   6.858   5.593  15.381  0.0826  2.5917  1.0737
13407TIP3   OH261635   6.201   2.332   1.003 -0.1687 -0.6936 -0.0050
13407TIP3    H161636   6.212   2.237   1.010 -1.0824 -0.6351  3.0846
13407TIP3    H261637   6.128   2.352   1.062  0.8337  2.0882  0.3913
13408TIP3   OH261638   1.954   2.367   6.082  0.2054  0.8509 -0.3263
13408TIP3    H161639   1.862   2.345   6.070 -0.1197  1.4340  1.0228
13408TIP3    H261640   1.953   2.451   6.130  1.4248  1.2331 -0.9447
13409TIP3   OH261641   3.253   2.094  14.080 -0.1534 -0.0660 -0.0634
13409TIP3    H161642   3.179   2.046  14.044  0.5733 -2.1866  1.1331
13409TIP3    H261643   3.218   2.141  14.155 -0.1125 -1.9181  1.1472
13410TIP3   OH261644   2.009   2.095  15.782 -0.5025 -0.0655 -0.3071
13410TIP3    H161645   1.945   2.159  15.812 -0.3588  0.0450 -0.2375
13410TIP3    H261646   2.090   2.144  15.771 -0.9423  0.2317 -2.4405
13411TIP3   OH261647   5.620   0.641   2.375  0.4549 -0.3507  0.0942
13411TIP3    H161648   5.570   0.717   2.342  2.2118  0.4878 -0.7399
13411TIP3    H261649   5.626   0.655   2.469 -0.0037  0.0899  0.0594
13412TIP3   OH261650   3.355   1.501   2.769 -0.0580 -0.2906 -0.1020
13412TIP3    H161651   3.410   1.466   2.839  0.2047  0.3059 -0.0107
13412TIP3    H261652   3.312   1.424   2.732 -1.5768 -0.4367  1.8791
13413TIP3   OH261653   6.592   1.668   1.407 -0.0156  0.2225  0.0457
13413TIP3    H161654   6.498   1.651   1.402  0.1582 -0.6656 -0.3285
13413TIP3    H261655   6.625   1.599   1.465  0.5381 -0.0300 -0.5632
13414TIP3   OH261656   3.893   3.354  13.899 -0.0096  0.0518  0.5316
13414TIP3    H161657   3.800   3.343  13.878  0.1669  0.6780 -0.6146
13414TIP3    H261658   3.931   3.268  13.881 -0.3977 -0.2720  1.2225
13415TIP3   OH261659   5.619   5.765   1.176 -0.3489 -0.5966 -0.4952
13415TIP3    H161660   5.614   5.771   1.081  2.6790  0.2511 -0.6484
13415TIP3    H261661   5.608   5.672   1.195  1.3358 -1.0793 -1.8466
13416TIP3   OH261662   2.384   5.270   5.182 -0.0046  0.1084 -0.3922
13416TIP3    H161663   2.458   5.309   5.135  0.4749  1.1705  1.2249
13416TIP3    H261664   2.360   5.334   5.248 -0.4771 -1.4846  1.0315
13417TIP3   OH261665   0.728   0.754   2.632 -0.1139  0.4794  0.5672
13417TIP3    H161666   0.786   0.683   2.659  0.4540  1.2165  1.2905
13417TIP3    H261667   0.653   0.748   2.691 -0.2701  0.2158  0.3451
13418TIP3   OH261668   4.132   5.965   3.696 -0.4578  0.1709  0.3341
13418TIP3    H161669   4.148   5.893   3.635  2.2158  0.3224  0.7986
13418TIP3    H261670   4.167   6.042   3.651  0.0782  0.5411  1.3699
13419TIP3   OH261671   2.836   2.832  15.275  0.1974  0.1795 -0.4019
13419TIP3    H161672   2.834   2.896  15.204  2.7567  1.2303  0.3952
13419TIP3    H261673   2.930   2.819  15.292 -0.3229 -2.3913  0.7027
13420TIP3   OH261674   1.307   3.139  12.029 -0.3701  0.2135  1.0896
13420TIP3    H161675   1.324   3.052  11.995 -0.0870  0.6072  0.2121
13420TIP3    H261676   1.218   3.135  12.065 -0.5894 -0.2562  0.4925
13421TIP3   OH261677   6.188   6.326   2.230  0.5856 -0.1345  0.3234
13421TIP3    H161678   6.209   6.268   2.303  1.7679  0.0405  0.1211
13421TIP3    H261679   6.251   6.304   2.162 -0.6307 -0.4259 -0.7364
13422TIP3   OH261680   5.933   1.666   1.878  0.0493 -0.4790 -0.0512
13422TIP3    H161681   5.903   1.731   1.816  0.9164 -0.2985 -0.2889
13422TIP3    H261682   5.889   1.585   1.852  0.0611 -0.3026 -0.6235
13423TIP3   OH261683   5.023   0.333   5.581 -0.0090 -0.4688 -0.1608
13423TIP3    H161684   5.108   0.370   5.605 -0.8423  1.8516 -0.6681
13423TIP3    H261685   5.035   0.238   5.587  2.5783 -0.1551 -0.1419
13424TIP3   OH261686   5.060   2.511   4.560  0.1232 -0.2969 -0.2431
13424TIP3    H161687   5.041   2.571   4.487  1.0877 -2.0608 -1.9996
13424TIP3    H261688   5.036   2.425   4.527  1.7503 -1.2939  1.0735
13425TIP3   OH261689   4.409   2.518   4.205  0.0758 -0.2547  0.0676
13425TIP3    H161690   4.399   2.600   4.157  0.7367 -0.1325  0.1372
13425TIP3    H261691   4.320   2.493   4.228 -0.2772 -0.4131 -1.4011
13426TIP3   OH261692   0.876   4.939   2.216 -0.2837  0.6667  0.1857
13426TIP3    H161693   0.867   5.013   2.277  0.1117  0.7689  0.1265
13426TIP3    H261694   0.912   4.978   2.136  0.5728  0.3122  0.3869
13427TIP3   OH261695   2.273   4.332   3.418 -0.1708  0.1868 -0.4239
13427TIP3    H161696   2.342   4.303   3.478 -2.4227 -0.9094  1.7591
13427TIP3    H261697   2.232   4.406   3.463 -0.3409  0.9312 -1.7735
13428TIP3   OH261698   5.289   2.305  16.792  0.1228  0.2797  0.5972
13428TIP3    H161699   5.222   2.363  16.830 -1.1887 -0.7526 -0.1323
13428TIP3    H261700   5.270   2.219  16.830  0.8598 -0.0765  0.1569
13429TIP3   OH261701   6.636   2.211   2.997 -0.2395 -0.1191  0.7206
13429TIP3    H161702   6.595   2.209   3.083  2.1388  1.4536  1.9632
13429TIP3    H261703   6.718   2.163   3.009  1.3610  2.3279  0.0856
13430TIP3   OH261704   1.006   0.997  12.160 -0.8631  0.1078  0.5031
13430TIP3    H161705   0.918   0.960  12.168 -1.2554  0.9326  0.0711
13430TIP3    H261706   1.053   0.963  12.236 -1.4227 -0.6957  0.4940
13431TIP3   OH261707   2.527   0.931  11.285  0.0018 -0.2853 -0.0996
13431TIP3    H161708   2.458   0.865  11.295 -0.3588  0.0865 -0.0789
13431TIP3    H261709   2.543   0.933  11.190  0.5870 -0.9755 -0.0166
13432TIP3   OH261710   6.538   3.820  14.098  0.2234  0.6131  0.0273
13432TIP3    H161711   6.483   3.776  14.161 -1.3151 -0.0111 -1.7119
13432TIP3    H261712   6.611   3.855  14.149 -1.7250  1.3986  2.3475
13433TIP3   OH261713   1.181   6.615  13.057  0.6139 -0.3458 -0.4387
13433TIP3    H161714   1.207   6.536  13.009  2.0872 -0.9914  1.3362
13433TIP3    H261715   1.141   6.671  12.991  1.2262 -1.8121 -2.1091
13434TIP3   OH261716   5.634   0.354  15.344 -0.0395 -0.4948  0.2394
13434TIP3    H161717   5.601   0.400  15.267  1.0733  1.8331  1.0932
13434TIP3    H261718   5.718   0.317  15.317 -0.2884 -0.8450 -0.0546
13435TIP3   OH261719   0.825   2.826  16.167  0.0338 -0.3303 -0.6522
13435TIP3    H161720   0.884   2.857  16.099 -0.3199  0.0420 -0.7901
13435TIP3    H261721   0.772   2.759  16.125 -0.9084  0.6367 -1.0473
13436TIP3   OH261722   2.772   3.476  13.476 -0.5964  0.1864  0.2197
13436TIP3    H161723   2.681   3.451  13.492 -1.3698  3.4424  1.4448
13436TIP3    H261724   2.770   3.519  13.390 -0.6209  2.0022  1.1102
13437TIP3   OH261725   6.614   5.493  11.968  0.5098 -0.1004  0.7531
13437TIP3    H161726   6.705   5.511  11.944 -0.1990  2.1529 -0.4020
13437TIP3    H261727   6.593   5.561  12.032 -0.6910  0.0690  0.1843
13438TIP3   OH261728   4.083   2.691   0.153  0.0499  0.3802  0.7971
13438TIP3    H161729   4.039   2.624   0.101  1.6913 -0.4136  0.4059
13438TIP3    H261730   4.087   2.767   0.096  1.2256 -0.2700 -0.0022
13439TIP3   OH261731   6.073   0.402  16.892 -0.2400  0.0274 -0.4393
13439TIP3    H161732   6.086   0.323  16.944  0.6923 -0.5953 -1.6170
13439TIP3    H261733   5.981   0.425  16.906 -0.3683 -0.9467  0.3355
13440TIP3   OH261734   1.065   5.248   3.062 -0.6971  0.2996  0.2117
13440TIP3    H161735   1.107   5.163   3.049  0.2493  1.0747 -2.1101
13440TIP3    H261736   0.977   5.237   3.025 -0.4731  0.3860 -0.3649
13441TIP3   OH261737   5.138   3.482  13.838 -0.1510  0.8308  0.2241
13441TIP3    H161738   5.117   3.520  13.752  0.6912  1.6811  0.3883
13441TIP3    H261739   5.231   3.462  13.832 -0.1477  0.6697  0.8633
13442TIP3   OH261740   1.834   0.457   0.266  0.0560 -0.3268 -0.2264
13442TIP3    H161741   1.800   0.417   0.346  0.0357  0.8610  0.3733
13442TIP3    H261742   1.760   0.456   0.205 -0.8902  1.6185  0.8447
13443TIP3   OH261743   5.494   1.390   5.837  0.2479  0.4246  0.5453
13443TIP3    H161744   5.491   1.363   5.745 -1.4137 -2.0872  1.2685
13443TIP3    H261745   5.403   1.414   5.857  0.6561  1.2184  1.4520
13444TIP3   OH261746   2.324   2.591  15.229 -0.1659  0.0281 -0.1415
13444TIP3    H161747   2.298   2.661  15.289 -0.7555  0.6822 -1.1485
13444TIP3    H261748   2.244   2.572  15.178 -0.2287 -1.8824  0.6194
13445TIP3   OH261749   3.048   3.735   0.850  0.6179 -0.0701  0.1326
13445TIP3    H161750   3.037   3.809   0.910  1.4149 -1.2661  1.7886
13445TIP3    H261751   3.127   3.691   0.880  0.3722 -1.3932 -1.0774
13446TIP3   OH261752   0.891   0.554   5.402  0.3023  0.7320 -0.5142
13446TIP3    H161753   0.977   0.539   5.441  0.9132  1.4154 -1.5898
13446TIP3    H261754   0.870   0.645   5.423 -0.0055  0.6712 -0.5536
13447TIP3   OH261755   4.664   3.412  15.458  0.4347  0.2489 -0.1681
13447TIP3    H161756   4.712   3.332  15.436 -0.4926  0.0783 -1.6504
13447TIP3    H261757   4.644   3.452  15.373  0.6596  1.9386  0.5386
13448TIP3   OH261758   3.342   2.648   5.566 -0.9013  0.0550 -0.2108
13448TIP3    H161759   3.296   2.598   5.634 -1.5589 -2.3624 -2.3461
13448TIP3    H261760   3.434   2.626   5.578 -0.9437  0.1796  0.3354
13449TIP3   OH261761   5.544   0.369   0.583 -0.2117 -0.0820  0.0152
13449TIP3    H161762   5.473   0.347   0.523 -0.0395  0.8432 -0.5506
13449TIP3    H261763   5.505   0.364   0.670 -1.0412  0.6659 -0.3060
13450TIP3   OH261764   4.765   3.415   3.100  0.1136 -0.2125 -0.1148
13450TIP3    H161765   4.720   3.372   3.027 -1.4484  0.7212  0.2847
13450TIP3    H261766   4.710   3.489   3.123  2.6564  1.9158 -0.6274
13451TIP3   OH261767   6.037   3.794   5.317  0.0193  0.5847  0.3070
13451TIP3    H161768   6.092   3.864   5.353  0.9767  0.4628 -0.8861
13451TIP3    H261769   5.949   3.832   5.315 -0.0802  0.5449  2.8595
13452TIP3   OH261770   1.059   0.538  17.009  0.3077 -0.3964 -0.0150
13452TIP3    H161771   1.102   0.501  16.932  0.1759  1.0025 -0.7845
13452TIP3    H261772   1.060   0.633  16.994  0.4275 -0.0889  1.7786
13453TIP3   OH261773   6.573   6.147   4.726 -0.2221 -0.4665 -0.1266
13453TIP3    H161774   6.490   6.102   4.711 -0.7967  0.4383  0.3057
13453TIP3    H261775   6.548   6.235   4.756  0.8845 -0.4863  0.8927
13454TIP3   OH261776   4.236   1.973  15.796  0.5398 -0.1890 -0.4054
13454TIP3    H161777   4.175   1.899  15.807 -0.4498  0.7267  0.3547
13454TIP3    H261778   4.293   1.946  15.724 -0.4042 -1.3046 -0.7500
13455TIP3   OH261779   3.140   1.819   3.175  0.3257 -0.5602  0.6173
13455TIP3    H161780   3.192   1.763   3.117 -0.2658 -1.1810  0.6862
13455TIP3    H261781   3.064   1.845   3.123  0.2737 -0.3431  0.7974
13456TIP3   OH261782   3.244   3.214   2.878 -0.2901  0.6081  0.5542
13456TIP3    H161783   3.177   3.272   2.841 -1.2215 -0.1651  1.0005
13456TIP3    H261784   3.250   3.142   2.815  2.3480  2.1599 -1.0616
13457TIP3   OH261785   5.568   0.361  13.120  0.0493  0.2092 -0.1380
13457TIP3    H161786   5.617   0.339  13.200 -0.1679 -1.3779 -0.4171
13457TIP3    H261787   5.482   0.321  13.134 -0.1365  0.3277 -0.9686
13458TIP3   OH261788   1.964   5.251  11.879 -0.9210 -0.4633 -0.0846
13458TIP3    H161789   1.956   5.289  11.791 -0.8674 -1.7654 -0.6658
13458TIP3    H261790   1.912   5.170  11.874 -1.0787 -0.4411  1.1461
13459TIP3   OH261791   5.196   5.335  15.695 -0.2580  0.0070 -0.4298
13459TIP3    H161792   5.149   5.266  15.742 -0.5754  1.1815  1.0190
13459TIP3    H261793   5.144   5.349  15.616 -0.3209 -1.2419 -0.6256
13460TIP3   OH261794   6.611   0.808  12.857  0.4758  0.0093 -0.1175
13460TIP3    H161795   6.615   0.898  12.891  0.2170 -0.4725  1.1925
13460TIP3    H261796   6.537   0.768  12.902  1.4399 -1.2867  0.3221
13461TIP3   OH261797   3.967   0.913   1.046 -0.0366 -0.0370 -0.1274
13461TIP3    H161798   3.971   1.007   1.029  0.7444  0.0364  0.4490
13461TIP3    H261799   3.883   0.899   1.088  0.1044  0.4867  0.3225
13462TIP3   OH261800   5.403   0.066   0.524  1.1960  0.6028 -0.7985
13462TIP3    H161801   5.414   0.000   0.455  0.6644  0.0729 -0.3824
13462TIP3    H261802   5.361   0.140   0.481  0.6270  0.1717 -0.9820
13463TIP3   OH261803   5.765   1.292   4.587  0.7864 -0.2560  0.4564
13463TIP3    H161804   5.810   1.215   4.551  0.9287 -0.2962  0.7168
13463TIP3    H261805   5.734   1.263   4.673 -1.0965 -0.7351 -0.3448
13464TIP3   OH261806   0.603   3.962  12.961  0.4828 -0.2356 -0.3644
13464TIP3    H161807   0.619   3.878  13.002  1.8146  0.8370  1.3701
13464TIP3    H261808   0.561   4.015  13.029 -0.7419  0.3717 -1.5657
13465TIP3   OH261809   6.745   4.404  14.957  0.3399  0.0969 -0.4067
13465TIP3    H161810   6.735   4.311  14.937  0.2912  0.2857 -1.3188
13465TIP3    H261811   6.752   4.408  15.052 -1.5016 -0.6609 -0.2299
13466TIP3   OH261812   1.524   0.209   3.150 -0.2106 -0.2090  0.1349
13466TIP3    H161813   1.451   0.268   3.131  0.9166  0.8765 -0.8999
13466TIP3    H261814   1.602   0.260   3.129  0.7541 -2.5216 -2.1301
13467TIP3   OH261815   0.198   2.651  17.139 -0.2939 -0.8082  0.7755
13467TIP3    H161816   0.199   2.740  17.175  0.5712 -1.2859  1.9264
13467TIP3    H261817   0.250   2.658  17.058 -0.6595 -0.1558  0.5921
13468TIP3   OH261818   3.253   1.904  15.233 -0.3753 -0.8519  0.6115
13468TIP3    H161819   3.286   1.823  15.271  0.0848 -1.5688 -1.2519
13468TIP3    H261820   3.222   1.955  15.308  0.8352 -2.0552  1.9652
13469TIP3   OH261821   1.170   3.843   2.029 -0.8013 -0.4729 -0.2279
13469TIP3    H161822   1.129   3.929   2.022 -1.7923 -0.8414  0.7572
13469TIP3    H261823   1.097   3.783   2.046  0.0288 -1.3051  0.4709
13470TIP3   OH261824   5.781   2.715  10.555 -0.3667 -0.2199  0.3394
13470TIP3    H161825   5.744   2.633  10.521 -0.0567 -0.9112  1.6357
13470TIP3    H261826   5.723   2.783  10.521 -2.1387 -1.1830  1.3404
13471TIP3   OH261827   4.740   3.879  14.252  0.0641 -0.0284 -0.1088
13471TIP3    H161828   4.703   3.867  14.339  0.1771 -0.4119 -0.1119
13471TIP3    H261829   4.834   3.864  14.263 -0.1129 -1.5375 -0.5686
13472TIP3   OH261830   5.469   2.441  16.117  0.7983 -0.5048 -0.0943
13472TIP3    H161831   5.378   2.425  16.142  1.0997 -0.1752  1.2513
13472TIP3    H261832   5.472   2.419  16.024 -0.8307  0.2166 -0.3430
13473TIP3   OH261833   1.346   4.454  17.220 -0.0524  0.3871 -0.1960
13473TIP3    H161834   1.332   4.436  17.127  3.7417 -3.1470 -0.2088
13473TIP3    H261835   1.422   4.512  17.223 -1.2238  1.9191  0.6873
13474TIP3   OH261836   1.686   2.225  14.652 -0.0315  0.7675 -0.3589
13474TIP3    H161837   1.679   2.286  14.726 -1.1735  0.1392  0.0683
13474TIP3    H261838   1.619   2.159  14.670  0.0324  0.3354 -1.7061
13475TIP3   OH261839   1.579   6.115  16.122  0.0470  0.0186  0.1070
13475TIP3    H161840   1.632   6.194  16.111  1.5845 -0.9587  0.3244
13475TIP3    H261841   1.540   6.123  16.209  1.9722 -0.4785  1.0318
13476TIP3   OH261842   0.445   1.713   0.664  0.0551 -0.0082 -0.7010
13476TIP3    H161843   0.390   1.637   0.683 -0.3799 -0.6140 -4.1905
13476TIP3    H261844   0.391   1.769   0.608  2.0124  0.6763 -1.9458
13477TIP3   OH261845   6.481   3.902  12.059 -0.2009  0.2391 -0.0202
13477TIP3    H161846   6.441   3.823  12.095 -0.8274  0.3879 -0.3780
13477TIP3    H261847   6.561   3.872  12.017  1.7110  0.3427  3.3631
13478TIP3   OH261848   0.311   3.686   0.987  0.0686  0.2799 -0.3778
13478TIP3    H161849   0.246   3.636   1.036  0.3324  0.6284  0.3373
13478TIP3    H261850   0.387   3.628   0.980 -0.3474 -0.1549 -1.2800
13479TIP3   OH261851   1.190   3.896   2.578  0.4574 -0.6720  0.4234
13479TIP3    H161852   1.260   3.831   2.577  0.9080 -0.2273  1.7161
13479TIP3    H261853   1.224   3.968   2.632 -1.3955 -0.9239  2.0078
13480TIP3   OH261854   3.788   1.050   5.468 -0.9228 -0.0949  0.1581
13480TIP3    H161855   3.783   0.955   5.475  0.1623 -0.1592  0.1350
13480TIP3    H261856   3.832   1.066   5.384  1.3713  0.3676  1.4066
13481TIP3   OH261857   6.757   0.319  15.174  0.3706  0.0752  0.1156
13481TIP3    H161858   6.687   0.385  15.173  0.9013  0.6585  1.3255
13481TIP3    H261859   6.781   0.311  15.266  1.1269 -0.9523 -0.1752
13482TIP3   OH261860   3.774   5.458  16.675  0.1485  0.2494 -0.6993
13482TIP3    H161861   3.785   5.363  16.674  0.1827  0.2436  0.0678
13482TIP3    H261862   3.814   5.488  16.593  2.2641 -0.1603  0.1518
13483TIP3   OH261863   2.303   2.067   4.017 -0.2030 -0.1377  0.6589
13483TIP3    H161864   2.314   2.058   4.112 -1.6400  1.3650  0.9990
13483TIP3    H261865   2.213   2.098   4.006 -0.4651 -1.5245 -1.2909
13484TIP3   OH261866   4.637   2.895  14.135 -0.5358  0.0204  0.5506
13484TIP3    H161867   4.552   2.909  14.176 -0.8518 -1.1349  0.3013
13484TIP3    H261868   4.661   2.981  14.099 -0.7441  0.7719  2.1914
13485TIP3   OH261869   4.857   3.893  11.521  0.1911 -0.5410  0.0418
13485TIP3    H161870   4.788   3.881  11.456 -1.9242  0.7877  1.9983
13485TIP3    H261871   4.929   3.838  11.489 -1.9420 -2.3955 -1.7411
13486TIP3   OH261872   6.004   1.926  13.061  0.3214 -0.2533 -0.4106
13486TIP3    H161873   6.068   1.971  13.117  0.2584 -0.8280  0.1362
13486TIP3    H261874   5.932   1.989  13.053 -0.1263 -0.5610  1.0279
13487TIP3   OH261875   0.091   6.139   0.954  0.4667  0.0791 -0.1783
13487TIP3    H161876   0.163   6.129   1.017  0.3806  2.3232  0.3178
13487TIP3    H261877   0.074   6.233   0.952 -0.3546 -0.0895 -2.6699
13488TIP3   OH261878   5.326   3.830  12.063  0.0202  0.0365 -0.4210
13488TIP3    H161879   5.322   3.734  12.057 -1.4481 -0.0010  0.9319
13488TIP3    H261880   5.413   3.852  12.030  0.0664 -1.7000 -1.5262
13489TIP3   OH261881   2.383   5.500  16.235 -0.1145  0.0697  0.5929
13489TIP3    H161882   2.339   5.554  16.169 -0.4531 -1.3051 -0.3180
13489TIP3    H261883   2.369   5.547  16.317 -1.0243  0.9982 -0.0787
13490TIP3   OH261884   2.359   3.936   3.902 -0.8326  0.3878 -0.4340
13490TIP3    H161885   2.389   3.845   3.904 -1.2603  0.2617  0.2048
13490TIP3    H261886   2.290   3.940   3.968 -0.3903  1.3226 -0.0140
13491TIP3   OH261887   5.428   2.230   6.359  0.1614  0.1735  0.1563
13491TIP3    H161888   5.514   2.221   6.317  0.8720 -1.4146  1.8945
13491TIP3    H261889   5.365   2.225   6.287  1.3798 -1.7479 -0.8026
13492TIP3   OH261890   5.689   5.583   3.975 -0.0758  0.1216  0.4655
13492TIP3    H161891   5.737   5.607   3.896 -0.2708  1.6009  0.7778
13492TIP3    H261892   5.757   5.559   4.038  0.1187 -0.3306  0.0832
13493TIP3   OH261893   3.862   6.660   2.963  0.1636 -0.0635  0.1083
13493TIP3    H161894   3.920   6.734   2.946  0.9294 -0.3584  1.4384
13493TIP3    H261895   3.893   6.591   2.904 -1.3258  1.0267 -2.0544
13494TIP3   OH261896   2.940   3.406   5.015  0.4769 -0.4158  0.3077
13494TIP3    H161897   2.958   3.495   5.046 -1.8707 -0.2943  1.4671
13494TIP3    H261898   2.912   3.417   4.925 -0.0445  0.0717  0.5223
13495TIP3   OH261899   4.072   1.443   4.589  0.0182 -0.2990 -0.4424
13495TIP3    H161900   4.137   1.435   4.519  0.1041  0.4308 -0.4466
13495TIP3    H261901   4.008   1.375   4.568 -0.7295  0.8605 -2.0781
13496TIP3   OH261902   5.293   4.741  16.472  0.4716  0.0967  0.4363
13496TIP3    H161903   5.263   4.734  16.381  1.2797 -1.9890  0.2827
13496TIP3    H261904   5.242   4.675  16.519 -1.0931  2.2670  1.8535
13497TIP3   OH261905   2.527   4.157   1.021  0.1796  0.3229 -0.5089
13497TIP3    H161906   2.468   4.113   0.960 -2.2196 -0.5803  2.3143
13497TIP3    H261907   2.577   4.086   1.062 -0.5019  0.5741  0.8123
13498TIP3   OH261908   5.180   1.716   0.698  0.2315 -0.6744 -0.1029
13498TIP3    H161909   5.258   1.698   0.647 -0.6859  0.1618 -1.8437
13498TIP3    H261910   5.140   1.792   0.656  0.1659  0.9183  2.6715
13499TIP3   OH261911   2.995   1.445  12.324 -0.0963 -0.6778 -0.0958
13499TIP3    H161912   3.020   1.411  12.238 -0.7488  0.2404 -0.6647
13499TIP3    H261913   3.074   1.486  12.358 -0.0095 -0.4821 -0.5395
13500TIP3   OH261914   3.769   1.848   4.370 -0.2008 -0.3583 -0.0380
13500TIP3    H161915   3.824   1.803   4.434  0.7784  0.4186 -0.3308
13500TIP3    H261916   3.790   1.940   4.382 -2.5975  0.0990  0.9474
13501TIP3   OH261917   2.964   3.450   0.530 -0.5961 -0.1109  0.7175
13501TIP3    H161918   2.881   3.414   0.561 -1.6510  1.1125 -0.6134
13501TIP3    H261919   3.027   3.378   0.541 -1.7432 -0.9554  2.0144
13502TIP3   OH261920   0.470   6.243   2.506  0.4644  0.0616 -0.1236
13502TIP3    H161921   0.537   6.235   2.575  1.4123  0.4968 -0.9766
13502TIP3    H261922   0.483   6.331   2.471 -1.5951  0.7270  0.7287
13503TIP3   OH261923   0.383   4.875  14.824 -0.0122  0.0490  0.3723
13503TIP3    H161924   0.338   4.956  14.800 -1.6962 -0.5081  1.6473
13503TIP3    H261925   0.396   4.830  14.741 -0.2496  1.0056 -0.1940
13504TIP3   OH261926   3.912   2.039  11.169 -0.5011  0.1050  0.3362
13504TIP3    H161927   3.924   1.979  11.096 -0.1768  1.5056 -0.7738
13504TIP3    H261928   3.839   2.095  11.142 -1.1619 -0.1116  1.5978
13505TIP3   OH261929   6.233   4.911  12.665 -0.4731  0.5013  0.1297
13505TIP3    H161930   6.154   4.958  12.692 -1.0203  0.2769 -1.0511
13505TIP3    H261931   6.279   4.894  12.747 -2.0552 -0.0922  0.9372
13506TIP3   OH261932   5.937   3.969   6.021  0.4642  0.6130  0.4647
13506TIP3    H161933   5.998   4.038   5.995 -0.9399  0.6399 -3.0288
13506TIP3    H261934   5.855   3.992   5.978 -1.0540 -1.3084  2.2374
13507TIP3   OH261935   5.333   1.817   2.210  0.1211 -0.3142  0.2779
13507TIP3    H161936   5.365   1.759   2.141 -1.2642 -0.7686 -0.0003
13507TIP3    H261937   5.296   1.759   2.276 -2.2242  0.2499 -0.4835
13508TIP3   OH261938   4.289   3.912   4.737  0.0282 -0.2956  0.4788
13508TIP3    H161939   4.194   3.925   4.742 -0.0927 -1.2825  0.8566
13508TIP3    H261940   4.301   3.818   4.751  0.9329 -0.4553 -1.2305
13509TIP3   OH261941   0.443   5.842  17.129  0.4730 -0.1434  0.3838
13509TIP3    H161942   0.384   5.830  17.054  3.1284  0.0499 -1.8318
13509TIP3    H261943   0.447   5.756  17.170  0.3884 -0.7245 -0.8043
13510TIP3   OH261944   5.919   6.261  11.254 -0.0734  0.3425  0.2636
13510TIP3    H161945   5.955   6.212  11.328 -1.2058  2.1860  2.0952
13510TIP3    H261946   5.907   6.350  11.287 -2.5846  0.7207 -1.4747
13511TIP3   OH261947   6.322   0.553   5.481 -0.1320  0.3350 -0.6101
13511TIP3    H161948   6.374   0.526   5.556 -0.0650 -0.5405 -0.9656
13511TIP3    H261949   6.250   0.603   5.518 -0.3393 -0.4691  0.0831
13512TIP3   OH261950   3.389   5.614   3.286  0.0269  0.7230  0.4191
13512TIP3    H161951   3.442   5.568   3.221  1.5000  1.4138  1.1124
13512TIP3    H261952   3.394   5.558   3.364 -1.8241 -0.1584 -0.0720
13513TIP3   OH261953   6.155   5.036   2.986 -0.7346  0.1133  0.0167
13513TIP3    H161954   6.072   5.080   2.965 -0.5958  0.6058  0.4881
13513TIP3    H261955   6.135   4.982   3.062 -0.8129 -0.3675 -0.3417
13514TIP3   OH261956   6.593   5.124  12.526 -0.1707 -0.5485 -0.4585
13514TIP3    H161957   6.541   5.205  12.531  0.4386 -0.0962 -1.3154
13514TIP3    H261958   6.547   5.070  12.462  0.2603 -0.2572 -1.0180
13515TIP3   OH261959   0.185   3.544   1.218  0.4184  0.2374 -0.1919
13515TIP3    H161960   0.234   3.486   1.276  0.8582  0.4265 -0.3705
13515TIP3    H261961   0.191   3.630   1.259  0.4261  0.3036 -0.3297
13516TIP3   OH261962   3.583   4.743  12.789 -0.4336  0.0417  0.7637
13516TIP3    H161963   3.659   4.687  12.774 -0.4445  0.1051  0.4655
13516TIP3    H261964   3.510   4.696  12.749 -0.3241  0.5877 -0.0923
13517TIP3   OH261965   1.773   3.992  15.223 -0.5478  0.9621  0.1186
13517TIP3    H161966   1.804   3.922  15.165  0.6499  2.4731 -1.1284
13517TIP3    H261967   1.837   3.995  15.294  0.0454  1.5257 -0.4296
13518TIP3   OH261968   6.633   3.838  15.427 -1.0629 -0.1614  0.4538
13518TIP3    H161969   6.714   3.787  15.414  0.3546  2.1856 -0.2072
13518TIP3    H261970   6.563   3.779  15.398  0.4695 -1.9530  0.2832
13519TIP3   OH261971   2.938   5.980   0.652 -0.5477 -0.0848 -0.0033
13519TIP3    H161972   2.930   6.059   0.705 -1.3078  0.8205 -1.4363
13519TIP3    H261973   2.913   5.909   0.711  0.2863  0.7100  1.3381
13520TIP3   OH261974   1.493   4.055  12.869 -0.2482  0.1892  0.0654
13520TIP3    H161975   1.411   4.078  12.825 -0.3781  0.3310  0.3754
13520TIP3    H261976   1.522   3.975  12.826 -0.3358  0.3646 -0.3212
13521TIP3   OH261977   4.522   2.531  17.170 -0.0812  0.1584 -0.6432
13521TIP3    H161978   4.433   2.495  17.170  0.8418 -2.2095 -0.9464
13521TIP3    H261979   4.549   2.527  17.262  0.4530 -1.0503 -0.8474
13522TIP3   OH261980   0.131   1.265  16.443 -0.7475  0.0304 -0.3188
13522TIP3    H161981   0.115   1.239  16.534  0.6621  0.2514  0.0070
13522TIP3    H261982   0.045   1.288  16.409 -1.5235 -1.6345  0.4684
13523TIP3   OH261983   4.455   6.167   2.640  0.3125 -0.4867 -0.4596
13523TIP3    H161984   4.487   6.241   2.588 -1.7920  0.2652 -0.7326
13523TIP3    H261985   4.463   6.196   2.731 -0.4373  0.0471 -0.5634
13524TIP3   OH261986   0.711   2.927  12.858 -0.2017  0.2332  0.6358
13524TIP3    H161987   0.805   2.919  12.869 -0.2190  0.3467  0.8719
13524TIP3    H261988   0.694   2.893  12.770  0.1231  0.7154  0.3855
13525TIP3   OH261989   1.708   5.998  10.876 -0.3118 -0.2375  0.5230
13525TIP3    H161990   1.739   6.035  10.793 -2.2259  1.0422  0.3559
13525TIP3    H261991   1.664   5.917  10.851 -0.3591 -0.1645  0.3679
13526TIP3   OH261992   6.631   6.749  13.132  0.2475 -0.5963  0.0360
13526TIP3    H161993   6.707   6.758  13.190 -1.8450 -0.4075  2.8659
13526TIP3    H261994   6.582   6.675  13.168 -1.3024 -0.2450 -1.2815
13527TIP3   OH261995   3.659   1.490   5.448 -0.0402  0.0816 -0.5195
13527TIP3    H161996   3.656   1.397   5.468 -1.2765  0.2075 -0.1308
13527TIP3    H261997   3.752   1.513   5.457  0.0896 -0.8391  0.6021
13528TIP3   OH261998   6.608   0.716  12.091  0.4259  0.2654 -0.1232
13528TIP3    H161999   6.702   0.698  12.087  0.5428 -0.1123  3.1393
13528TIP3    H262000   6.602   0.808  12.118 -0.1826  0.4127 -0.7152
13529TIP3   OH262001   0.653   5.286  15.954  0.2509 -0.1016  0.4587
13529TIP3    H162002   0.643   5.289  15.859  1.3461  1.7787  0.3868
13529TIP3    H262003   0.579   5.337  15.987  0.8805  0.7830  0.5278
13530TIP3   OH262004   0.741   0.246  16.317  0.2585 -0.6799 -0.0786
13530TIP3    H162005   0.724   0.340  16.317 -0.2271 -0.7609  0.4064
13530TIP3    H262006   0.806   0.233  16.248  0.4490  0.0316 -0.0404
13531TIP3   OH262007   5.120   2.039  15.012 -0.4291 -0.0427  0.3487
13531TIP3    H162008   5.100   2.094  15.088 -0.9755 -1.2689  1.0941
13531TIP3    H262009   5.174   2.095  14.956  0.5076  0.6525  1.9214
13532TIP3   OH262010   0.442   2.061   0.236  0.2077  0.1525 -0.3616
13532TIP3    H162011   0.462   1.968   0.249  1.4526  0.5811  0.8244
13532TIP3    H262012   0.347   2.062   0.220  0.0742 -1.2597  0.1966
13533TIP3   OH262013   4.955   1.383   1.569  0.3871  0.3497 -0.0331
13533TIP3    H162014   5.028   1.397   1.629 -1.3892  1.9704  1.8315
13533TIP3    H262015   4.904   1.312   1.609  1.4979 -1.5829 -1.9243
13534TIP3   OH262016   4.270   6.382   1.552  0.1845  0.3980  0.3869
13534TIP3    H162017   4.242   6.309   1.497 -0.5486  0.3060  0.8702
13534TIP3    H262018   4.283   6.343   1.638  1.9881  0.4115  0.1427
13535TIP3   OH262019   5.289   1.660  16.008 -0.2797 -0.1880  0.1618
13535TIP3    H162020   5.297   1.755  15.996 -0.5978  0.0587  1.7166
13535TIP3    H262021   5.372   1.634  16.047 -0.3009 -0.5027 -0.0065
13536TIP3   OH262022   2.071   0.023   1.643  0.3365 -0.0624 -0.4237
13536TIP3    H162023   2.014   0.095   1.614 -0.2901 -0.5644 -0.4330
13536TIP3    H262024   2.145   0.027   1.583  0.0573  0.2504 -0.7558
13537TIP3   OH262025   6.687   4.336   1.308  0.0442  0.4325 -0.2099
13537TIP3    H162026   6.633   4.410   1.282  0.2425  0.2089 -1.2481
13537TIP3    H262027   6.648   4.307   1.391 -0.5022  1.2122 -0.1893
13538TIP3   OH262028   6.669   5.872   4.702  0.6467 -0.0970 -0.1157
13538TIP3    H162029   6.616   5.929   4.646  1.8752 -1.1549 -2.4243
13538TIP3    H262030   6.617   5.860   4.781 -0.0557  3.4797  0.0762
13539TIP3   OH262031   1.329   3.343   6.118 -0.3565 -0.2492  1.0192
13539TIP3    H162032   1.313   3.436   6.133  1.1490  0.2510 -0.4035
13539TIP3    H262033   1.354   3.309   6.204 -1.3224  0.5500  1.6372
13540TIP3   OH262034   4.891   0.919  13.973 -0.3921 -0.1963 -0.3373
13540TIP3    H162035   4.976   0.912  14.017 -0.0227 -1.7605 -1.2278
13540TIP3    H262036   4.827   0.923  14.044  0.3234 -0.7719  0.3573
13541TIP3   OH262037   1.255   6.081  14.720 -0.3322 -0.1791 -0.0004
13541TIP3    H162038   1.188   6.118  14.663 -1.8248 -1.3985  0.9207
13541TIP3    H262039   1.272   5.994  14.683 -0.1466 -0.3398  0.4598
13542TIP3   OH262040   6.633   6.508  16.690  1.0274 -0.2029  0.5738
13542TIP3    H162041   6.705   6.446  16.698  2.2651  1.0770 -0.4954
13542TIP3    H262042   6.589   6.483  16.608  2.7990  1.6214 -0.9613
13543TIP3   OH262043   1.014   4.339   3.066 -0.4367 -0.1498  0.1886
13543TIP3    H162044   0.999   4.256   3.021 -0.5637 -0.9585  1.6868
13543TIP3    H262045   1.109   4.349   3.069 -0.3406 -1.3208  1.8813
13544TIP3   OH262046   0.291   1.217  15.308 -0.3303 -0.0387 -0.1625
13544TIP3    H162047   0.254   1.305  15.315 -1.2948 -0.4906  0.6170
13544TIP3    H262048   0.350   1.210  15.383  0.1661  0.1380 -0.5373
13545TIP3   OH262049   4.430   1.085  10.598 -0.1184  0.4355 -0.3835
13545TIP3    H162050   4.403   1.166  10.556  1.3127  0.0025 -2.1740
13545TIP3    H262051   4.376   1.017  10.556 -1.7350  0.5064  1.5223
13546TIP3   OH262052   5.870   6.024   1.785 -0.0944 -0.3224 -0.6572
13546TIP3    H162053   5.916   5.994   1.706 -1.6037 -2.5518 -0.7352
13546TIP3    H262054   5.780   6.040   1.757 -0.0244  1.4832  0.0617
13547TIP3   OH262055   0.281   6.159  12.682 -0.0728  0.0090 -0.3792
13547TIP3    H162056   0.292   6.254  12.692  2.4032 -0.4498  1.8904
13547TIP3    H262057   0.199   6.140  12.728  1.1749  0.6498  2.2412
13548TIP3   OH262058   4.232   4.788  14.284  0.3481  0.1521  0.8925
13548TIP3    H162059   4.171   4.741  14.340 -0.9722  0.7786 -0.0037
13548TIP3    H262060   4.251   4.727  14.213  0.6579  0.0196  1.0857
13549TIP3   OH262061   0.947   3.927  12.739  0.1170  0.8874 -0.3266
13549TIP3    H162062   0.874   3.985  12.718  0.1002  1.5719  1.5298
13549TIP3    H262063   0.999   3.922  12.658 -1.0593  1.7344 -1.1388
13550TIP3   OH262064   5.159   4.803   0.796 -0.0481  0.3837 -0.1256
13550TIP3    H162065   5.158   4.882   0.849  1.4462 -0.0904  0.6285
13550TIP3    H262066   5.217   4.743   0.843  0.0757 -0.5898 -1.4936
13551TIP3   OH262067   2.289   4.180  13.500  0.0840  0.6884 -0.2218
13551TIP3    H162068   2.337   4.250  13.455 -2.3124  1.0769 -2.2325
13551TIP3    H262069   2.266   4.219  13.585  2.1175  0.9428  0.2536
13552TIP3   OH262070   2.277   2.432   1.695 -0.2081 -0.4914 -0.1116
13552TIP3    H162071   2.319   2.426   1.781 -0.1867  1.2869  0.0310
13552TIP3    H262072   2.348   2.451   1.634 -0.6118  1.5409 -0.0106
13553TIP3   OH262073   1.543   3.447   5.145  0.0630  0.2893  0.7921
13553TIP3    H162074   1.460   3.474   5.186  0.9158  0.8358  2.1757
13553TIP3    H262075   1.602   3.521   5.160  1.0937 -0.5113  0.6675
13554TIP3   OH262076   1.038   3.547   4.812 -0.9163 -0.2671  0.5096
13554TIP3    H162077   1.087   3.571   4.891 -0.0398 -1.3482  0.3126
13554TIP3    H262078   1.079   3.466   4.782 -0.4547  0.7499 -1.7329
13555TIP3   OH262079   3.195   1.485   0.369 -0.3486 -0.1438 -0.0784
13555TIP3    H162080   3.251   1.413   0.342  1.1611  0.9108  0.1855
13555TIP3    H262081   3.118   1.478   0.313  0.7166 -0.7128 -1.5039
13556TIP3   OH262082   5.877   0.197   3.939 -0.1564  0.2034 -0.6203
13556TIP3    H162083   5.857   0.107   3.914 -0.0061 -0.1805  0.6204
13556TIP3    H262084   5.827   0.250   3.877 -0.5223 -0.7327 -1.1366
13557TIP3   OH262085   2.622   4.645  11.733 -0.0263  0.3681 -0.1746
13557TIP3    H162086   2.627   4.576  11.799 -0.8753  0.5283  0.0538
13557TIP3    H262087   2.570   4.607  11.662 -0.6897  0.8484  0.0506
13558TIP3   OH262088   5.015   4.859   1.130 -0.1028  0.2157  0.4689
13558TIP3    H162089   4.974   4.787   1.083  0.8231  0.3854 -0.6078
13558TIP3    H262090   4.983   4.938   1.087  0.3987  0.3881  0.4124
13559TIP3   OH262091   3.893   3.235   5.552  0.0858  0.3392  0.4478
13559TIP3    H162092   3.884   3.297   5.479 -0.2606 -1.4894 -1.0841
13559TIP3    H262093   3.833   3.268   5.619  1.0648  2.5509  0.2915
13560TIP3   OH262094   0.205   3.692  13.121 -0.6227 -0.2702 -0.0508
13560TIP3    H162095   0.230   3.625  13.058 -0.1545  0.1502 -0.3230
13560TIP3    H262096   0.197   3.645  13.204  0.0549 -0.6045 -0.1705
13561TIP3   OH262097   3.435   0.420  11.505 -0.1046 -0.2187 -0.3692
13561TIP3    H162098   3.341   0.425  11.524  0.0743  1.3583  0.1046
13561TIP3    H262099   3.456   0.504  11.465  2.0125  1.3554  3.7310
13562TIP3   OH262100   1.040   2.867  15.976 -0.0753  0.5064  0.7055
13562TIP3    H162101   1.080   2.901  16.056  1.0989  0.3325  0.2065
13562TIP3    H262102   1.060   2.773  15.977 -1.7798  0.1267  1.1926
13563TIP3   OH262103   1.633   1.428   3.567  0.6949 -0.5449 -0.2075
13563TIP3    H162104   1.682   1.354   3.604  0.3852 -0.6104  0.0772
13563TIP3    H262105   1.551   1.429   3.617  0.5146 -0.2810 -0.5115
13564TIP3   OH262106   0.391   3.328   2.746 -0.2576 -0.0648 -0.0711
13564TIP3    H162107   0.423   3.281   2.669  1.4302 -0.4492  0.8268
13564TIP3    H262108   0.400   3.266   2.818 -1.7331  0.3208  0.4655
13565TIP3   OH262109   5.012   5.829  12.953 -0.1419 -0.0391  0.1504
13565TIP3    H162110   4.940   5.810  13.012 -0.0601 -0.5954  0.0758
13565TIP3    H262111   5.088   5.838  13.011 -0.4307  1.4846  0.3212
13566TIP3   OH262112   2.608   4.297  14.487 -0.4962  0.2821  0.0469
13566TIP3    H162113   2.584   4.359  14.557 -0.7117 -1.3599  1.4617
13566TIP3    H262114   2.533   4.298  14.428 -0.7910  0.8480  0.4173
13567TIP3   OH262115   4.485   4.913   0.423 -0.1320 -0.1389 -0.2545
13567TIP3    H162116   4.405   4.879   0.464 -0.2358 -0.5698 -0.8017
13567TIP3    H262117   4.511   4.987   0.478 -1.6698  0.8615 -0.8410
13568TIP3   OH262118   3.088   0.030  13.790  0.5279  0.5850 -0.0978
13568TIP3    H162119   3.061   0.046  13.881 -0.0298 -0.4132 -0.0803
13568TIP3    H262120   3.015   0.061  13.737  0.2092 -0.2097 -0.1368
13569TIP3   OH262121   5.705   4.151  13.616 -0.2544  0.1090  0.3920
13569TIP3    H162122   5.767   4.149  13.543  0.3141  1.5724  0.8178
13569TIP3    H262123   5.742   4.090  13.679  0.8963  1.1171  0.7280
13570TIP3   OH262124   5.715   1.624   3.063 -0.1385  0.1373  0.0035
13570TIP3    H162125   5.710   1.666   3.149  0.5774 -0.5891  0.4002
13570TIP3    H262126   5.645   1.666   3.012 -0.8041  0.3172  1.0503
13571TIP3   OH262127   6.411   6.318   0.443 -0.3363 -0.2671  0.0674
13571TIP3    H162128   6.414   6.400   0.491  0.2435  0.0741 -0.5406
13571TIP3    H262129   6.387   6.343   0.354 -1.1977 -0.8713  0.1155
13572TIP3   OH262130   5.827   4.323   1.587 -0.1473 -0.6891  0.3374
13572TIP3    H162131   5.854   4.272   1.510  0.7649  1.6822 -0.9533
13572TIP3    H262132   5.732   4.329   1.580 -0.0302 -0.1064 -0.8697
13573TIP3   OH262133   2.149   1.372  16.670 -0.6816 -0.4451  0.3624
13573TIP3    H162134   2.233   1.340  16.636 -0.5028 -0.8393  1.1618
13573TIP3    H262135   2.107   1.412  16.594  1.0542  1.4967  0.3862
13574TIP3   OH262136   5.619   6.613  11.743 -0.8220  0.1961 -0.0768
13574TIP3    H162137   5.531   6.650  11.749 -1.6064 -1.4311 -1.2531
13574TIP3    H262138   5.627   6.582  11.653  1.7794  2.2711 -0.6143
13575TIP3   OH262139   4.901   4.350  14.987 -0.6591  0.2993 -0.0187
13575TIP3    H162140   4.868   4.303  15.064 -1.6991  0.2426 -0.4960
13575TIP3    H262141   4.984   4.305  14.967 -0.0133  0.7646  1.4725
13576TIP3   OH262142   1.170   2.153   5.172 -0.1108  0.4350 -0.6007
13576TIP3    H162143   1.156   2.130   5.263 -1.2745 -1.1363 -1.1577
13576TIP3    H262144   1.162   2.248   5.170  2.6504  0.7668  1.3719
13577TIP3   OH262145   0.425   2.752  16.146  0.3062 -0.8789 -0.4679
13577TIP3    H162146   0.342   2.737  16.101 -0.0955 -1.3978  0.4237
13577TIP3    H262147   0.438   2.847  16.143 -1.1264 -0.6229  0.7732
13578TIP3   OH262148   2.640   3.787   4.923  0.0539 -0.1221  0.7396
13578TIP3    H162149   2.608   3.851   4.986 -1.2454  0.0844 -0.1143
13578TIP3    H262150   2.593   3.806   4.842  1.4894 -0.5708 -0.2271
13579TIP3   OH262151   0.114   5.767   5.565  0.3103 -0.5437 -0.4176
13579TIP3    H162152   0.053   5.777   5.492  0.7946 -0.6806 -0.8460
13579TIP3    H262153   0.199   5.750   5.523  1.3595  3.1462  0.0792
13580TIP3   OH262154   4.923   0.038  14.077  0.3957  0.5992 -0.1039
13580TIP3    H162155   4.971   0.115  14.109 -0.2181  1.0592 -0.2660
13580TIP3    H262156   4.977  -0.037  14.102  1.7081  1.1591 -1.2101
13581TIP3   OH262157   4.092   6.382   0.553  0.4471 -0.6010  0.1093
13581TIP3    H162158   4.016   6.328   0.575  1.6288 -2.3145  0.0878
13581TIP3    H262159   4.157   6.362   0.620  0.6464  1.4192  0.5706
13582TIP3   OH262160   1.975   2.018   2.849  0.2431  0.0540 -0.3888
13582TIP3    H162161   2.029   1.995   2.924  0.0727 -0.3137 -0.3787
13582TIP3    H262162   2.004   2.106   2.824  0.9864 -0.2205 -0.5067
13583TIP3   OH262163   6.650   4.641   4.726 -0.0625 -0.4419 -0.2254
13583TIP3    H162164   6.604   4.567   4.767  1.0633 -0.5199  0.9009
13583TIP3    H262165   6.651   4.709   4.793  1.8261 -0.5873 -0.0996
13584TIP3   OH262166   3.740   0.575   3.899 -0.0963  0.1580  0.2045
13584TIP3    H162167   3.681   0.599   3.970 -1.3763 -0.4809 -0.6168
13584TIP3    H262168   3.767   0.485   3.920  0.2060  0.2759  0.3254
13585TIP3   OH262169   5.880   4.867  13.536  0.3751 -0.4367 -0.5723
13585TIP3    H162170   5.866   4.851  13.443  0.1306  2.2961 -1.0395
13585TIP3    H262171   5.891   4.962  13.543  2.4946 -0.7953  1.9067
13586TIP3   OH262172   3.705   4.104   2.310  0.1256 -0.0219  0.2325
13586TIP3    H162173   3.629   4.162   2.313  0.3467  0.2628  0.3963
13586TIP3    H262174   3.673   4.024   2.270 -0.2272  0.1502  0.1707
13587TIP3   OH262175   2.079   2.573   2.993  0.8275  0.5181  0.7212
13587TIP3    H162176   2.093   2.646   3.054  1.1504  2.0275 -1.1161
13587TIP3    H262177   1.985   2.572   2.979  0.7133 -0.0423  1.4671
13588TIP3   OH262178   6.014   2.385  15.487  0.2806 -0.2979  0.2866
13588TIP3    H162179   6.046   2.395  15.397 -1.2747 -1.3955 -0.4054
13588TIP3    H262180   5.921   2.406  15.482  0.4477  0.9819  1.9239
13589TIP3   OH262181   4.005   1.043  14.695  0.3976  0.0839  0.0340
13589TIP3    H162182   4.008   1.135  14.721  0.8785 -0.2148  1.0676
13589TIP3    H262183   3.911   1.024  14.685  0.2862  0.6044  0.1045
13590TIP3   OH262184   5.998   0.409   1.729  0.5367  0.4237  0.3505
13590TIP3    H162185   6.087   0.410   1.695  0.6417 -1.6027  0.5098
13590TIP3    H262186   5.946   0.370   1.659 -0.1293  0.9670  0.5317
13591TIP3   OH262187   2.106   0.332  16.103 -1.0889  0.4269  0.1480
13591TIP3    H162188   2.120   0.237  16.112 -0.5188  0.6932  2.3323
13591TIP3    H262189   2.016   0.339  16.069 -0.4442 -0.9358 -1.9400
13592TIP3   OH262190   6.128   6.220  12.727  0.4504  0.2057 -0.5832
13592TIP3    H162191   6.094   6.144  12.775  1.9688 -1.2226 -1.7225
13592TIP3    H262192   6.156   6.281  12.795  0.0116 -0.6046  0.3386
13593TIP3   OH262193   0.931   1.324  13.545  0.1230  0.6146 -0.0012
13593TIP3    H162194   0.889   1.266  13.608  0.2683  0.3618 -0.1384
13593TIP3    H262195   1.022   1.293  13.541  0.7211  2.0537  1.4036
13594TIP3   OH262196   2.556   0.148   2.601 -0.0622 -0.0032 -0.5973
13594TIP3    H162197   2.551   0.100   2.684 -0.0052 -0.0649 -0.6295
13594TIP3    H262198   2.640   0.121   2.564  0.6445  1.2378  0.0767
13595TIP3   OH262199   4.374   3.312   2.972  0.3593  0.1870  0.1909
13595TIP3    H162200   4.301   3.334   2.914 -0.2133 -1.1302  0.4157
13595TIP3    H262201   4.376   3.384   3.035  0.2960  1.0687 -0.7895
13596TIP3   OH262202   3.700   5.885  16.870  0.0316  0.4516  0.4183
13596TIP3    H162203   3.765   5.851  16.931 -0.0156 -0.1676  0.1236
13596TIP3    H262204   3.736   5.969  16.841  0.7013  0.0981  0.2337
13597TIP3   OH262205   4.981   6.541  11.457 -0.4502  0.1703 -0.1379
13597TIP3    H162206   4.961   6.505  11.371  0.5415 -4.7518  1.5097
13597TIP3    H262207   5.076   6.548  11.458 -0.4818  0.5149  0.4559
13598TIP3   OH262208   5.314   2.341   2.363  0.9285 -0.2293  0.2612
13598TIP3    H162209   5.262   2.291   2.300  0.9406 -0.6287  0.5699
13598TIP3    H262210   5.249   2.382   2.420  0.8722  1.0458 -0.6964
13599TIP3   OH262211   4.610   3.717  11.151  0.5438 -0.1283 -0.4521
13599TIP3    H162212   4.665   3.749  11.079 -0.9841  0.1854 -1.4985
13599TIP3    H262213   4.538   3.671  11.107  0.3177 -1.1081  0.9207
13600TIP3   OH262214   2.456   5.542  15.279 -0.5439 -0.0385  0.6298
13600TIP3    H162215   2.536   5.490  15.269  1.2365  2.7074  0.2395
13600TIP3    H262216   2.479   5.610  15.342 -2.2974  1.3828 -0.2153
13601TIP3   OH262217   4.047   0.264   3.805  0.4850  0.4516  0.2830
13601TIP3    H162218   4.117   0.213   3.847 -0.1303  0.3381  1.1882
13601TIP3    H262219   3.983   0.278   3.875 -1.1194 -0.7296 -0.9163
13602TIP3   OH262220   0.899   2.437   0.898  0.1634 -0.1922 -0.2801
13602TIP3    H162221   0.918   2.442   0.805  0.0009 -1.9343 -0.4222
13602TIP3    H262222   0.960   2.372   0.932  0.6049  0.8356  0.9514
13603TIP3   OH262223   5.159   1.134   3.296 -0.1226  0.0395  0.3917
13603TIP3    H162224   5.074   1.134   3.340  0.1650  1.5163  0.9827
13603TIP3    H262225   5.137   1.152   3.204 -0.5958 -1.5655  0.1713
13604TIP3   OH262226   4.590   6.184  15.505  0.3277  0.4591 -0.2661
13604TIP3    H162227   4.517   6.246  15.504  1.1594  1.4565 -0.0741
13604TIP3    H262228   4.549   6.099  15.519 -0.6566  1.2120  1.5663
13605TIP3   OH262229   5.272   2.971  16.781  0.1244 -0.0852 -0.2041
13605TIP3    H162230   5.326   3.048  16.796 -0.5351  0.6584 -1.5950
13605TIP3    H262231   5.201   3.001  16.724 -1.1479 -1.2977  0.7084
13606TIP3   OH262232   1.067   2.513   0.333 -0.3097  0.1146 -0.4040
13606TIP3    H162233   1.040   2.517   0.425 -1.2817 -1.2740 -0.6199
13606TIP3    H262234   0.986   2.525   0.284  0.0617 -0.1615 -1.0803
13607TIP3   OH262235   3.338   6.673  13.920 -0.7371  0.1010 -0.1836
13607TIP3    H162236   3.318   6.749  13.865  0.7152 -0.2708 -1.2680
13607TIP3    H262237   3.428   6.650  13.897 -0.0777 -0.0256  2.4519
13608TIP3   OH262238   3.064   1.216   5.398  0.4355 -0.1585  0.6923
13608TIP3    H162239   3.024   1.165   5.467 -0.9140  1.8640  1.4605
13608TIP3    H262240   3.137   1.262   5.441  1.5446 -1.2966  0.0491
13609TIP3   OH262241   3.839   1.806   0.519 -0.9150  0.5495 -0.3925
13609TIP3    H162242   3.843   1.889   0.566 -0.6783 -0.4355  1.3770
13609TIP3    H262243   3.905   1.751   0.562  1.1016  0.3991 -3.4921
13610TIP3   OH262244   1.203   0.411   0.770  0.0751  0.8125  0.1870
13610TIP3    H162245   1.113   0.418   0.802  0.4157 -0.3438  1.4466
13610TIP3    H262246   1.206   0.326   0.726  0.8465  0.3239  1.1629
13611TIP3   OH262247   0.576   2.218   3.203 -0.0876 -0.0984  0.2875
13611TIP3    H162248   0.545   2.161   3.132 -0.7026  2.4024 -1.4982
13611TIP3    H262249   0.561   2.307   3.171 -0.9663  1.1070  3.8282
13612TIP3   OH262250   3.579   4.284  10.415  0.1430 -0.0738  0.4182
13612TIP3    H162251   3.543   4.196  10.406  3.0907 -1.1592 -1.4668
13612TIP3    H262252   3.643   4.276  10.486  1.3657  0.2128 -0.6455
13613TIP3   OH262253   0.210   5.323   2.712  0.1011 -0.3438 -0.0721
13613TIP3    H162254   0.182   5.315   2.621  2.2029  1.0579 -0.8870
13613TIP3    H262255   0.184   5.412   2.737  1.4773  0.0605 -0.0289
13614TIP3   OH262256   3.112   6.216   0.846  0.3865  0.0114  0.5842
13614TIP3    H162257   3.125   6.306   0.875  1.0138 -0.1258  0.7385
13614TIP3    H262258   3.165   6.209   0.766 -1.0193  0.2775 -0.3970
13615TIP3   OH262259   0.736   4.233  11.819  0.6285 -0.4390  0.0078
13615TIP3    H162260   0.828   4.258  11.806  0.7903 -1.7275 -1.5208
13615TIP3    H262261   0.707   4.202  11.733 -0.7063 -1.7388  0.8960
13616TIP3   OH262262   0.999   6.744   3.550 -0.2966  0.1635  0.1127
13616TIP3    H162263   1.048   6.717   3.472  0.7495 -0.2456  0.9053
13616TIP3    H262264   0.950   6.665   3.576 -1.2158  0.5063 -0.5445
13617TIP3   OH262265   1.123   0.314   4.679  0.1769  0.4033  0.0263
13617TIP3    H162266   1.177   0.373   4.626  0.0348  0.7106  0.2284
13617TIP3    H262267   1.144   0.336   4.769 -0.5598  0.7786  0.1128
13618TIP3   OH262268   3.514   3.393  11.452 -0.0801  0.4428  0.0858
13618TIP3    H162269   3.512   3.302  11.423  0.7173  0.3265  0.3870
13618TIP3    H262270   3.449   3.437  11.398 -0.4091 -0.2882 -0.1205
13619TIP3   OH262271   6.421   6.483  16.248 -0.0504  0.4053 -0.0520
13619TIP3    H162272   6.502   6.528  16.224 -0.2569  0.1056 -1.3377
13619TIP3    H262273   6.372   6.548  16.298  0.8091  0.7256  0.3792
13620TIP3   OH262274   3.141   4.386   6.525 -0.0379 -0.0201  0.5445
13620TIP3    H162275   3.052   4.353   6.541 -0.1859 -0.2458 -0.7288
13620TIP3    H262276   3.134   4.481   6.534 -0.4901 -0.0074  0.0271
13621TIP3   OH262277   1.877   6.654   5.825  0.4268 -0.2724 -0.1055
13621TIP3    H162278   1.950   6.633   5.883 -1.2608 -4.4820  0.7174
13621TIP3    H262279   1.812   6.694   5.882  0.0297 -1.4725  0.3062
13622TIP3   OH262280   1.791   0.075   4.942  0.4672 -0.0688  0.2537
13622TIP3    H162281   1.742  -0.007   4.950 -1.1342  0.7817 -0.6708
13622TIP3    H262282   1.841   0.066   4.861 -0.7954  0.4167 -0.5925
13623TIP3   OH262283   6.016   1.781  11.636 -0.7299 -0.4034 -0.1430
13623TIP3    H162284   5.930   1.818  11.614 -0.4625 -0.3888 -1.1543
13623TIP3    H262285   6.016   1.694  11.597  0.4616  0.3374 -1.8399
13624TIP3   OH262286   5.298   1.293  15.773  0.1006  0.9758 -0.0009
13624TIP3    H162287   5.288   1.266  15.864 -0.4081  2.6895  0.4684
13624TIP3    H262288   5.328   1.384  15.778 -1.8759  1.7623 -1.5351
13625TIP3   OH262289   3.115   2.311   6.782 -0.5635 -0.1394 -0.1598
13625TIP3    H162290   3.141   2.329   6.692  0.9654  2.0817  0.6835
13625TIP3    H262291   3.019   2.305   6.778 -0.5269  0.0868 -1.8945
13626TIP3   OH262292   0.763   6.537   0.161 -0.2883  0.5838  0.3995
13626TIP3    H162293   0.689   6.581   0.120  0.7369  0.9766 -1.0750
13626TIP3    H262294   0.823   6.518   0.089  1.2115  0.5840  1.6146
13627TIP3   OH262295   0.269   3.918   1.604  0.4902 -0.1438 -0.5196
13627TIP3    H162296   0.348   3.962   1.636  0.4714  0.3720 -1.1602
13627TIP3    H262297   0.266   3.941   1.511 -0.1918 -0.5019 -0.5851
13628TIP3   OH262298   4.513   4.821  16.394 -0.0524  0.2101  0.1968
13628TIP3    H162299   4.430   4.779  16.373  0.9305 -1.5140 -0.3020
13628TIP3    H262300   4.551   4.844  16.309  0.1481  0.6824  0.4088
13629TIP3   OH262301   1.703   3.992   3.390  0.1179  0.3297  0.9738
13629TIP3    H162302   1.634   4.001   3.456 -0.7367  3.1918 -0.2325
13629TIP3    H262303   1.667   3.932   3.325 -0.6413  0.6444  1.0971
13630TIP3   OH262304   1.026   5.293  12.563  0.1876 -0.1353  0.1050
13630TIP3    H162305   1.007   5.255  12.477  1.9555 -0.8136 -0.0121
13630TIP3    H262306   1.108   5.342  12.550 -0.1222  0.6745  1.1351
13631TIP3   OH262307   6.235   0.501   1.626  0.3571 -0.0734  0.2449
13631TIP3    H162308   6.262   0.592   1.626 -1.5826  0.5114 -0.5391
13631TIP3    H262309   6.276   0.464   1.547 -1.0091  0.7873 -0.8925
13632TIP3   OH262310   2.484   1.796  14.206  0.4292  0.6279 -0.1310
13632TIP3    H162311   2.499   1.702  14.198  1.0263  0.7930 -1.1276
13632TIP3    H262312   2.403   1.812  14.156  1.2929  0.8868 -1.4933
13633TIP3   OH262313   2.716   3.886  14.968  0.6970  0.2753  0.3241
13633TIP3    H162314   2.648   3.840  14.918 -0.6130  0.1120  2.1948
13633TIP3    H262315   2.770   3.817  15.005  1.0564  0.3609 -0.0442
13634TIP3   OH262316   5.394   6.042   6.606 -0.1312  0.1460 -0.1565
13634TIP3    H162317   5.419   6.121   6.559 -0.9684  0.0435 -0.7896
13634TIP3    H262318   5.474   6.012   6.649 -0.1505  2.2219  1.3941
13635TIP3   OH262319   5.047   3.290  15.206 -0.0369  0.5569 -0.5905
13635TIP3    H162320   5.084   3.242  15.132  0.1631 -0.5479  0.2112
13635TIP3    H262321   5.098   3.260  15.282 -0.4475  1.4392  0.0455
13636TIP3   OH262322   6.636   0.581  13.347  0.2520  0.1801  0.2586
13636TIP3    H162323   6.635   0.527  13.426 -1.6641  0.5775  0.5336
13636TIP3    H262324   6.689   0.657  13.370 -0.6689  0.5074  1.3226
13637TIP3   OH262325   4.095   1.390   2.525 -0.0892 -0.2088 -0.4078
13637TIP3    H162326   4.177   1.426   2.490  0.1166 -0.6982 -0.4457
13637TIP3    H262327   4.036   1.388   2.451 -0.3077  0.6474 -0.2569
13638TIP3   OH262328   1.368   0.293   0.202 -0.4119 -0.3730  0.0312
13638TIP3    H162329   1.342   0.209   0.165 -2.4368  0.0223  0.5189
13638TIP3    H262330   1.329   0.294   0.289  0.6341  0.5655  0.5037
13639TIP3   OH262331   5.778   2.816  14.816  0.1463 -0.0710 -0.1204
13639TIP3    H162332   5.840   2.794  14.747  1.8307  0.4088  1.1849
13639TIP3    H262333   5.717   2.742  14.819  1.1732 -0.9590 -0.8453
13640TIP3   OH262334   4.822   1.546  16.760 -0.5243  0.2827  0.2988
13640TIP3    H162335   4.799   1.639  16.757 -0.2537  0.3212 -0.9726
13640TIP3    H262336   4.738   1.501  16.748 -0.4576  0.3886 -0.6405
13641TIP3   OH262337   6.596   4.200  11.133  0.1748  0.3041 -0.4139
13641TIP3    H162338   6.653   4.245  11.195  0.2522  0.8775 -0.8871
13641TIP3    H262339   6.604   4.252  11.052 -2.4382  1.5100  0.0406
13642TIP3   OH262340   2.714   4.476  13.598  0.6209 -0.2019 -0.0606
13642TIP3    H162341   2.735   4.555  13.647 -0.3224 -0.5171  0.8777
13642TIP3    H262342   2.697   4.506  13.509  0.2166  0.6683  0.3012
13643TIP3   OH262343   6.442   3.672   4.469  0.5500  0.7072 -0.7241
13643TIP3    H162344   6.470   3.754   4.510  0.0606  0.4769  0.0859
13643TIP3    H262345   6.377   3.636   4.530 -0.1218  0.3192 -1.6639
13644TIP3   OH262346   0.699   5.290   2.713 -0.1501 -0.1817  0.0155
13644TIP3    H162347   0.676   5.382   2.727 -0.0606  0.2335 -2.2388
13644TIP3    H262348   0.618   5.242   2.730  0.3357  0.0417  3.3125
13645TIP3   OH262349   3.624   0.286  12.495  0.1631 -0.1195  0.4077
13645TIP3    H162350   3.557   0.227  12.460 -0.7970  0.4955  1.1572
13645TIP3    H262351   3.656   0.242  12.573 -0.3811  0.2220  0.8323
13646TIP3   OH262352   3.475   2.988   5.650 -0.5872 -0.0341 -0.4226
13646TIP3    H162353   3.507   3.078   5.650 -0.2426 -0.1563  0.1626
13646TIP3    H262354   3.382   2.996   5.672 -0.3698  0.1125  0.4432
13647TIP3   OH262355   1.284   0.297   2.000 -0.4043 -0.1233  0.2693
13647TIP3    H162356   1.360   0.354   1.986 -1.5912  2.1298  2.5675
13647TIP3    H262357   1.291   0.231   1.932  1.1365  2.6574 -2.3887
13648TIP3   OH262358   1.978   3.887   3.524  0.6455  0.1943  0.6217
13648TIP3    H162359   1.917   3.898   3.450  0.6554 -0.8163  0.4653
13648TIP3    H262360   2.048   3.949   3.505  0.5818  0.0392 -0.1582
13649TIP3   OH262361   5.148   6.770   3.293 -0.3988  0.0964  0.4095
13649TIP3    H162362   5.194   6.688   3.308 -1.1155 -0.8409 -2.1541
13649TIP3    H262363   5.187   6.805   3.213 -1.8301  0.9338  0.0501
13650TIP3   OH262364   1.406   3.891   1.128  0.6825 -0.0597 -0.5806
13650TIP3    H162365   1.369   3.804   1.112  0.4363  0.0507 -0.6244
13650TIP3    H262366   1.415   3.896   1.223 -2.1916  1.0078 -0.2965
13651TIP3   OH262367   6.392   3.953   0.871  0.1327  0.3964 -0.3426
13651TIP3    H162368   6.420   4.012   0.802 -0.9098  1.7681  0.3859
13651TIP3    H262369   6.298   3.971   0.882  0.2708  0.1689  1.3782
13652TIP3   OH262370   2.593   1.265  15.030 -0.1447  0.3485 -0.4225
13652TIP3    H162371   2.542   1.184  15.032 -0.2966  0.4534  2.2277
13652TIP3    H262372   2.540   1.327  15.081  1.1438  1.3631 -0.3059
13653TIP3   OH262373   5.980   3.415  14.513  0.1873  0.3416  0.2339
13653TIP3    H162374   6.033   3.408  14.592  0.2373 -0.8548  0.1094
13653TIP3    H262375   5.914   3.346  14.522  1.0625 -0.7553 -1.3919
13654TIP3   OH262376   6.399   4.332  15.145 -0.5446  0.1029  0.1719
13654TIP3    H162377   6.327   4.330  15.082 -0.1993  1.4362 -0.2852
13654TIP3    H262378   6.454   4.405  15.116  1.5908 -1.5721 -0.1424
13655TIP3   OH262379   5.366   3.340   5.787 -0.4417 -0.4997 -0.0283
13655TIP3    H162380   5.272   3.354   5.800 -0.3640 -1.9891  2.4414
13655TIP3    H262381   5.408   3.409   5.838 -0.1960 -1.5160  1.1726
13656TIP3   OH262382   4.292   1.911   6.619  0.0870  0.0774 -0.2185
13656TIP3    H162383   4.359   1.844   6.606  1.8483  2.0360 -1.6242
13656TIP3    H262384   4.316   1.953   6.702 -0.7635 -0.7283  0.4430
13657TIP3   OH262385   6.109   2.542  12.296  0.5117  0.3141 -0.6731
13657TIP3    H162386   6.018   2.520  12.276  0.5193  0.3531 -0.7508
13657TIP3    H262387   6.124   2.625  12.251  0.3394  0.7332  0.0391
13658TIP3   OH262388   2.109   4.464  12.285 -0.5111 -0.1477 -0.5167
13658TIP3    H162389   2.096   4.547  12.331 -0.4590 -0.3381 -0.1531
13658TIP3    H262390   2.151   4.407  12.350 -2.3197 -1.0677 -0.1222
13659TIP3   OH262391   0.380   6.383  11.607 -0.1629  0.4261 -0.3278
13659TIP3    H162392   0.367   6.306  11.551  0.7076 -0.2309  0.3637
13659TIP3    H262393   0.401   6.454  11.547  1.1053 -0.3548 -0.8259
13660TIP3   OH262394   0.898   0.438   0.519 -0.1138 -0.3576 -0.0961
13660TIP3    H162395   0.885   0.459   0.611  0.4659  0.0431 -0.1067
13660TIP3    H262396   0.906   0.523   0.475 -0.3578 -0.5440 -0.5159
13661TIP3   OH262397   4.404   1.945   5.160 -0.1947 -0.1749  0.3576
13661TIP3    H162398   4.321   1.986   5.185  0.6961  1.5124  0.6410
13661TIP3    H262399   4.465   1.970   5.229  0.9020 -0.2210 -0.5782
13662TIP3   OH262400   6.785   6.767   0.478 -0.0661  0.0700 -0.0268
13662TIP3    H162401   6.737   6.758   0.396  0.9239  2.5096 -0.8968
13662TIP3    H262402   6.870   6.725   0.462 -0.8501 -1.8722  0.6677
13663TIP3   OH262403   0.476   1.004  14.218 -0.0242  0.1018 -0.1734
13663TIP3    H162404   0.554   0.973  14.173 -0.3230  0.2087 -0.7698
13663TIP3    H262405   0.494   1.096  14.237  0.5760 -0.2425  0.9717
13664TIP3   OH262406   3.954   0.880  11.302  0.0581  0.1950 -0.2863
13664TIP3    H162407   3.927   0.937  11.374  1.2888  0.3931  0.0322
13664TIP3    H262408   3.875   0.870  11.248 -0.6606  0.6821  0.6612
13665TIP3   OH262409   0.634   2.343   2.346  0.1611  0.1368 -0.2956
13665TIP3    H162410   0.643   2.438   2.350 -0.5036  0.2272 -0.9389
13665TIP3    H262411   0.553   2.328   2.297  0.0493 -0.7549  0.1548
13666TIP3   OH262412   6.289   2.618  15.897  0.3146  0.6153  0.4729
13666TIP3    H162413   6.230   2.597  15.969 -0.6461  0.6186 -0.2982
13666TIP3    H262414   6.266   2.555  15.828  1.0664  0.7522  0.0959
13667TIP3   OH262415   4.446   1.244   3.926  0.2462  0.5115 -0.0843
13667TIP3    H162416   4.372   1.184   3.935 -0.1646  0.4483 -3.4821
13667TIP3    H262417   4.406   1.331   3.924  0.4374  0.6012  0.0067
13668TIP3   OH262418   6.257   1.436  16.842 -0.5044  0.2595 -0.2053
13668TIP3    H162419   6.194   1.415  16.773  0.9332 -1.8793 -0.9210
13668TIP3    H262420   6.240   1.370  16.910 -1.7012  2.1558  1.4075
13669TIP3   OH262421   4.859   1.830   3.338  0.4731 -0.3516  0.0314
13669TIP3    H162422   4.887   1.901   3.396 -0.9543  0.6678 -0.4665
13669TIP3    H262423   4.808   1.772   3.395  1.3796 -0.8226  0.3738
13670TIP3   OH262424   0.214   3.613  12.585  0.2976  0.5647 -0.0295
13670TIP3    H162425   0.201   3.612  12.490 -1.3230  0.8946  0.1750
13670TIP3    H262426   0.131   3.646  12.620  1.2120  1.3257  1.4532
13671TIP3   OH262427   0.519   6.673   5.089 -0.0244  0.0501 -0.2667
13671TIP3    H162428   0.549   6.617   5.018  0.5970 -0.7760  0.6189
13671TIP3    H262429   0.597   6.686   5.144 -0.9934 -1.1551  1.4469
13672TIP3   OH262430   6.148   5.898  14.144  0.2979 -0.1768  0.0242
13672TIP3    H162431   6.238   5.930  14.142  0.4685 -0.6704 -0.3909
13672TIP3    H262432   6.133   5.874  14.236  1.3766 -2.2488 -0.2939
13673TIP3   OH262433   5.063   0.966  13.588 -0.0883 -0.0226 -0.4576
13673TIP3    H162434   5.094   0.977  13.498 -0.6423  0.5309 -0.5803
13673TIP3    H262435   5.058   1.055  13.623  1.1574 -0.3089  0.4695
13674TIP3   OH262436   1.552   4.191  11.854  0.2124 -0.0360  0.6067
13674TIP3    H162437   1.552   4.286  11.871 -0.1747  0.3773 -1.5961
13674TIP3    H262438   1.489   4.156  11.916  0.2704  1.1589  1.3667
13675TIP3   OH262439   5.579   1.513  16.018  0.2829 -0.3450  0.6140
13675TIP3    H162440   5.573   1.502  16.113 -2.4295  0.4291  0.5711
13675TIP3    H262441   5.556   1.427  15.982 -1.1961  0.0308  0.6327
13676TIP3   OH262442   1.555   3.341  13.823  0.5457 -0.5160 -0.6881
13676TIP3    H162443   1.621   3.278  13.851  0.4513  0.1476  1.0482
13676TIP3    H262444   1.590   3.426  13.850  0.1678  0.0868 -2.0490
13677TIP3   OH262445   0.141   5.892  12.691 -0.3538 -0.3628 -0.0808
13677TIP3    H162446   0.201   5.839  12.742 -1.4288 -2.4448 -0.9126
13677TIP3    H262447   0.154   5.864  12.601 -0.6030  1.1492 -0.6120
13678TIP3   OH262448   1.523   5.877  15.968  0.4074  0.6494  0.2899
13678TIP3    H162449   1.548   5.955  16.018  1.4963 -0.1883  1.0857
13678TIP3    H262450   1.428   5.871  15.978  0.2512  2.1892 -0.2547
13679TIP3   OH262451   5.155   5.085   2.136 -0.3922 -0.1720  0.1143
13679TIP3    H162452   5.235   5.137   2.138 -0.1702 -0.4624 -0.6536
13679TIP3    H262453   5.136   5.065   2.227  0.8908 -0.8193  0.2419
13680TIP3   OH262454   2.881   3.653  14.360  1.0097  0.0552  0.5678
13680TIP3    H162455   2.829   3.684  14.434  0.4976  0.0329  0.2176
13680TIP3    H262456   2.921   3.732  14.324 -1.9384  0.6511 -1.5981
13681TIP3   OH262457   4.406   0.932  13.154 -0.1687  0.5093 -0.0435
13681TIP3    H162458   4.360   0.966  13.230 -1.7597 -2.4040  0.4031
13681TIP3    H262459   4.490   0.901  13.187 -0.3645  0.3685  0.3219
13682TIP3   OH262460   4.996   5.265  12.892  0.1619  0.1356  0.1237
13682TIP3    H162461   4.911   5.241  12.856  0.3737  0.3909 -0.5561
13682TIP3    H262462   5.027   5.337  12.836  1.0873 -0.3489 -0.0052
13683TIP3   OH262463   5.161   3.249   1.418  0.2813 -0.3326  0.1379
13683TIP3    H162464   5.110   3.169   1.428 -1.4787  0.6769 -0.3903
13683TIP3    H262465   5.116   3.298   1.349  1.3996  1.0447  0.3480
13684TIP3   OH262466   4.798   0.922   0.421 -0.2620  0.1629 -0.0170
13684TIP3    H162467   4.892   0.936   0.425 -0.4001  0.8873  0.9071
13684TIP3    H262468   4.768   0.984   0.355 -0.3480  1.4534  1.1992
13685TIP3   OH262469   5.112   1.856  16.513 -0.0138 -0.0344 -0.0631
13685TIP3    H162470   5.075   1.794  16.576 -0.3968  0.6981  0.4384
13685TIP3    H262471   5.196   1.881  16.552 -0.5597  0.9409  0.4959
13686TIP3   OH262472   5.009   1.943  12.440 -0.1548  0.3408  0.4043
13686TIP3    H162473   4.950   1.991  12.499 -0.0942 -0.0220  0.7575
13686TIP3    H262474   5.086   1.924  12.493  0.6602  1.5678 -0.3014
13687TIP3   OH262475   5.816   2.320  11.522 -0.0470  0.7383 -0.2261
13687TIP3    H162476   5.732   2.309  11.566 -0.7497  3.4293 -0.7865
13687TIP3    H262477   5.864   2.381  11.577  1.6988 -1.0273  0.2513
13688TIP3   OH262478   2.264   2.491   4.078  0.3486  0.0119 -0.5564
13688TIP3    H162479   2.269   2.586   4.085 -0.2668 -0.0243  0.5268
13688TIP3    H262480   2.348   2.465   4.040 -0.2464  1.1377 -2.6695
13689TIP3   OH262481   5.107   0.238  12.710  0.0198  0.0199 -0.1335
13689TIP3    H162482   5.156   0.225  12.629 -1.2999  0.1374 -0.9637
13689TIP3    H262483   5.024   0.194  12.695 -0.8882  1.4712  0.5229
13690TIP3   OH262484   5.795   4.384   0.915 -0.1386  0.3515  0.1076
13690TIP3    H162485   5.756   4.307   0.875  1.6952 -1.4191  1.6071
13690TIP3    H262486   5.872   4.404   0.861 -1.0963  1.7031 -0.7967
13691TIP3   OH262487   3.692   5.683  11.971  0.3112 -0.7448 -0.2719
13691TIP3    H162488   3.688   5.712  11.880 -0.3618  1.2398  0.3467
13691TIP3    H262489   3.680   5.589  11.967 -2.6387 -0.3621 -2.0389
13692TIP3   OH262490   2.163   3.778   5.351  0.4074 -1.0165 -0.0281
13692TIP3    H162491   2.111   3.715   5.300 -0.8223 -0.6338  0.7584
13692TIP3    H262492   2.117   3.786   5.434  1.2321  0.0175  0.3367
13693TIP3   OH262493   3.175   4.328   4.495  0.3556 -0.4384 -0.1364
13693TIP3    H162494   3.251   4.271   4.488 -0.9502 -2.0984 -1.1302
13693TIP3    H262495   3.102   4.270   4.517 -1.4210  0.4514 -3.2289
13694TIP3   OH262496   1.474   3.394  14.510 -0.0767 -0.6060 -0.4571
13694TIP3    H162497   1.542   3.430  14.454 -1.2248  0.3589 -1.2636
13694TIP3    H262498   1.469   3.301  14.486 -0.9351 -0.0951 -2.3837
13695TIP3   OH262499   2.523   5.787  13.459 -0.6414 -0.0574  0.1733
13695TIP3    H162500   2.470   5.813  13.383 -0.9201 -0.7610  0.1200
13695TIP3    H262501   2.512   5.692  13.464  1.1692 -0.3003 -0.2372
13696TIP3   OH262502   2.375   0.898  13.657  0.1519 -0.5126  0.8571
13696TIP3    H162503   2.365   0.814  13.703  1.7443 -1.2213 -0.0401
13696TIP3    H262504   2.310   0.895  13.587 -0.0695 -0.8384  1.0756
13697TIP3   OH262505   6.219   3.388  15.000  0.4188  0.0529  0.4648
13697TIP3    H162506   6.211   3.293  15.009 -0.7211  0.0384 -0.5601
13697TIP3    H262507   6.241   3.419  15.088 -0.6465 -1.0187  1.1097
13698TIP3   OH262508   6.568   6.044  11.642  0.6116 -0.4469  0.0498
13698TIP3    H162509   6.566   6.139  11.629 -0.0739 -0.5181 -0.3462
13698TIP3    H262510   6.647   6.015  11.595  1.1646 -0.0009  0.6888
13699TIP3   OH262511   4.417   6.341   5.339 -0.5447  0.0011  0.8141
13699TIP3    H162512   4.416   6.247   5.360 -1.9037 -0.0344  0.6398
13699TIP3    H262513   4.405   6.344   5.244  1.4450  0.2926  0.5637
13700TIP3   OH262514   5.170   3.171  14.760 -0.0513 -0.4443  0.0206
13700TIP3    H162515   5.161   3.098  14.821 -2.0753  0.0406  0.3530
13700TIP3    H262516   5.158   3.250  14.813  0.2110  0.0649 -0.6559
13701TIP3   OH262517   0.210   0.731  13.660  0.5834 -0.5989  0.1092
13701TIP3    H162518   0.180   0.729  13.751  0.2792  0.8815  0.0551
13701TIP3    H262519   0.303   0.752  13.667  0.3589  0.4427  0.0503
13702TIP3   OH262520   5.012   1.240   6.569  0.0882  0.4301 -0.5714
13702TIP3    H162521   4.985   1.216   6.658  1.1438  2.1701  0.2544
13702TIP3    H262522   4.951   1.193   6.512 -0.3688 -1.0169  1.0514
13703TIP3   OH262523   0.747   4.681  13.820 -0.2618  0.3749  0.2310
13703TIP3    H162524   0.685   4.727  13.876 -1.5858  1.0060 -1.6879
13703TIP3    H262525   0.697   4.607  13.786  1.0384 -0.9659  1.1741
13704TIP3   OH262526   2.970   1.238  13.075 -0.2338  0.6387 -0.4884
13704TIP3    H162527   3.039   1.293  13.037 -0.1221  0.7859 -0.0752
13704TIP3    H262528   2.891   1.262  13.026  0.2134 -0.3309 -1.7273
13705TIP3   OH262529   2.310   5.818   3.786 -0.0864  0.3114  0.2173
13705TIP3    H162530   2.315   5.802   3.692 -1.1292  1.4139 -0.0382
13705TIP3    H262531   2.303   5.731   3.825 -0.6678 -0.0941 -0.7846
13706TIP3   OH262532   1.997   1.424  17.151 -0.2622 -0.1986  0.2340
13706TIP3    H162533   1.989   1.426  17.056 -0.8428  0.1056  0.2809
13706TIP3    H262534   2.039   1.507  17.173 -2.4899  0.9318  0.4242
13707TIP3   OH262535   6.631   2.332   0.888 -0.2167  0.9132 -0.2345
13707TIP3    H162536   6.716   2.308   0.925 -0.4438  0.7666  0.1895
13707TIP3    H262537   6.589   2.385   0.956 -1.3767 -0.8643  0.4593
13708TIP3   OH262538   0.743   6.329   5.904 -0.3410  0.1231  0.3429
13708TIP3    H162539   0.724   6.235   5.906 -0.1233  0.0693 -0.1214
13708TIP3    H262540   0.737   6.353   5.812  0.9733  0.2856  0.2926
13709TIP3   OH262541   2.498   3.242   5.576  0.7227  0.1053  0.0048
13709TIP3    H162542   2.486   3.310   5.642 -0.4363 -0.9029  0.8440
13709TIP3    H262543   2.413   3.199   5.569  1.0514 -0.3215 -1.5714
13710TIP3   OH262544   3.340   4.827   5.661 -0.0263  0.0228  0.3478
13710TIP3    H162545   3.337   4.737   5.694  0.5325 -0.2429 -0.3157
13710TIP3    H262546   3.284   4.876   5.721  0.2313 -0.6319  1.1430
13711TIP3   OH262547   0.003   5.338   5.375  0.3705 -0.4154  0.5475
13711TIP3    H162548   0.049   5.363   5.456 -2.2427  2.0385  1.3448
13711TIP3    H262549   0.056   5.376   5.305  1.0050  0.1217  1.3008
13712TIP3   OH262550   4.174   3.453   2.805 -0.5136 -0.4447  1.0915
13712TIP3    H162551   4.185   3.392   2.732  2.8500  1.1166  0.1937
13712TIP3    H262552   4.119   3.523   2.770  2.9653  1.4687 -0.8078
13713TIP3   OH262553   1.217   4.040  12.820  0.3137  0.2041  0.5203
13713TIP3    H162554   1.202   4.134  12.828  0.3993  0.1963  0.7651
13713TIP3    H262555   1.135   4.006  12.784  0.5187  0.4658 -0.2010
13714TIP3   OH262556   3.245   6.289   3.949 -0.3262 -0.5893 -0.2159
13714TIP3    H162557   3.268   6.233   4.023  0.1312 -1.3813 -0.9417
13714TIP3    H262558   3.316   6.276   3.886 -1.2990 -0.8567 -1.2903
13715TIP3   OH262559   3.076   4.164  16.188 -0.0907  0.4696 -0.0409
13715TIP3    H162560   3.138   4.092  16.195 -0.4503  0.2704  1.1951
13715TIP3    H262561   3.107   4.228  16.252 -2.5038 -0.6520  2.3210
13716TIP3   OH262562   5.633   6.772   5.957 -0.8939 -0.0542  0.4259
13716TIP3    H162563   5.719   6.737   5.931 -0.6290  1.2751 -0.5734
13716TIP3    H262564   5.599   6.709   6.020 -0.0887 -1.6776 -0.7320
13717TIP3   OH262565   1.193   2.034   1.254 -0.6859 -0.5361  0.1463
13717TIP3    H162566   1.153   1.948   1.267 -1.3451 -0.2615 -0.0265
13717TIP3    H262567   1.220   2.034   1.162 -2.0174 -0.0229 -0.2641
13718TIP3   OH262568   0.617   5.252  16.734 -0.0854  0.1516  0.5178
13718TIP3    H162569   0.553   5.194  16.775 -0.1461  0.9544  1.5926
13718TIP3    H262570   0.622   5.327  16.793  0.7049  0.7989 -0.3551
13719TIP3   OH262571   2.999   5.391  15.108  0.5654 -0.2369 -0.1822
13719TIP3    H162572   2.981   5.315  15.053 -0.2825  1.3702 -2.2024
13719TIP3    H262573   2.945   5.461  15.070  3.2177  2.0128  0.0516
13720TIP3   OH262574   5.836   2.139  16.549 -0.2307  0.0428  0.2272
13720TIP3    H162575   5.748   2.102  16.555  0.6824 -2.4270 -0.5715
13720TIP3    H262576   5.885   2.096  16.619  0.3844  1.3131  0.5950
13721TIP3   OH262577   5.569   2.431   5.134 -0.2949 -0.7352 -0.0767
13721TIP3    H162578   5.610   2.434   5.048 -1.5979  0.1167 -0.6901
13721TIP3    H262579   5.554   2.338   5.150  0.8527 -0.9709 -0.3222
13722TIP3   OH262580   5.620   6.294  10.976  0.3386  0.1296  0.2505
13722TIP3    H162581   5.594   6.379  10.942  0.1699 -0.6223 -1.5598
13722TIP3    H262582   5.598   6.232  10.907  1.8906 -1.1964  0.8905
13723TIP3   OH262583   6.562   3.039  15.406 -0.2956  0.0175 -0.2673
13723TIP3    H162584   6.573   2.969  15.341 -1.2853  0.2446 -0.6813
13723TIP3    H262585   6.525   2.996  15.482  0.8381 -0.2438  0.1553
13724TIP3   OH262586   3.274   5.246  13.704  0.1512  0.0437  1.0658
13724TIP3    H162587   3.354   5.195  13.714 -0.0225 -0.3533  0.4895
13724TIP3    H262588   3.256   5.245  13.610 -0.8244 -0.3323  1.2429
13725TIP3   OH262589   0.960   5.651   4.006  0.1962  0.4492 -0.3345
13725TIP3    H162590   0.873   5.620   3.981 -0.1636  1.0349  0.1544
13725TIP3    H262591   0.946   5.695   4.090  0.2689  3.7870 -1.9876
13726TIP3   OH262592   6.022   2.541  11.784 -0.0443 -0.2483  0.0857
13726TIP3    H162593   6.115   2.536  11.759  0.3887  1.8718  1.1220
13726TIP3    H262594   6.016   2.489  11.863  0.1825 -0.7138 -0.1996
13727TIP3   OH262595   4.530   3.029  12.368  0.0772 -0.2357 -0.2256
13727TIP3    H162596   4.510   2.963  12.301  1.6218 -1.3875  0.4291
13727TIP3    H262597   4.613   3.001  12.405  0.7438  2.0806  0.1012
13728TIP3   OH262598   1.497   1.957   4.963  0.3394 -0.2065  0.8082
13728TIP3    H162599   1.536   2.043   4.980  0.6963 -0.0520 -0.7465
13728TIP3    H262600   1.486   1.919   5.050 -2.2391  2.4337  1.7380
13729TIP3   OH262601   4.765   5.746  12.457 -0.1406  0.3126  0.1862
13729TIP3    H162602   4.726   5.678  12.512  0.7779  0.1228  0.6054
13729TIP3    H262603   4.859   5.730  12.462 -0.0224  0.5786 -1.0660
13730TIP3   OH262604   3.071   0.200  11.634  0.2913 -0.9804 -0.3610
13730TIP3    H162605   3.121   0.252  11.697  0.2181  0.5484 -1.5602
13730TIP3    H262606   3.013   0.147  11.689  1.5668 -1.0741  0.9420
13731TIP3   OH262607   3.643   5.675  15.506  0.2571  0.0439 -0.4832
13731TIP3    H162608   3.718   5.733  15.495  0.3682  0.5459  2.4894
13731TIP3    H262609   3.569   5.734  15.524 -0.7397 -0.4778 -2.7644
13732TIP3   OH262610   3.735   4.505  16.905  0.0577 -0.6255  0.7236
13732TIP3    H162611   3.649   4.548  16.902  0.8394  0.8997  0.1535
13732TIP3    H262612   3.728   4.434  16.842 -1.1203 -1.1553  1.4161
13733TIP3   OH262613   0.509   6.633   4.657  0.0065  0.6045 -0.3366
13733TIP3    H162614   0.477   6.699   4.719  0.1097  0.1524  0.1998
13733TIP3    H262615   0.432   6.612   4.603 -0.4809 -0.1229  0.6338
13734TIP3   OH262616   0.724   0.188   1.447 -0.4386  0.4278  0.4354
13734TIP3    H162617   0.671   0.148   1.515 -0.9987 -2.1214 -1.4183
13734TIP3    H262618   0.775   0.115   1.411  0.2557  1.8272 -1.4871
13735TIP3   OH262619   0.692   2.937   3.606  0.3059 -0.0899 -0.1554
13735TIP3    H162620   0.721   2.969   3.692 -0.4363 -0.3679  0.2027
13735TIP3    H262621   0.640   3.008   3.569 -0.1968 -0.3446  0.0520
13736TIP3   OH262622   5.988   5.953   4.638 -0.7682 -0.2872  0.0164
13736TIP3    H162623   5.965   5.872   4.593  1.7961 -0.6041 -0.7765
13736TIP3    H262624   5.953   5.942   4.726 -2.0869 -1.4448 -0.6241
13737TIP3   OH262625   1.955   4.045   1.307 -0.4047  0.3592  0.2060
13737TIP3    H162626   1.920   4.104   1.240  0.5850  0.2196 -0.4464
13737TIP3    H262627   1.888   3.978   1.317 -0.0283 -0.3091 -1.5658
13738TIP3   OH262628   3.623   4.371   5.035  0.1943  0.5423  0.2925
13738TIP3    H162629   3.660   4.422   5.107 -0.1655  1.4258 -0.1465
13738TIP3    H262630   3.603   4.435   4.967  0.0665 -0.2233 -0.4077
13739TIP3   OH262631   6.583   4.512   0.568  0.3497 -0.3940  0.1696
13739TIP3    H162632   6.632   4.590   0.543 -0.9560  0.1670 -0.6971
13739TIP3    H262633   6.524   4.541   0.637 -0.5111 -0.4683 -0.5130
13740TIP3   OH262634   0.086   6.736  16.070  0.1298  0.0012 -0.5468
13740TIP3    H162635   0.128   6.754  16.153 -0.4303 -0.7801 -0.0788
13740TIP3    H262636   0.136   6.663  16.032 -0.4994 -0.6226 -0.2027
13741TIP3   OH262637   4.700   4.863  11.900  0.0742  0.3385 -0.3495
13741TIP3    H162638   4.675   4.772  11.914  1.8013 -0.0412  0.4393
13741TIP3    H262639   4.751   4.886  11.978 -2.3683  2.7584  0.6298
13742TIP3   OH262640   0.424   0.188   2.354 -0.3846 -0.3933  0.4609
13742TIP3    H162641   0.382   0.272   2.331 -0.7431 -0.9139 -0.8642
13742TIP3    H262642   0.510   0.213   2.386 -1.2014  0.6126  1.9316
13743TIP3   OH262643   2.888   5.165   0.441 -0.7102  0.5000  0.0615
13743TIP3    H162644   2.886   5.143   0.348  0.0434  0.6179  0.0145
13743TIP3    H262645   2.853   5.254   0.446  0.5573  1.0265 -0.2755
13744TIP3   OH262646   0.539   2.241   5.104 -0.1984  0.5435  0.4831
13744TIP3    H162647   0.586   2.283   5.176  0.2635  0.6814  0.1087
13744TIP3    H262648   0.458   2.209   5.143  0.2066  0.3075  1.1397
13745TIP3   OH262649   3.712   6.722   1.124  0.8045  0.0052  0.0891
13745TIP3    H162650   3.797   6.692   1.155  0.9231  0.0151 -0.2249
13745TIP3    H262651   3.704   6.684   1.036  0.9286  0.8482 -0.2847
13746TIP3   OH262652   3.394   4.665  15.319 -0.4025  0.1744 -0.1288
13746TIP3    H162653   3.466   4.624  15.271  0.4478 -0.1272  1.3908
13746TIP3    H262654   3.319   4.608  15.304 -0.2048  0.1857 -1.2475
13747TIP3   OH262655   4.833   4.807  16.574 -0.5721  0.0606 -0.0697
13747TIP3    H162656   4.914   4.855  16.591 -1.5400  1.2170  1.3579
13747TIP3    H262657   4.775   4.832  16.645 -2.3480 -0.4223 -1.3298
13748TIP3   OH262658   4.635   3.498  16.888 -0.3912 -0.1515 -0.0179
13748TIP3    H162659   4.626   3.593  16.879  0.5737 -0.1633 -1.3708
13748TIP3    H262660   4.675   3.485  16.974 -1.1397  0.6174  0.4545
13749TIP3   OH262661   6.058   4.912   3.808  0.8625  0.4256 -0.4101
13749TIP3    H162662   6.142   4.938   3.845  0.1430  1.5983  0.4428
13749TIP3    H262663   6.044   4.971   3.735  0.7038  0.3323 -0.4566
13750TIP3   OH262664   4.303   2.339   1.832  0.1620  0.0896  0.2460
13750TIP3    H162665   4.360   2.329   1.755 -1.4539 -1.2889 -0.8062
13750TIP3    H262666   4.339   2.279   1.897 -0.2219 -0.9648 -0.5064
13751TIP3   OH262667   0.564   1.216  16.511 -0.1371  0.3788  0.1565
13751TIP3    H162668   0.565   1.311  16.502  0.5385  0.3760  0.1815
13751TIP3    H262669   0.616   1.198  16.589  1.1020 -0.1028 -0.7737
13752TIP3   OH262670   3.499   2.317  16.618  0.0392  0.3518 -0.4614
13752TIP3    H162671   3.498   2.326  16.522 -0.4763  2.0619 -0.3140
13752TIP3    H262672   3.585   2.279  16.637 -0.2963 -1.0411 -1.6815
13753TIP3   OH262673   4.231   1.662   6.003 -1.0445 -0.8282  0.2105
13753TIP3    H162674   4.287   1.587   6.025 -0.7266 -0.4943  0.5621
13753TIP3    H262675   4.173   1.671   6.078  0.4181  0.6640  1.1999
13754TIP3   OH262676   6.751   4.659   3.527  0.7729 -0.0116 -0.3807
13754TIP3    H162677   6.723   4.596   3.461 -0.4697 -0.8347  0.9198
13754TIP3    H262678   6.706   4.740   3.504  2.4396  0.4797 -2.1058
13755TIP3   OH262679   0.828   6.683  11.597 -0.1274 -0.3958  0.0928
13755TIP3    H162680   0.792   6.620  11.535 -0.4190  1.7232 -1.9661
13755TIP3    H262681   0.860   6.755  11.542  2.0549  0.3395  2.2517
13756TIP3   OH262682   6.105   3.610  14.380 -0.8333 -0.0972 -0.1348
13756TIP3    H162683   6.083   3.527  14.422 -1.8604  0.6297  0.8072
13756TIP3    H262684   6.128   3.587  14.290  0.3976 -1.5650  0.5367
13757TIP3   OH262685   4.869   3.451  12.578 -0.5122 -0.2794 -0.4523
13757TIP3    H162686   4.961   3.468  12.557 -0.9031  1.7372 -0.6207
13757TIP3    H262687   4.861   3.477  12.670 -0.7845 -0.9979 -0.2712
13758TIP3   OH262688   4.474   4.711  10.778  0.2933  0.9354  0.3407
13758TIP3    H162689   4.541   4.647  10.754  0.2636  0.5225  1.3437
13758TIP3    H262690   4.478   4.778  10.709 -0.4549 -0.7182 -1.3427
13759TIP3   OH262691   0.842   0.482   0.114  0.4392 -0.5700  0.2425
13759TIP3    H162692   0.905   0.419   0.150  0.3012 -1.5466 -1.1506
13759TIP3    H262693   0.822   0.448   0.026 -0.3173  0.9514 -0.1941
13760TIP3   OH262694   6.285   2.136   1.866  0.1371  0.5663  0.7029
13760TIP3    H162695   6.205   2.092   1.839  0.1090 -0.6464  2.6424
13760TIP3    H262696   6.315   2.182   1.788 -0.8878 -1.3301 -0.8445
13761TIP3   OH262697   4.605   4.223   2.946  0.6071  0.0038 -0.0227
13761TIP3    H162698   4.614   4.315   2.971 -0.7199  0.2274 -0.3463
13761TIP3    H262699   4.693   4.186   2.959  0.7516  0.8947  1.7614
13762TIP3   OH262700   3.709   4.467   0.767  0.2914  0.5473 -0.3643
13762TIP3    H162701   3.755   4.465   0.684 -0.6777  0.7547 -0.9120
13762TIP3    H262702   3.645   4.538   0.758 -1.7910 -1.2799 -0.5355
13763TIP3   OH262703   4.948   1.186  12.307 -0.0476 -0.3099  0.0676
13763TIP3    H162704   4.888   1.156  12.239  0.1142  1.2570 -0.7828
13763TIP3    H262705   4.921   1.138  12.385 -1.0801 -1.1500 -0.7865
13764TIP3   OH262706   3.999   4.333   4.758 -0.0845  0.3599 -0.7240
13764TIP3    H162707   4.010   4.360   4.667 -0.0013 -0.3332 -0.9225
13764TIP3    H262708   3.916   4.286   4.759  0.0840  0.0630 -0.5130
13765TIP3   OH262709   5.065   6.206   1.057 -0.0555  0.4583  0.2314
13765TIP3    H162710   5.096   6.237   0.972  0.4400  2.3609  1.0863
13765TIP3    H262711   5.051   6.112   1.044 -3.6895  1.3037 -3.0558
13766TIP3   OH262712   6.262   1.663   3.439  0.6639 -0.3805 -0.2362
13766TIP3    H162713   6.267   1.715   3.519  0.5878 -1.4676  0.4816
13766TIP3    H262714   6.294   1.576   3.464  2.2809 -0.2606 -1.8119
13767TIP3   OH262715   0.598   4.783   0.856  0.1858  0.2713 -0.5844
13767TIP3    H162716   0.648   4.864   0.861  0.5299  0.0313 -0.0009
13767TIP3    H262717   0.605   4.755   0.765  1.4416  0.0452 -0.4320
13768TIP3   OH262718   0.528   6.513   3.657  0.0204  0.1285 -0.6526
13768TIP3    H162719   0.533   6.484   3.748  0.3359 -0.2007 -0.7754
13768TIP3    H262720   0.613   6.552   3.639  0.6308 -1.4955 -1.3768
13769TIP3   OH262721   5.778   6.568  16.404  0.2095  0.0460 -0.8365
13769TIP3    H162722   5.691   6.546  16.369  0.5053 -2.0247 -0.2944
13769TIP3    H262723   5.830   6.588  16.326 -0.4981  0.4378 -1.2235
13770TIP3   OH262724   1.581   1.006  16.576 -0.1524  0.1706 -0.5454
13770TIP3    H162725   1.551   1.029  16.488 -0.5661  0.1953 -0.3955
13770TIP3    H262726   1.521   0.937  16.605 -1.0083  1.2732  0.3556
13771TIP3   OH262727   4.010   0.244  12.808 -0.0024  0.1878  0.0249
13771TIP3    H162728   3.964   0.247  12.892  2.4646 -1.3054  1.5136
13771TIP3    H262729   4.021   0.151  12.791 -0.0875  0.4994 -1.7391
13772TIP3   OH262730   3.911   5.743   1.197 -0.2609  0.1786  0.2882
13772TIP3    H162731   3.999   5.770   1.222 -0.1587 -0.3480  0.5202
13772TIP3    H262732   3.894   5.789   1.115  0.1526  0.4351  0.3417
13773TIP3   OH262733   1.962   6.117   2.549 -0.2182 -0.3633 -0.7381
13773TIP3    H162734   1.927   6.063   2.479  0.4378 -0.8173 -0.7239
13773TIP3    H262735   1.888   6.133   2.607 -0.1459 -2.2902 -0.0776
13774TIP3   OH262736   3.276   1.786  12.794 -0.1142 -0.5728  0.3306
13774TIP3    H162737   3.191   1.821  12.769  0.3507  0.9555  0.8653
13774TIP3    H262738   3.269   1.771  12.889  0.1931 -0.5223  0.3628
13775TIP3   OH262739   2.724   1.740   2.705 -0.6452  0.0361  0.1494
13775TIP3    H162740   2.800   1.693   2.739 -1.1297 -0.3036  0.7855
13775TIP3    H262741   2.750   1.832   2.704 -0.9987  0.2022  2.5386
13776TIP3   OH262742   4.186   4.146  16.051 -0.0646  0.0790 -0.2578
13776TIP3    H162743   4.169   4.191  16.134 -0.2522 -3.9286  2.0088
13776TIP3    H262744   4.138   4.063  16.059  4.3348 -2.8043 -2.0505
13777TIP3   OH262745   3.534   4.521  15.861 -0.4314 -0.8906  0.4503
13777TIP3    H162746   3.605   4.581  15.880 -1.0128 -0.0214 -0.0668
13777TIP3    H262747   3.465   4.545  15.922 -0.4955 -1.3446  0.5593
13778TIP3   OH262748   0.736   6.163  17.083  0.2775  0.0527 -0.6825
13778TIP3    H162749   0.686   6.239  17.056  1.2372  1.4776  1.3901
13778TIP3    H262750   0.707   6.145  17.172  2.0583 -0.2514 -0.1269
13779TIP3   OH262751   2.798   1.213   0.153  0.4311  0.2080  0.1257
13779TIP3    H162752   2.871   1.199   0.093 -0.7274  0.6810 -1.4156
13779TIP3    H262753   2.798   1.307   0.171 -0.5996  0.4122 -0.9211
13780TIP3   OH262754   4.983   1.351  15.653  0.4230  0.1572  0.1429
13780TIP3    H162755   4.999   1.299  15.732 -0.8021 -0.4137  0.0402
13780TIP3    H262756   5.053   1.326  15.593  0.2483 -0.8837  0.3519
13781TIP3   OH262757   0.495   1.768   3.656 -0.0571  0.3624  0.1589
13781TIP3    H162758   0.448   1.849   3.638 -0.6054 -0.3764 -1.9007
13781TIP3    H262759   0.553   1.756   3.580 -0.4897 -1.5132  0.0911
13782TIP3   OH262760   6.245   6.022  15.982 -0.2598 -0.5715 -0.6683
13782TIP3    H162761   6.287   6.106  15.962 -1.8039  0.2429 -0.5780
13782TIP3    H262762   6.296   5.987  16.054 -0.2369  0.8182  0.0234
13783TIP3   OH262763   2.107   2.151   6.045  0.1692 -0.3276  0.1532
13783TIP3    H162764   2.055   2.231   6.057 -1.4767 -1.2733 -0.4598
13783TIP3    H262765   2.059   2.102   5.978  2.0925 -1.0671 -0.7108
13784TIP3   OH262766   5.811   1.612  12.268  0.2549  0.0402 -0.5581
13784TIP3    H162767   5.756   1.537  12.248  0.2585 -0.0354 -0.2823
13784TIP3    H262768   5.848   1.593  12.355 -0.9132  1.0223  0.1775
13785TIP3   OH262769   4.720   6.561  13.122 -0.4684 -0.2192 -0.3541
13785TIP3    H162770   4.754   6.637  13.074 -0.6852  0.6973  0.9135
13785TIP3    H262771   4.791   6.496  13.117  0.2112  0.5133 -0.4188
13786TIP3   OH262772   5.083   3.030   4.335  0.3121  0.0461 -0.0246
13786TIP3    H162773   5.145   3.059   4.403  1.0855  0.5902 -0.9408
13786TIP3    H262774   5.116   3.071   4.255 -0.8405 -0.2439 -0.6490
13787TIP3   OH262775   5.217   5.723  17.090  0.1856  0.2824 -0.3219
13787TIP3    H162776   5.216   5.792  17.157 -0.7088  1.0037 -1.0497
13787TIP3    H262777   5.229   5.642  17.139  0.6845  0.9041  0.6050
13788TIP3   OH262778   4.873   4.187   3.487  0.4245  0.3660  0.3771
13788TIP3    H162779   4.892   4.248   3.558 -0.6013  0.7981  0.2870
13788TIP3    H262780   4.951   4.132   3.482  0.6600  0.5631  1.5957
13789TIP3   OH262781   3.006   1.755  12.678  0.2645  0.2284 -0.0049
13789TIP3    H162782   2.950   1.687  12.714  0.4067 -0.3296 -0.8327
13789TIP3    H262783   2.995   1.829  12.737 -0.7916 -0.1199  0.2379
13790TIP3   OH262784   2.187   1.723  10.973  0.3091  0.6219  0.3904
13790TIP3    H162785   2.093   1.708  10.972  0.3932  0.0993  0.4841
13790TIP3    H262786   2.205   1.765  10.888  0.0817  0.1931  0.1283
13791TIP3   OH262787   4.641   0.646   4.884 -0.2689 -0.0232 -0.5500
13791TIP3    H162788   4.638   0.734   4.847 -0.0441 -0.4902 -1.7059
13791TIP3    H262789   4.719   0.607   4.846  1.3432  0.2871  2.2948
13792TIP3   OH262790   6.762   2.571   5.750  0.1816  0.6266 -0.3349
13792TIP3    H162791   6.741   2.481   5.776 -0.2932  1.1632  1.1897
13792TIP3    H262792   6.697   2.594   5.685  0.0027  0.0299 -0.3655
13793TIP3   OH262793   4.773   4.349  13.987  0.0023 -0.0281 -0.3011
13793TIP3    H162794   4.699   4.297  13.957  1.9673 -2.3454 -1.2424
13793TIP3    H262795   4.774   4.425  13.929  0.1334 -1.4699 -2.2154
13794TIP3   OH262796   0.604   1.541   4.572  0.8244 -0.3778  0.0299
13794TIP3    H162797   0.668   1.554   4.502  1.0509  1.5811  0.5709
13794TIP3    H262798   0.649   1.483   4.634  1.4694 -0.3140 -0.3715
13795TIP3   OH262799   4.199   2.028  16.170  0.4578 -0.0706 -0.0272
13795TIP3    H162800   4.274   2.082  16.145 -1.4684  3.5739  1.8081
13795TIP3    H262801   4.209   2.016  16.264 -0.3897 -1.0430 -0.0518
13796TIP3   OH262802   4.699   6.197   1.209  0.1040 -0.2840 -0.0457
13796TIP3    H162803   4.770   6.207   1.146  2.3090 -0.0669  2.3792
13796TIP3    H262804   4.695   6.103   1.227 -1.0747 -0.4507 -1.0615
13797TIP3   OH262805   4.736   0.751   2.090  0.3438 -0.0177 -0.1861
13797TIP3    H162806   4.748   0.709   2.175  0.9235 -0.7863 -0.6337
13797TIP3    H262807   4.666   0.700   2.049  1.2783 -0.7971 -0.8657
13798TIP3   OH262808   3.172   0.369  12.755 -0.3742 -0.7042  0.2377
13798TIP3    H162809   3.161   0.301  12.820 -2.5608  0.3189  0.9918
13798TIP3    H262810   3.100   0.356  12.693  0.9285 -0.8878 -1.2761
13799TIP3   OH262811   0.144   0.229  12.994  0.2315  0.3842  0.5532
13799TIP3    H162812   0.118   0.318  12.969  0.6734  0.3114 -0.1828
13799TIP3    H262813   0.136   0.178  12.913  1.5683  0.1171  0.5813
13800TIP3   OH262814   2.197   1.632   1.099 -0.5969 -0.6852 -0.2263
13800TIP3    H162815   2.222   1.692   1.168 -0.2320  0.2502 -1.1565
13800TIP3    H262816   2.276   1.581   1.081 -0.3321 -0.0719 -0.8112
13801TIP3   OH262817   2.828   2.691   2.797  0.1033 -0.2293  0.3443
13801TIP3    H162818   2.835   2.778   2.836 -0.7266  0.5307 -1.1458
13801TIP3    H262819   2.841   2.630   2.870  0.6830  1.1380  1.4009
13802TIP3   OH262820   6.217   6.651   1.086  0.7093 -0.8005 -0.5660
13802TIP3    H162821   6.128   6.679   1.064  0.7304 -0.7772 -0.6206
13802TIP3    H262822   6.208   6.560   1.113  0.3938 -0.2535  1.2181
13803TIP3   OH262823   5.503   1.901  15.932  0.6823  0.4018  0.2090
13803TIP3    H162824   5.473   1.981  15.976  0.0637  0.3182 -0.0584
13803TIP3    H262825   5.522   1.840  16.004 -0.5834  0.1779  0.3653
13804TIP3   OH262826   6.039   4.583  14.357  0.0862  0.4010 -0.3790
13804TIP3    H162827   6.032   4.488  14.368 -1.3712  0.3367 -1.5852
13804TIP3    H262828   6.127   4.605  14.387 -0.0332 -1.1348  1.2073
13805TIP3   OH262829   2.261   3.137   0.566 -0.5645 -0.1187 -0.5855
13805TIP3    H162830   2.294   3.144   0.476  0.6640  1.6937 -0.0282
13805TIP3    H262831   2.321   3.077   0.609  0.8729  1.5837 -0.1239
13806TIP3   OH262832   3.260   6.550   2.067  0.5096 -0.6495 -0.3634
13806TIP3    H162833   3.246   6.589   1.980 -0.3032  0.6005  0.3222
13806TIP3    H262834   3.177   6.505   2.086  0.4911 -0.4622 -0.0043
13807TIP3   OH262835   3.596   5.479  16.889 -0.0032  0.0526 -0.3112
13807TIP3    H162836   3.669   5.457  16.832  0.1340 -0.9641  0.2375
13807TIP3    H262837   3.558   5.395  16.913 -1.0667  0.5484 -0.2143
13808TIP3   OH262838   5.024   5.691  12.429 -0.1148 -0.3853  0.1163
13808TIP3    H162839   5.028   5.745  12.350 -1.0304 -0.5615 -0.0465
13808TIP3    H262840   5.079   5.738  12.492  0.5678 -0.2120 -0.5960
13809TIP3   OH262841   6.555   1.256   3.435  0.1662 -0.5143 -0.1904
13809TIP3    H162842   6.616   1.295   3.498  0.8605 -0.9430 -0.5979
13809TIP3    H262843   6.564   1.162   3.448 -1.8431 -0.5531  1.1111
13810TIP3   OH262844   2.700   6.369   1.956 -0.4507  0.1623 -0.3413
13810TIP3    H162845   2.758   6.403   1.888 -1.0142 -0.5033 -1.1708
13810TIP3    H262846   2.612   6.380   1.920 -0.7215 -0.6615  0.0571
13811TIP3   OH262847   6.392   6.422  14.446  0.0452  0.0507  0.1477
13811TIP3    H162848   6.371   6.345  14.392  1.0297 -0.2927  0.2276
13811TIP3    H262849   6.329   6.488  14.419  0.4637 -0.1440 -1.3884
13812TIP3   OH262850   1.377   0.018  13.878 -0.5156 -0.2202 -0.6627
13812TIP3    H162851   1.443   0.018  13.808  0.8457  0.2354  0.5860
13812TIP3    H262852   1.296  -0.009  13.835  0.1117  0.8470 -2.5766
13813TIP3   OH262853   2.664   6.335  12.919  0.2178 -0.4361  0.1787
13813TIP3    H162854   2.671   6.426  12.949  1.2099 -0.5029  0.1574
13813TIP3    H262855   2.744   6.293  12.950 -0.0639 -1.2103 -0.1337
13814TIP3   OH262856   3.822   1.831  16.845  0.4679  0.6394 -0.2980
13814TIP3    H162857   3.776   1.902  16.889 -2.1596 -1.3658  0.3207
13814TIP3    H262858   3.852   1.774  16.916 -0.1853 -0.4723 -0.9058
13815TIP3   OH262859   1.655   2.094   1.710 -0.7598 -0.1924 -0.3351
13815TIP3    H162860   1.653   2.022   1.773 -0.6363 -0.6820 -0.8858
13815TIP3    H262861   1.616   2.057   1.631 -2.1059  0.7959 -0.1616
13816TIP3   OH262862   3.064   6.341   3.465 -0.2751 -0.9781  0.4813
13816TIP3    H162863   3.063   6.374   3.375  1.4660 -0.7534  0.5217
13816TIP3    H262864   3.126   6.268   3.462  0.6083 -0.2967  1.7100
13817TIP3   OH262865   0.188   2.087  12.910  0.2351  0.2173 -0.3452
13817TIP3    H162866   0.149   2.027  12.973 -0.1663  0.7022 -0.1286
13817TIP3    H262867   0.122   2.155  12.897  0.2202 -0.0032 -1.4684
13818TIP3   OH262868   1.543   3.532   3.027  0.2478  0.2144  0.2440
13818TIP3    H162869   1.539   3.569   3.116  0.2199 -0.0993  0.3722
13818TIP3    H262870   1.634   3.545   3.001  0.2923  0.1754  0.3759
13819TIP3   OH262871   2.034   2.790  15.335  0.4762 -0.8379  0.1989
13819TIP3    H162872   2.045   2.769  15.243 -1.6429  2.6652 -0.9567
13819TIP3    H262873   2.122   2.784  15.373  1.7570 -0.0080 -2.5614
13820TIP3   OH262874   6.253   2.041  14.567 -0.0164  0.0984  0.1532
13820TIP3    H162875   6.347   2.053  14.565  0.1756 -1.5197 -0.8937
13820TIP3    H262876   6.239   1.948  14.551 -1.7615  0.1695  1.0279
13821TIP3   OH262877   5.130   5.869   1.633 -0.4722  0.4995  0.1415
13821TIP3    H162878   5.093   5.901   1.716  0.5416  2.5017 -0.1589
13821TIP3    H262879   5.135   5.947   1.577  2.4941 -0.0686 -0.4440
13822TIP3   OH262880   1.972   3.126  15.638  0.2165 -0.5905 -0.1411
13822TIP3    H162881   2.020   3.207  15.655 -0.8454  0.2397 -1.0111
13822TIP3    H262882   1.985   3.073  15.717  0.1814  0.7937  0.8060
13823TIP3   OH262883   1.979   5.647   3.224 -0.2379 -0.1472  0.6363
13823TIP3    H162884   1.969   5.574   3.284 -0.5409 -0.6672 -0.0315
13823TIP3    H262885   2.051   5.621   3.166 -1.3040 -0.5875 -0.5322
13824TIP3   OH262886   0.314   6.233   0.448  0.4395  0.0789 -0.6094
13824TIP3    H162887   0.357   6.175   0.385  0.7006 -0.2034 -0.1827
13824TIP3    H262888   0.319   6.185   0.531  0.5587  0.6706 -0.2732
13825TIP3   OH262889   2.191   3.318   1.197  0.6721 -0.0984 -0.0087
13825TIP3    H162890   2.097   3.335   1.193  0.9762  1.6092 -0.3675
13825TIP3    H262891   2.207   3.251   1.131 -0.0632  0.7313 -1.0405
13826TIP3   OH262892   6.761   3.448   2.738  0.0594 -0.1095  0.9629
13826TIP3    H162893   6.839   3.444   2.793  0.8922 -1.0401 -0.2663
13826TIP3    H262894   6.740   3.542   2.734  1.7463  0.2602  0.4116
13827TIP3   OH262895   1.986   3.063  12.454 -0.4603  0.1004  0.2679
13827TIP3    H162896   2.037   3.001  12.402 -2.4235  0.2288 -1.9187
13827TIP3    H262897   1.974   3.139  12.396 -3.0864  0.0628  0.6885
13828TIP3   OH262898   2.253   2.334  15.533 -0.3264  0.7035 -0.0120
13828TIP3    H162899   2.341   2.350  15.496 -0.1576 -4.8376 -2.6060
13828TIP3    H262900   2.268   2.271  15.603 -1.9241  2.6854  2.1747
13829TIP3   OH262901   3.020   4.978   5.245 -0.0430  0.4021  0.1052
13829TIP3    H162902   2.932   4.942   5.260  0.8340 -1.9758 -0.3482
13829TIP3    H262903   3.061   4.978   5.332  0.7742 -1.9525 -0.2534
13830TIP3   OH262904   4.941   3.886   2.674  0.6782 -0.3221 -0.0838
13830TIP3    H162905   4.887   3.936   2.613  1.2667 -0.4013 -0.6776
13830TIP3    H262906   4.880   3.852   2.739  0.3547  1.8017  0.7583
13831TIP3   OH262907   0.882   2.251   1.789  0.1728 -0.4953 -0.3541
13831TIP3    H162908   0.882   2.320   1.723  3.3172  0.9668  1.0800
13831TIP3    H262909   0.816   2.189   1.758 -0.0847  1.2764 -3.6289
13832TIP3   OH262910   3.150   0.991   2.413  0.6987 -0.0972  0.1751
13832TIP3    H162911   3.061   1.011   2.440  1.2084  1.1547  0.9335
13832TIP3    H262912   3.190   0.948   2.489  0.3248 -1.9466 -0.6441
13833TIP3   OH262913   3.115   3.845   5.924 -0.5118  0.2623 -0.2629
13833TIP3    H162914   3.137   3.789   5.849  2.3182  0.8805  0.0752
13833TIP3    H262915   3.048   3.904   5.890 -2.2965 -2.1445 -1.1169
13834TIP3   OH262916   1.834   0.316  15.093  0.5535  0.1891 -0.0610
13834TIP3    H162917   1.926   0.292  15.104  0.8256  2.1409  2.2377
13834TIP3    H262918   1.808   0.352  15.178 -1.9267  1.0067 -1.1177
13835TIP3   OH262919   3.320   2.135   3.382 -0.0011 -0.0340 -0.4557
13835TIP3    H162920   3.403   2.088   3.393 -0.8984 -1.6129 -0.2868
13835TIP3    H262921   3.315   2.153   3.288 -0.4396 -1.7830 -0.7780
13836TIP3   OH262922   6.514   2.924   0.721  0.3184  0.7286 -0.6530
13836TIP3    H162923   6.555   2.866   0.785  0.5783  0.7955 -0.7580
13836TIP3    H262924   6.560   3.008   0.731  0.1348  0.8354 -0.6946
13837TIP3   OH262925   5.249   0.011   2.499 -0.0972  0.4649 -0.1761
13837TIP3    H162926   5.161  -0.009   2.467 -0.1561 -0.2561  0.4533
13837TIP3    H262927   5.306  -0.009   2.425 -0.1816 -1.7440  0.3278
13838TIP3   OH262928   5.032   3.287   3.866 -0.2568  0.3690 -0.5177
13838TIP3    H162929   5.111   3.234   3.853 -0.3112  0.0617  0.3524
13838TIP3    H262930   5.026   3.341   3.788 -1.3007 -2.3341 -2.3700
13839TIP3   OH262931   0.377   2.004  12.202  0.0961  0.4803  0.1742
13839TIP3    H162932   0.426   1.924  12.183 -0.1869  0.0143  1.3493
13839TIP3    H262933   0.358   2.042  12.116  0.5322 -0.5322 -0.3746
13840TIP3   OH262934   0.798   2.904   5.040 -0.0235  0.4731 -0.3111
13840TIP3    H162935   0.881   2.865   5.014  0.6941  2.0087 -0.3433
13840TIP3    H262936   0.812   2.998   5.034 -1.2406  0.7846  1.3306
13841TIP3   OH262937   4.532   6.777   1.114 -0.0768 -0.2678 -0.5518
13841TIP3    H162938   4.536   6.780   1.019  2.7019  2.7253 -0.4562
13841TIP3    H262939   4.445   6.811   1.136  0.3644  1.8919 -2.0135
13842TIP3   OH262940   0.073   1.053  15.073 -0.3157 -0.0990 -0.1969
13842TIP3    H162941   0.027   1.126  15.114 -0.5480  0.1621 -0.9063
13842TIP3    H262942   0.153   1.042  15.125 -2.3555 -2.2668  2.6936
13843TIP3   OH262943   1.061   3.349   2.949  0.6332 -0.6122 -0.1456
13843TIP3    H162944   0.984   3.398   2.921  0.6113 -0.8730 -0.5442
13843TIP3    H262945   1.071   3.281   2.883  0.3211 -1.5124  0.7228
13844TIP3   OH262946   5.683   4.135   5.600  0.1320 -0.1932 -0.0382
13844TIP3    H162947   5.681   4.070   5.671  0.3433 -3.3695 -2.8304
13844TIP3    H262948   5.591   4.159   5.587 -0.2188 -1.7808 -0.5839
13845TIP3   OH262949   0.190   1.156   2.788  0.0181 -0.3996  0.0761
13845TIP3    H162950   0.264   1.113   2.745 -0.2811  0.1133 -0.9727
13845TIP3    H262951   0.183   1.241   2.744  0.0004  0.3359  1.4709
13846TIP3   OH262952   2.861   3.871  16.530  0.0667 -0.5745  0.2839
13846TIP3    H162953   2.800   3.842  16.598  2.0407 -3.0823  1.0815
13846TIP3    H262954   2.807   3.881  16.451 -1.9644  0.8091  1.8096
13847TIP3   OH262955   4.067   1.596  14.333  0.2407  0.0062  0.3818
13847TIP3    H162956   4.047   1.536  14.262 -0.6107  1.4960 -0.6703
13847TIP3    H262957   4.037   1.550  14.412 -0.8673 -0.7506 -0.4559
13848TIP3   OH262958   3.960   6.037  11.832  0.1246 -0.1873  0.0717
13848TIP3    H162959   3.990   6.013  11.920  0.5686 -1.3107 -0.3731
13848TIP3    H262960   3.985   6.128  11.822 -0.0015 -0.0283  1.1447
13849TIP3   OH262961   4.077   3.667   4.462 -0.2619 -0.1350  0.2168
13849TIP3    H162962   4.171   3.682   4.474  0.3215 -4.1388  1.1887
13849TIP3    H262963   4.066   3.660   4.367  0.3863  0.4882  0.0915
13850TIP3   OH262964   1.509   3.422   1.623  0.1073 -0.4255  0.3589
13850TIP3    H162965   1.600   3.451   1.618  0.2391 -1.0271 -1.1668
13850TIP3    H262966   1.505   3.369   1.702  0.2219  2.4839  2.3713
13851TIP3   OH262967   3.791   6.266  11.606 -0.5477 -0.4491  0.4249
13851TIP3    H162968   3.812   6.360  11.605  0.3040 -0.6436 -0.1519
13851TIP3    H262969   3.867   6.224  11.566 -0.9317 -1.3908  0.6780
13852TIP3   OH262970   5.921   0.553   4.287  0.0080  0.1759 -0.3429
13852TIP3    H162971   5.846   0.514   4.242  0.3359 -0.7127 -0.1256
13852TIP3    H262972   5.884   0.590   4.367 -0.1394 -0.6653 -0.0076
13853TIP3   OH262973   4.519   1.694   2.832  0.1538  0.3022  0.0116
13853TIP3    H162974   4.527   1.602   2.856  0.6639  1.2146  3.7614
13853TIP3    H262975   4.600   1.713   2.785  0.8978 -0.7420  0.8325
13854TIP3   OH262976   0.874   4.343   4.089 -0.3405  0.3300  0.1357
13854TIP3    H162977   0.846   4.302   4.007  0.3416  0.0826  0.0241
13854TIP3    H262978   0.808   4.411   4.105 -1.0653 -0.3136 -0.0581
13855TIP3   OH262979   3.492   5.910  11.976 -0.7696 -0.0142 -0.0921
13855TIP3    H162980   3.567   5.850  11.977 -2.1207 -1.7021 -0.0374
13855TIP3    H262981   3.473   5.926  12.068 -0.3385  0.6143 -0.1056
13856TIP3   OH262982   3.125   4.049   3.896  0.2961 -0.4427 -0.0174
13856TIP3    H162983   3.043   4.006   3.873  0.0415  0.8711 -1.6343
13856TIP3    H262984   3.100   4.113   3.963 -0.2415  0.8852 -1.4712
13857TIP3   OH262985   5.164   5.462   2.886  0.4141 -0.3543 -0.3145
13857TIP3    H162986   5.231   5.528   2.902  0.9134 -0.6684 -1.1104
13857TIP3    H262987   5.081   5.510   2.893  0.7136  0.0535  0.5636
13858TIP3   OH262988   2.244   3.016   6.167 -0.0111 -0.0913 -0.7146
13858TIP3    H162989   2.174   3.001   6.231  0.8685 -0.2655  0.2186
13858TIP3    H262990   2.292   3.092   6.202  1.5617 -1.3016 -0.2132
13859TIP3   OH262991   0.249   2.427   3.523  0.3437  0.2551  0.2290
13859TIP3    H162992   0.299   2.348   3.504  1.1305  1.0886 -1.2157
13859TIP3    H262993   0.314   2.491   3.552  0.0242  1.0478 -0.7487
13860TIP3   OH262994   5.056   4.606   1.848  0.4259  0.0573  0.4832
13860TIP3    H162995   5.079   4.657   1.770 -0.9940 -0.7468 -0.4923
13860TIP3    H262996   5.139   4.593   1.894  1.1622  1.1798 -0.5150
13861TIP3   OH262997   5.490   1.045   1.039 -0.3891 -0.0432 -0.2039
13861TIP3    H162998   5.493   1.067   1.132 -0.6272 -0.9957  0.0348
13861TIP3    H262999   5.442   0.962   1.036 -0.9487  0.3216 -1.2432
13862TIP3   OH263000   1.386   4.297   2.355 -0.2358  0.6641 -0.2349
13862TIP3    H163001   1.380   4.257   2.268 -0.8409  1.2547 -0.4638
13862TIP3    H263002   1.308   4.352   2.362  0.8789  2.2721 -0.1558
13863TIP3   OH263003   2.865   0.430  15.498  0.1978  0.0746 -0.6174
13863TIP3    H163004   2.797   0.371  15.531 -0.5340  1.7986  1.1043
13863TIP3    H263005   2.840   0.450  15.408 -1.3386  0.3357 -0.1360
13864TIP3   OH263006   5.013   6.301   5.633 -0.1985 -0.1401 -0.0938
13864TIP3    H163007   4.924   6.289   5.667 -0.3169 -2.4223 -1.1282
13864TIP3    H263008   5.066   6.319   5.710 -1.1977 -0.9055  0.7842
13865TIP3   OH263009   2.107   4.115   2.965 -0.0289  0.3941  0.3434
13865TIP3    H163010   2.144   4.088   3.050 -1.2906  1.3278  1.2101
13865TIP3    H263011   2.178   4.103   2.903 -0.0895 -3.6512  0.9177
13866TIP3   OH263012   1.042   1.460  12.353  0.2394  0.4496 -0.0996
13866TIP3    H163013   1.090   1.494  12.277  0.6401 -0.2353 -0.1548
13866TIP3    H263014   1.002   1.379  12.321 -0.2507  0.5751  0.1952
13867TIP3   OH263015   3.849   4.417  15.724 -0.5192 -0.4301  0.4435
13867TIP3    H163016   3.862   4.332  15.683 -1.2986  0.9623 -2.8609
13867TIP3    H263017   3.935   4.459  15.720 -0.3921 -0.6242  1.0683
13868TIP3   OH263018   3.192   4.333  14.386 -0.0873  0.1558 -0.1444
13868TIP3    H163019   3.126   4.337  14.455  0.5163  1.5100  0.3640
13868TIP3    H263020   3.224   4.423  14.378  0.1484 -0.0565 -1.9026
13869TIP3   OH263021   0.268   3.606  14.160  0.8167  0.6076  0.0671
13869TIP3    H163022   0.215   3.577  14.234  1.5644  1.0523  0.7791
13869TIP3    H263023   0.254   3.539  14.093  1.4372 -0.6749  1.1962
13870TIP3   OH263024   2.273   3.220   2.034  0.5160  0.5288  0.1465
13870TIP3    H163025   2.329   3.254   2.105 -0.5015  0.7085  0.8709
13870TIP3    H263026   2.191   3.269   2.043  0.0574 -0.1078 -0.5844
13871TIP3   OH263027   0.146   6.015   5.757  0.0180  0.4115 -0.6478
13871TIP3    H163028   0.059   6.046   5.734  1.0258  2.2386 -2.1613
13871TIP3    H263029   0.172   5.960   5.683  0.3588  0.3314 -0.4681
13872TIP3   OH263030   4.371   3.382  16.353 -0.3630 -0.0296  0.1911
13872TIP3    H163031   4.337   3.450  16.411 -1.3212 -0.3413  0.0109
13872TIP3    H263032   4.466   3.386  16.364 -0.4644  0.7357  0.8513
13873TIP3   OH263033   2.412   1.848  15.553  0.0700 -0.1022 -0.1229
13873TIP3    H163034   2.480   1.900  15.595  0.5763  1.2277 -2.4847
13873TIP3    H263035   2.332   1.898  15.566 -0.2108 -0.8964  1.3100
13874TIP3   OH263036   1.121   3.559   1.455  0.2633  0.2356  0.1672
13874TIP3    H163037   1.123   3.465   1.439  2.1541  0.3749 -0.5203
13874TIP3    H263038   1.054   3.592   1.395 -0.5078 -0.6759  0.5121
13875TIP3   OH263039   1.762   5.926   1.765 -0.2544  0.4777  0.0571
13875TIP3    H163040   1.816   6.001   1.739 -0.0101  1.1710  2.5037
13875TIP3    H263041   1.809   5.886   1.838 -1.7800 -0.4361  0.5582
13876TIP3   OH263042   4.435   2.659   2.000 -0.2358  0.3775 -0.2786
13876TIP3    H163043   4.494   2.735   1.998 -0.7330  0.7949  0.7698
13876TIP3    H263044   4.479   2.596   2.056 -0.7065  0.6227  0.3663
13877TIP3   OH263045   1.736   0.136  15.300 -0.2052  0.7564 -0.3366
13877TIP3    H163046   1.643   0.115  15.303  0.3043 -1.6117  0.0926
13877TIP3    H263047   1.759   0.161  15.389 -0.4892  1.6165 -0.5053
13878TIP3   OH263048   3.664   4.986  12.365  0.0817  0.2494 -0.4998
13878TIP3    H163049   3.575   5.001  12.331 -0.0391 -0.2487 -0.4106
13878TIP3    H263050   3.720   4.988  12.288 -0.0839 -0.0430 -0.6263
13879TIP3   OH263051   0.193   0.898  17.146  0.0314 -0.7198 -0.6676
13879TIP3    H163052   0.268   0.871  17.199  0.7243  0.2107 -1.1522
13879TIP3    H263053   0.219   0.879  17.056 -0.9951 -1.9544 -0.7125
13880TIP3   OH263054   1.813   1.548   0.228  0.3773 -0.0601  0.4216
13880TIP3    H163055   1.831   1.642   0.221 -0.4122  0.0789  0.2079
13880TIP3    H263056   1.852   1.511   0.149  0.1001  0.1851  0.1650
13881TIP3   OH263057   3.069   0.114   5.306 -0.2238  0.2752 -0.5532
13881TIP3    H163058   2.977   0.096   5.328  0.3299 -0.8067  0.9976
13881TIP3    H263059   3.108   0.144   5.388  1.3817 -1.6881 -0.5456
13882TIP3   OH263060   6.642   0.037  14.540  0.2475  0.5737  0.5378
13882TIP3    H163061   6.580  -0.011  14.595 -0.3564  0.3985 -0.2855
13882TIP3    H263062   6.640  -0.009  14.456 -1.0462  2.5581 -0.5900
13883TIP3   OH263063   4.867   5.195   2.251 -0.1543  0.2850  0.6030
13883TIP3    H163064   4.918   5.275   2.241 -1.3298  0.9312 -0.3925
13883TIP3    H263065   4.823   5.184   2.166  1.7711 -2.6670 -0.0534
13884TIP3   OH263066   2.556   3.943   2.274  0.3509  0.4322 -0.7831
13884TIP3    H163067   2.607   3.925   2.195  1.0450 -2.2379  0.1954
13884TIP3    H263068   2.619   3.983   2.334  0.8606 -1.2135 -0.2039
13885TIP3   OH263069   2.646   2.953   0.984 -0.0024 -0.2101 -0.7119
13885TIP3    H163070   2.557   2.921   0.972  1.1133 -2.9306 -2.1497
13885TIP3    H263071   2.690   2.885   1.034  1.2833  1.1241  0.0204
13886TIP3   OH263072   3.273   5.947   0.850  0.0936  0.2221  0.6636
13886TIP3    H163073   3.224   6.028   0.867 -0.1110  0.2111  0.1302
13886TIP3    H263074   3.328   5.968   0.774 -1.0733 -0.6088 -0.4447
13887TIP3   OH263075   5.519   1.178   4.284  0.1908  0.3850 -0.2107
13887TIP3    H163076   5.588   1.173   4.217 -1.5634  0.1634 -2.0338
13887TIP3    H263077   5.523   1.269   4.315  2.4190 -0.0604  0.9692
13888TIP3   OH263078   4.344   5.845   1.599 -0.5761  0.6079  0.5809
13888TIP3    H163079   4.404   5.873   1.668 -0.4631  0.0983  0.6954
13888TIP3    H263080   4.388   5.868   1.518  0.4874 -1.1289  0.6252
13889TIP3   OH263081   2.721   1.076  14.563 -0.4082  0.5183 -0.6537
13889TIP3    H163082   2.777   1.003  14.590  2.4019  2.3795 -1.2560
13889TIP3    H263083   2.687   1.050  14.477  1.2888  0.2811 -1.2641
13890TIP3   OH263084   1.445   0.089   5.166 -1.1087  0.0066 -0.1291
13890TIP3    H163085   1.470   0.075   5.257 -0.9450  1.4224  0.0494
13890TIP3    H263086   1.497   0.165   5.138  0.8356 -1.9950 -2.1940
13891TIP3   OH263087   3.838   4.917   4.609  0.6626 -0.0975  0.0444
13891TIP3    H163088   3.879   4.913   4.696  1.8665 -0.1130 -0.5186
13891TIP3    H263089   3.877   4.994   4.568 -1.6605  1.3159  0.3841
13892TIP3   OH263090   1.317   5.011  12.037  0.2730  0.5351  0.3143
13892TIP3    H163091   1.381   5.039  12.102 -0.5413  1.0402  0.9079
13892TIP3    H263092   1.349   4.926  12.007  0.7828  0.4066  1.2078
13893TIP3   OH263093   4.704   4.602   6.086  0.4479  0.5407 -0.3357
13893TIP3    H163094   4.648   4.598   6.008  0.4246  0.6454 -0.3237
13893TIP3    H263095   4.698   4.693   6.115  1.3546  0.7804 -0.8697
13894TIP3   OH263096   1.550   0.680  12.229 -0.5164 -0.3817 -0.1695
13894TIP3    H163097   1.552   0.758  12.175 -1.2018 -0.0857  0.2326
13894TIP3    H263098   1.458   0.653  12.230 -0.4630 -0.5397  0.6269
13895TIP3   OH263099   1.866   4.157  11.718 -0.8441 -0.0270  0.1304
13895TIP3    H163100   1.797   4.170  11.783 -2.0377 -0.9976 -0.8869
13895TIP3    H263101   1.914   4.080  11.749 -0.8877  0.0155  0.3005
13896TIP3   OH263102   5.713   1.729  15.838  0.0672 -0.5853 -0.5308
13896TIP3    H163103   5.748   1.770  15.758 -0.1490 -3.1254 -1.9729
13896TIP3    H263104   5.627   1.770  15.849  0.5139  0.5134 -1.0195
13897TIP3   OH263105   3.861   1.154  11.177  0.0736  0.5246  0.5753
13897TIP3    H163106   3.890   1.160  11.268 -2.3766  1.3977  1.3371
13897TIP3    H263107   3.769   1.129  11.183 -0.1150  0.6033 -1.6799
13898TIP3   OH263108   0.459   6.056  11.861 -0.3265 -0.3827 -0.5280
13898TIP3    H163109   0.479   5.992  11.930  1.0565 -1.3051 -1.7410
13898TIP3    H263110   0.366   6.046  11.845 -0.2052 -1.8113 -0.3932
13899TIP3   OH263111   5.275   5.862   4.279 -0.1607  0.2787  0.0749
13899TIP3    H163112   5.346   5.926   4.267 -1.1227  1.1229 -1.2662
13899TIP3    H263113   5.206   5.911   4.323  0.3742 -0.7652  2.1467
13900TIP3   OH263114   6.389   6.358  10.528  0.6997 -0.2293 -0.6938
13900TIP3    H163115   6.456   6.382  10.591  0.4565 -0.6651 -0.2657
13900TIP3    H263116   6.319   6.318  10.580 -0.2503  0.9552 -1.0481
13901TIP3   OH263117   2.251   0.572  16.283  0.3825  0.2602  0.2842
13901TIP3    H163118   2.253   0.555  16.189  0.4295  2.4469 -0.1358
13901TIP3    H263119   2.160   0.596  16.301  0.8878  2.2600  0.3181
13902TIP3   OH263120   6.544   1.171   3.928 -0.4967 -0.3267 -0.5206
13902TIP3    H163121   6.492   1.097   3.959 -0.0758 -0.1148  0.7371
13902TIP3    H263122   6.620   1.173   3.986 -0.7318  1.3487 -0.2404
13903TIP3   OH263123   1.869   3.169   3.788 -0.0312 -0.0970 -0.0188
13903TIP3    H163124   1.832   3.156   3.875 -0.1337  1.1270  0.1354
13903TIP3    H263125   1.872   3.264   3.777 -4.4390 -0.1587 -3.1920
13904TIP3   OH263126   0.802   1.654   0.196 -0.4438  0.0091 -0.1680
13904TIP3    H163127   0.810   1.729   0.254 -2.6113  0.5253 -0.4871
13904TIP3    H263128   0.836   1.580   0.246  0.6737  1.0108  0.5508
13905TIP3   OH263129   3.893   0.959   0.241 -0.4331 -0.0877  0.5751
13905TIP3    H163130   3.945   0.996   0.312  0.6133  1.7329 -1.0656
13905TIP3    H263131   3.894   1.027   0.173  1.7926 -3.1519 -2.6872
13906TIP3   OH263132   6.440   4.228   4.960 -0.4852  0.0688 -0.1942
13906TIP3    H163133   6.502   4.209   5.030 -1.0553 -1.7068 -0.1680
13906TIP3    H263134   6.404   4.143   4.935 -0.6598  0.7216 -2.3104
13907TIP3   OH263135   2.165   5.594  12.707 -0.4318  0.3211 -0.1239
13907TIP3    H163136   2.071   5.578  12.718 -0.5903  1.2135 -0.1336
13907TIP3    H263137   2.170   5.684  12.675  0.3901  0.0391 -0.8088
13908TIP3   OH263138   4.512   4.939  14.347 -0.3741 -0.1442  0.6707
13908TIP3    H163139   4.584   4.876  14.348 -0.1312  0.0828 -1.0920
13908TIP3    H263140   4.475   4.934  14.435 -0.0626 -2.4059  0.7101
13909TIP3   OH263141   5.114   2.207  17.051 -0.0190 -0.2982 -0.6153
13909TIP3    H163142   5.029   2.229  17.090  0.5262 -0.8683  0.9076
13909TIP3    H263143   5.158   2.292  17.043  0.3814 -0.3010  1.2610
13910TIP3   OH263144   6.003   2.569   2.775  0.2018  0.2139  0.0444
13910TIP3    H163145   5.971   2.501   2.716 -0.5235 -1.2799  2.0998
13910TIP3    H263146   5.929   2.627   2.788  0.2746  0.3796 -0.2757
13911TIP3   OH263147   1.403   6.109   3.018 -0.0443 -0.0759 -0.7293
13911TIP3    H163148   1.483   6.070   3.055  0.3747  0.5430 -0.9798
13911TIP3    H263149   1.332   6.072   3.070  0.4547 -0.1382 -0.0865
13912TIP3   OH263150   0.226   6.258   3.495 -0.3290 -0.1458  0.1641
13912TIP3    H163151   0.216   6.210   3.577 -0.8250 -3.1231 -1.5570
13912TIP3    H263152   0.137   6.282   3.471 -0.1752  0.7949  0.5041
13913TIP3   OH263153   6.278   6.142   2.452 -0.2749  0.6956 -0.3342
13913TIP3    H163154   6.335   6.066   2.439  0.2987  0.8667  1.0647
13913TIP3    H263155   6.195   6.104   2.480 -0.7036  0.4759 -1.8434
13914TIP3   OH263156   5.003   4.070  14.099 -0.3204 -0.2415 -0.4352
13914TIP3    H163157   5.001   4.030  14.186  1.1005 -1.2053 -0.8250
13914TIP3    H263158   4.915   4.055  14.063 -0.6082 -0.6964  0.4501
13915TIP3   OH263159   5.358   5.213   2.222 -0.1441  0.1318 -0.3676
13915TIP3    H163160   5.440   5.251   2.193 -0.2095  0.5362 -0.0272
13915TIP3    H263161   5.379   5.168   2.303 -0.4591  1.0799  0.2451
13916TIP3   OH263162   4.952   2.204  12.553 -0.1137  0.3437 -0.0027
13916TIP3    H163163   4.940   2.298  12.570 -0.1198  0.1473  1.1365
13916TIP3    H263164   4.986   2.200  12.464  0.6017  1.4717  0.2080
13917TIP3   OH263165   0.847   5.815   1.680  0.3426 -0.2331 -0.3618
13917TIP3    H163166   0.833   5.743   1.743  0.2747 -0.5198 -0.7043
13917TIP3    H263167   0.932   5.795   1.641  0.3490 -0.0946 -0.4149
13918TIP3   OH263168   1.538   3.182  12.205 -0.3179  0.7711 -0.1211
13918TIP3    H163169   1.598   3.124  12.157  0.3019  0.6781  0.7606
13918TIP3    H263170   1.473   3.209  12.139  1.3363  1.7735 -1.3739
13919TIP3   OH263171   5.747   1.795   5.034  0.3600 -0.2274 -0.1024
13919TIP3    H163172   5.805   1.726   5.002 -3.5175 -3.0043 -1.4758
13919TIP3    H263173   5.705   1.757   5.111 -1.6341  0.6451 -0.7342
13920TIP3   OH263174   1.432   0.344  16.808 -0.7919  0.5438 -0.2655
13920TIP3    H163175   1.486   0.321  16.732 -1.6259  1.2016 -1.0668
13920TIP3    H263176   1.369   0.408  16.774 -0.6742  1.4338  1.1668
13921TIP3   OH263177   3.910   5.887   3.856 -0.1261  0.3774  0.8432
13921TIP3    H163178   3.980   5.925   3.803  0.7582  0.1559  1.8428
13921TIP3    H263179   3.952   5.818   3.907 -1.1343  0.0144  1.2010
13922TIP3   OH263180   0.030   1.589  16.914 -0.4115 -0.8881  0.5339
13922TIP3    H163181   0.031   1.683  16.894 -1.1915 -1.0671 -0.4468
13922TIP3    H263182   0.075   1.581  16.998 -1.3356  0.5005  1.1798
13923TIP3   OH263183   2.894   1.013   0.771 -0.3309  0.3492  0.1971
13923TIP3    H163184   2.892   1.004   0.675 -0.4210 -0.6142  0.2869
13923TIP3    H263185   2.968   1.071   0.787  0.4687 -0.4798 -0.3964
13924TIP3   OH263186   6.730   2.328   5.852 -0.0466  0.0943 -0.6023
13924TIP3    H163187   6.784   2.300   5.925 -0.4425 -1.4845 -0.8942
13924TIP3    H263188   6.769   2.286   5.775 -2.5441 -2.3403 -0.6171
13925TIP3   OH263189   4.277   5.220  12.411 -0.0354  0.3732  0.9992
13925TIP3    H163190   4.316   5.299  12.373 -2.7419  0.8781 -0.9228
13925TIP3    H263191   4.295   5.227  12.505 -0.5372  3.4920  0.9375
13926TIP3   OH263192   6.765   0.218  13.660 -0.2781  0.5478 -0.1088
13926TIP3    H163193   6.824   0.184  13.728 -0.6141 -0.4244 -0.3011
13926TIP3    H263194   6.677   0.201  13.694 -0.4459  0.3901 -0.6321
13927TIP3   OH263195   1.545   4.178  16.761  0.4203 -0.0199  0.2064
13927TIP3    H163196   1.461   4.133  16.757  0.6054 -0.4471  1.1174
13927TIP3    H263197   1.522   4.271  16.753 -0.1651 -0.1119  0.7239
13928TIP3   OH263198   5.435   5.108   2.492  0.0221  0.0715 -0.4871
13928TIP3    H163199   5.383   5.029   2.507  0.1147  0.3513  1.4880
13928TIP3    H263200   5.439   5.151   2.578  3.0934  0.2945 -0.6793
13929TIP3   OH263201   0.986   0.476  13.276  0.3956 -0.1158  0.3957
13929TIP3    H163202   1.036   0.464  13.357  2.4590  1.4296 -0.6185
13929TIP3    H263203   0.909   0.527  13.303  1.0417  0.3379  1.4129
13930TIP3   OH263204   1.247   6.348   5.286  0.5846  0.7460  0.0496
13930TIP3    H163205   1.307   6.325   5.215  0.2865 -0.2444  0.1128
13930TIP3    H263206   1.275   6.435   5.314  0.2689  1.4397 -1.7508
13931TIP3   OH263207   4.741   3.674   5.174  0.6197  0.0065  0.0492
13931TIP3    H163208   4.819   3.630   5.207  0.4081  0.2892  0.9486
13931TIP3    H263209   4.770   3.763   5.155  0.1684  0.5623  1.8690
13932TIP3   OH263210   3.251   2.895   1.438  0.2806 -0.3604  0.2063
13932TIP3    H163211   3.254   2.906   1.533 -2.0450  0.1284  0.2492
13932TIP3    H263212   3.320   2.953   1.405  1.0890 -0.5205  1.5816
13933TIP3   OH263213   1.875   4.632   3.450  0.9071 -0.1670  0.2638
13933TIP3    H163214   1.912   4.719   3.437 -0.8767  0.6224  0.2376
13933TIP3    H263215   1.825   4.615   3.370  0.2634 -0.6899  0.7654
13934TIP3   OH263216   3.536   2.323  16.348  0.2735 -0.9106  0.1791
13934TIP3    H163217   3.577   2.279  16.274  1.5786  0.3262  0.1360
13934TIP3    H263218   3.576   2.410  16.349 -0.7646 -0.4300  1.4827
13935TIP3   OH263219   3.084   1.962  15.685  0.4403  0.4668  0.2850
13935TIP3    H163220   3.028   1.999  15.754 -0.7447 -1.0113  0.1592
13935TIP3    H263221   3.142   1.901  15.731  1.7128  1.7157  0.3616
13936TIP3   OH263222   6.521   2.631  12.107  0.0531  0.0108  0.6043
13936TIP3    H163223   6.493   2.707  12.057 -0.7222 -1.1724 -0.8007
13936TIP3    H263224   6.449   2.568  12.099  1.1118 -1.2768  0.8519
13937TIP3   OH263225   5.723   3.201  12.755 -0.3966  0.4011  0.1199
13937TIP3    H163226   5.635   3.213  12.717  0.3750 -0.6094 -2.1072
13937TIP3    H263227   5.770   3.151  12.689  2.0257  1.3370  1.0828
13938TIP3   OH263228   6.377   6.517  14.142  0.1217  0.7979  0.0472
13938TIP3    H163229   6.354   6.428  14.169 -0.3634  1.1021  0.6552
13938TIP3    H263230   6.454   6.506  14.086  0.7830  0.0958  1.0726
13939TIP3   OH263231   2.357   1.086  12.130  0.0367 -0.4630  0.0014
13939TIP3    H163232   2.280   1.134  12.100  1.2644  2.1859  0.9812
13939TIP3    H263233   2.365   1.013  12.068 -1.1077  1.3366 -2.3462
13940TIP3   OH263234   0.802   3.237   0.664 -0.8420 -0.1052  0.7661
13940TIP3    H163235   0.823   3.154   0.621  2.2124  0.7440  0.4889
13940TIP3    H263236   0.841   3.229   0.751  0.2922  1.3666  0.4156
13941TIP3   OH263237   2.152   6.255   0.495 -0.0351 -0.1847  0.2881
13941TIP3    H163238   2.116   6.328   0.444  0.3662 -0.4042 -0.3112
13941TIP3    H263239   2.081   6.229   0.553 -0.6463 -0.2235 -0.4740
13942TIP3   OH263240   2.351   5.676   3.554 -0.3886 -0.2534  0.1085
13942TIP3    H163241   2.318   5.592   3.585 -0.5092 -0.3423 -0.2542
13942TIP3    H263242   2.282   5.708   3.496 -1.0201  0.8015  1.4163
13943TIP3   OH263243   5.528   2.231   4.076  0.1249  0.2711 -0.2928
13943TIP3    H163244   5.438   2.211   4.052 -0.2342  2.4785 -0.9549
13943TIP3    H263245   5.562   2.151   4.116 -1.6017 -1.1115 -1.5514
13944TIP3   OH263246   3.307   1.677   2.124  0.2197  0.7845 -1.1104
13944TIP3    H163247   3.290   1.588   2.092 -0.6136  0.9167 -1.0413
13944TIP3    H263248   3.402   1.685   2.122  0.2900 -0.0403 -1.3126
13945TIP3   OH263249   0.024   6.115   0.617 -0.1471  0.6614 -0.5628
13945TIP3    H163250   0.026   6.047   0.550  0.4620 -0.2805  0.4144
13945TIP3    H263251  -0.047   6.089   0.676 -0.0531  0.9934 -0.2996
13946TIP3   OH263252   5.210   6.372  14.175 -0.0042 -0.0292  0.0089
13946TIP3    H163253   5.253   6.420  14.245  0.5530 -0.9511  0.2941
13946TIP3    H263254   5.144   6.318  14.219  0.9191 -1.2380 -0.1009
13947TIP3   OH263255   6.252   6.627   3.320 -0.3465 -0.0585  0.2759
13947TIP3    H163256   6.216   6.560   3.377  0.7060 -0.3440  0.6259
13947TIP3    H263257   6.285   6.580   3.244 -0.0358  0.1045  0.3052
13948TIP3   OH263258   0.863   0.482  10.809 -0.1662 -0.3071 -0.2148
13948TIP3    H163259   0.898   0.423  10.743  1.2365  0.5497 -0.2599
13948TIP3    H263260   0.774   0.503  10.778 -0.4577 -1.9015 -0.4916
13949TIP3   OH263261   0.129   3.233   3.655 -0.1747 -0.1282  0.6392
13949TIP3    H163262   0.153   3.149   3.693  0.8658 -0.7688 -1.3407
13949TIP3    H263263   0.206   3.259   3.604 -1.8647  0.1448 -1.9048
13950TIP3   OH263264   1.036   3.027   3.645  0.1691  0.2165  0.0848
13950TIP3    H163265   1.031   3.010   3.739 -0.1456 -0.6297 -0.0733
13950TIP3    H263266   1.068   3.117   3.638 -0.1206  0.3999  1.0010
13951TIP3   OH263267   4.197   5.406   3.474  0.1098  0.2539  0.1861
13951TIP3    H163268   4.169   5.398   3.383  0.2564  1.1177  0.0582
13951TIP3    H263269   4.228   5.319   3.498  0.0730  0.0277 -0.5891
13952TIP3   OH263270   4.064   1.569  12.312 -0.2218  0.5440  0.7070
13952TIP3    H163271   3.974   1.550  12.338 -0.4340  0.9590  0.2913
13952TIP3    H263272   4.082   1.654  12.352 -0.3965  0.9762 -0.1280
13953TIP3   OH263273   0.311   6.294  16.875  0.1134 -0.0839  0.5036
13953TIP3    H163274   0.370   6.293  16.800  0.1155  1.2728  0.4676
13953TIP3    H263275   0.251   6.221  16.860  1.9140 -1.6426  0.6714
13954TIP3   OH263276   6.464   1.353   0.784  0.3032  0.1719  0.3693
13954TIP3    H163277   6.537   1.345   0.845 -0.1718 -0.1752  0.8988
13954TIP3    H263278   6.397   1.295   0.820 -0.0047  0.0139 -0.4495
13955TIP3   OH263279   3.683   0.786   3.475 -0.4344  0.3979  1.1783
13955TIP3    H163280   3.590   0.791   3.500 -0.3753  0.0123  1.4695
13955TIP3    H263281   3.718   0.713   3.526 -0.5856 -1.1218 -0.8341
13956TIP3   OH263282   3.999   5.023  16.817 -0.2212  0.4992  0.5638
13956TIP3    H163283   4.051   4.984  16.746  1.6503  2.0980  1.0359
13956TIP3    H263284   3.962   4.947  16.863  1.5204 -0.6798  0.0868
13957TIP3   OH263285   3.954   2.808   3.895  0.3311  0.3937  0.0239
13957TIP3    H163286   4.000   2.725   3.899 -1.2008 -0.3973  2.5526
13957TIP3    H263287   3.888   2.796   3.826  0.4644 -0.3062  0.0192
13958TIP3   OH263288   6.153   5.847   3.962 -0.0820 -0.5370 -0.3630
13958TIP3    H163289   6.227   5.877   3.910 -0.6740  0.7238 -0.4828
13958TIP3    H263290   6.193   5.808   4.040  0.6998  0.4015 -0.2826
13959TIP3   OH263291   5.601   1.294  16.459  0.1736 -0.3342  0.1576
13959TIP3    H163292   5.568   1.323  16.545  2.7190  1.3773  0.6086
13959TIP3    H263293   5.688   1.259  16.478  0.1916 -1.2243 -1.5542
13960TIP3   OH263294   2.515   1.939   5.450  0.1783  0.4399 -0.1175
13960TIP3    H163295   2.471   1.854   5.453  1.0910  0.0046  1.4576
13960TIP3    H263296   2.572   1.940   5.528  0.2261  2.4583 -0.1420
13961TIP3   OH263297   2.327   0.744   1.925  0.0781 -0.1649 -0.0746
13961TIP3    H163298   2.318   0.745   1.830 -0.0865  1.8401 -0.0630
13961TIP3    H263299   2.239   0.726   1.957 -0.3195  1.3025 -0.2872
13962TIP3   OH263300   0.663   3.196  16.120  0.6223 -0.2843 -0.3564
13962TIP3    H163301   0.731   3.173  16.058  0.4275  1.5337 -1.2843
13962TIP3    H263302   0.709   3.242  16.191  0.4039  0.8556 -0.9329
13963TIP3   OH263303   3.536   2.667   3.306 -0.2593 -0.1528 -0.0764
13963TIP3    H163304   3.565   2.642   3.218  1.0839  0.9297  0.0434
13963TIP3    H263305   3.595   2.621   3.365  1.6674  2.5329  0.1607
13964TIP3   OH263306   1.653   2.596  16.962  0.2700 -0.4728 -0.0923
13964TIP3    H163307   1.625   2.648  16.887  2.8769 -0.7154 -1.3003
13964TIP3    H263308   1.706   2.656  17.015 -0.0446 -0.7946  0.5887
13965TIP3   OH263309   3.781   4.439   1.922 -0.2504 -0.0961 -0.3171
13965TIP3    H163310   3.776   4.351   1.960 -1.4649 -0.1523 -0.6012
13965TIP3    H263311   3.713   4.489   1.968  1.0003  0.9323  0.4420
13966TIP3   OH263312   4.818   3.182  14.030 -0.5871  0.3500 -0.3441
13966TIP3    H163313   4.873   3.157  14.105 -1.2236 -0.1389 -0.0402
13966TIP3    H263314   4.868   3.152  13.954  1.4528  3.4130 -0.3109
13967TIP3   OH263315   5.143   1.281  15.402  0.0110  0.3549 -0.0622
13967TIP3    H163316   5.206   1.353  15.410 -1.5076  1.4826  2.0747
13967TIP3    H263317   5.109   1.289  15.313 -1.4395  3.4082  0.7148
13968TIP3   OH263318   1.435   5.310  16.043  0.0788  0.1884 -0.5608
13968TIP3    H163319   1.393   5.387  16.082 -0.4557  0.4643 -1.6426
13968TIP3    H263320   1.522   5.341  16.020  0.1574  0.2269 -0.2157
13969TIP3   OH263321   4.425   4.159   2.126  0.3423 -0.8951 -0.0658
13969TIP3    H163322   4.435   4.082   2.183  0.5441 -0.8667 -0.0603
13969TIP3    H263323   4.432   4.124   2.038  0.5000 -0.8739 -0.0620
13970TIP3   OH263324   1.425   5.697   3.748 -0.4387  0.6460  0.0849
13970TIP3    H163325   1.479   5.637   3.696  1.6104  1.5189  1.1637
13970TIP3    H263326   1.361   5.640   3.791  1.2333 -0.7403  0.7940
13971TIP3   OH263327   0.460   0.198   1.081  0.3997  0.0510  0.5324
13971TIP3    H163328   0.455   0.278   1.029  0.6904 -1.3690 -1.7589
13971TIP3    H263329   0.552   0.191   1.108 -0.0307  1.5115  2.4566
13972TIP3   OH263330   2.872   2.598  13.534 -0.2689  0.4448  0.3749
13972TIP3    H163331   2.828   2.524  13.492 -1.8169  1.4076  0.2647
13972TIP3    H263332   2.803   2.643  13.582  0.6105  1.9580  0.2459
13973TIP3   OH263333   5.558   4.326  13.766 -0.2369  0.2116  0.0614
13973TIP3    H163334   5.617   4.270  13.716 -0.8592 -0.2908 -0.1167
13973TIP3    H263335   5.482   4.270  13.784 -1.4737  1.4029 -1.3053
13974TIP3   OH263336   5.077   3.836   3.206 -0.2440  0.3339 -0.1574
13974TIP3    H163337   4.988   3.820   3.238  0.1871 -2.2023 -0.0745
13974TIP3    H263338   5.117   3.893   3.272 -1.3993  0.4269  0.4744
13975TIP3   OH263339   3.095   5.995   2.739  0.0095 -0.3280 -0.5615
13975TIP3    H163340   3.110   5.905   2.767 -1.1156 -0.7036 -1.0982
13975TIP3    H263341   3.045   6.035   2.812  1.0344  0.0467 -0.0584
13976TIP3   OH263342   1.367   2.101  13.850  0.6216  0.7251 -0.0258
13976TIP3    H163343   1.292   2.161  13.849 -1.2661 -1.5951 -0.2665
13976TIP3    H263344   1.411   2.116  13.767 -0.5989  0.8513 -0.6523
13977TIP3   OH263345   1.183   5.088  11.376  0.1943 -0.6517  0.4333
13977TIP3    H163346   1.172   5.166  11.431  0.7832 -0.9424  0.9833
13977TIP3    H263347   1.228   5.120  11.298 -0.7802 -0.2072  0.0506
13978TIP3   OH263348   5.798   2.584   2.382  0.3687  0.6379  0.3745
13978TIP3    H163349   5.792   2.509   2.441  1.5899  0.4519  0.2716
13978TIP3    H263350   5.880   2.571   2.334  0.3793  1.8120  0.0513
13979TIP3   OH263351   2.887   3.013   5.711 -0.6652 -0.2847 -0.1389
13979TIP3    H163352   2.887   2.918   5.717  0.3356 -0.1825  1.8664
13979TIP3    H263353   2.957   3.033   5.648 -0.3194 -0.8429  0.0641
13980TIP3   OH263354   1.846   4.259  16.483  0.6478 -0.0068 -0.0294
13980TIP3    H163355   1.942   4.256  16.491  0.6534 -0.2539 -0.1864
13980TIP3    H263356   1.832   4.292  16.394  0.5866  1.3306  0.4548
13981TIP3   OH263357   2.517   5.847  15.232  0.7637 -0.2493  0.1736
13981TIP3    H163358   2.554   5.812  15.151  0.1412  0.3790 -0.3950
13981TIP3    H263359   2.440   5.897  15.204  1.9128  1.9836  0.9108
13982TIP3   OH263360   4.646   5.330  15.317 -0.1072  0.2642 -0.3027
13982TIP3    H163361   4.683   5.250  15.279 -0.8624 -1.8038  3.0650
13982TIP3    H263362   4.553   5.325  15.299  0.1822  1.7854 -2.3953
13983TIP3   OH263363   6.119   4.688   1.552 -0.3611 -0.2753 -0.4065
13983TIP3    H163364   6.159   4.721   1.632  0.4130 -2.0497 -0.0331
13983TIP3    H263365   6.030   4.664   1.577 -0.3831 -0.0480 -0.2734
13984TIP3   OH263366   3.296   3.413   0.804  0.7914  0.1899 -0.6082
13984TIP3    H163367   3.208   3.428   0.837  0.4255 -0.8593 -1.0860
13984TIP3    H263368   3.284   3.366   0.721  1.7910 -0.1499 -0.5783
13985TIP3   OH263369   1.087   0.326  16.519 -0.4095  0.0625 -0.1902
13985TIP3    H163370   1.061   0.414  16.546  1.6372  0.2802  1.2204
13985TIP3    H263371   1.044   0.268  16.582 -0.2190  0.1802  0.0478
13986TIP3   OH263372   3.794   3.788  12.036 -0.1799  0.7145 -0.1151
13986TIP3    H163373   3.767   3.866  11.988 -3.4074  1.0753  2.1694
13986TIP3    H263374   3.869   3.817  12.089  0.4966  1.4528 -1.4416
13987TIP3   OH263375   4.132   1.081  12.794  0.2477 -0.2407  0.2995
13987TIP3    H163376   4.220   1.046  12.785  0.5854  0.3257  1.2538
13987TIP3    H263377   4.143   1.159  12.849 -0.5026  1.2937 -1.6886
13988TIP3   OH263378   6.728   3.619   0.365 -0.3452 -0.2671 -0.1559
13988TIP3    H163379   6.695   3.611   0.455  0.2735 -0.0530  0.0878
13988TIP3    H263380   6.749   3.529   0.340 -1.2492 -0.4303 -0.3693
13989TIP3   OH263381   4.966   5.072  16.991  0.0972 -0.5167  0.3046
13989TIP3    H163382   4.928   5.148  17.036  0.3460 -0.1871 -0.0445
13989TIP3    H263383   4.914   5.062  16.912  2.9346  2.1330 -2.0125
13990TIP3   OH263384   0.387   5.530   1.057  0.9926  0.9233  0.2888
13990TIP3    H163385   0.433   5.586   1.120  1.2977  0.3890  0.5470
13990TIP3    H263386   0.454   5.469   1.026  0.6669  0.7102 -0.0013
13991TIP3   OH263387   2.007   0.204  14.237 -0.0644 -0.1264 -0.4223
13991TIP3    H163388   1.925   0.156  14.251  0.6080 -0.9389  0.8616
13991TIP3    H263389   1.988   0.263  14.165 -1.6776 -0.5636 -0.3804
13992TIP3   OH263390   1.256   1.793   4.086 -0.2470  0.0591  0.1381
13992TIP3    H163391   1.185   1.857   4.085  0.1238  0.4852  0.9627
13992TIP3    H263392   1.241   1.742   4.166 -0.4754 -0.8139 -0.4525
13993TIP3   OH263393   6.086   5.685  13.078  0.2946  0.1599  0.2254
13993TIP3    H163394   6.159   5.656  13.133  0.4141 -1.6672 -0.8515
13993TIP3    H263395   6.128   5.732  13.006  0.2990  0.2516  0.2878
13994TIP3   OH263396   1.704   3.638  12.080  0.0193 -0.4925  0.9642
13994TIP3    H163397   1.687   3.565  12.139 -0.5720 -2.2585 -1.3042
13994TIP3    H263398   1.798   3.653  12.087  0.0960 -1.2604  1.7084
13995TIP3   OH263399   1.342   5.847   1.596 -0.9552 -1.1396 -0.1186
13995TIP3    H163400   1.401   5.796   1.541 -0.3404  0.4881 -1.0192
13995TIP3    H263401   1.379   5.842   1.684  1.5663  1.3128 -0.9801
13996TIP3   OH263402   5.985   2.294  11.293  0.0180 -0.3585 -0.3156
13996TIP3    H163403   5.918   2.281  11.361 -1.2779  3.1273 -0.7961
13996TIP3    H263404   6.054   2.343  11.337  0.7642 -1.1250 -0.6392
13997TIP3   OH263405   1.603   2.342   2.216  0.2932 -0.3177 -0.1993
13997TIP3    H163406   1.641   2.429   2.201 -0.4832 -0.5345 -4.0944
13997TIP3    H263407   1.527   2.358   2.272  0.6948  1.3930 -0.1148
13998TIP3   OH263408   0.135   4.102  15.913  0.3077 -0.2555 -0.1670
13998TIP3    H163409   0.097   4.103  15.825  0.0398 -0.8234 -0.0573
13998TIP3    H263410   0.065   4.071  15.969  0.3862  0.3958  0.2984
13999TIP3   OH263411   0.107   4.721  12.661 -0.5004 -0.0422 -0.3381
13999TIP3    H163412   0.162   4.719  12.740 -0.4555 -0.0708 -0.3705
13999TIP3    H263413   0.043   4.789  12.679 -1.0017 -0.6154  0.0597
14000TIP3   OH263414   4.021   2.914   3.543  0.1875 -0.1034 -0.0419
14000TIP3    H163415   3.979   2.998   3.560  1.0198 -0.0321  1.7580
14000TIP3    H263416   4.091   2.908   3.608  0.8056 -1.7215 -0.8266
14001TIP3   OH263417   6.173   3.672   3.120 -0.3086  0.4725  0.4534
14001TIP3    H163418   6.097   3.712   3.077  0.6852  0.1495 -1.6864
14001TIP3    H263419   6.175   3.582   3.087  0.1475  0.0272  1.6586
14002TIP3   OH263420   1.417   1.607   2.012 -0.2441 -0.3032  0.3582
14002TIP3    H163421   1.491   1.656   2.048  0.9146 -1.6874 -0.0791
14002TIP3    H263422   1.441   1.592   1.920 -2.2347  1.4248 -0.4777
14003TIP3   OH263423   2.365   6.437  13.935  0.6104 -0.5144 -0.4146
14003TIP3    H163424   2.331   6.514  13.980 -0.6114 -1.2369 -0.0831
14003TIP3    H263425   2.427   6.398  13.997 -0.9046 -1.3832  0.5722
14004TIP3   OH263426   1.450   4.999   6.242 -0.2355 -0.0976 -0.4684
14004TIP3    H163427   1.377   4.954   6.284 -0.4411 -0.2782 -1.0203
14004TIP3    H263428   1.431   5.092   6.254  0.2470 -0.1455  0.7741
14005TIP3   OH263429   4.515   0.011  16.330 -0.3442  0.0672 -0.4343
14005TIP3    H163430   4.427  -0.015  16.303  0.4976  1.4035 -4.8306
14005TIP3    H263431   4.501   0.090  16.383 -1.8150  0.3803 -1.2576
14006TIP3   OH263432   4.738   3.430   3.604  0.1597  0.1997 -0.7371
14006TIP3    H163433   4.832   3.447   3.606  0.2083 -0.1366 -0.1166
14006TIP3    H263434   4.708   3.451   3.693 -0.6461  1.9687 -1.4077
14007TIP3   OH263435   5.948   2.490  17.003  0.0118 -0.0603  0.3125
14007TIP3    H163436   5.883   2.510  16.936  2.4338  3.6147 -1.0375
14007TIP3    H263437   5.986   2.407  16.974 -0.4183  0.4157 -1.7206
14008TIP3   OH263438   2.215   6.778   3.757 -0.2780  0.6941 -0.3026
14008TIP3    H163439   2.139   6.804   3.808 -0.4874  0.6253 -0.5776
14008TIP3    H263440   2.196   6.807   3.668  0.7484  2.1860 -0.0647
14009TIP3   OH263441   4.520   6.311  16.279 -0.6417  0.4022 -0.7694
14009TIP3    H163442   4.572   6.244  16.322 -0.7489 -0.4461 -1.9389
14009TIP3    H263443   4.537   6.391  16.329 -0.5071 -0.4843  0.6275
14010TIP3   OH263444   4.989   2.927   1.606  0.0975 -0.2751 -0.3496
14010TIP3    H163445   4.981   2.893   1.695 -0.7647  0.3227 -0.1934
14010TIP3    H263446   5.036   3.009   1.616  0.1743 -0.3033 -0.4739
14011TIP3   OH263447   6.758   4.233   0.597  0.8047 -0.5216 -0.2967
14011TIP3    H163448   6.778   4.142   0.616 -1.1510 -0.8056  0.4556
14011TIP3    H263449   6.764   4.278   0.681 -1.6341 -0.6234 -0.0233
14012TIP3   OH263450   5.411   3.595  12.431 -1.2497 -0.2341 -0.0858
14012TIP3    H163451   5.417   3.684  12.466  0.2889  0.6025 -2.3360
14012TIP3    H263452   5.318   3.573  12.435 -1.8653  2.1092 -0.9836
14013TIP3   OH263453   6.402   6.636   2.624 -0.3994  0.5030  0.5998
14013TIP3    H163454   6.430   6.654   2.534 -0.8646 -0.2211  0.3080
14013TIP3    H263455   6.471   6.580   2.659 -0.6336  0.1090  0.4288
14014TIP3   OH263456   6.073   4.941   2.242 -0.0973 -0.3760 -0.1466
14014TIP3    H163457   6.152   4.974   2.200 -0.9557  2.2043  0.1603
14014TIP3    H263458   6.012   4.924   2.170  0.2119 -0.9403 -0.2784
14015TIP3   OH263459   3.217   0.878   2.938  0.2937  0.0472 -0.3290
14015TIP3    H163460   3.178   0.962   2.913  1.0262 -0.1770 -2.2673
14015TIP3    H263461   3.145   0.815   2.929 -0.2427  0.4371  1.0799
14016TIP3   OH263462   5.741   0.929  16.091 -0.0549  0.3463  0.1861
14016TIP3    H163463   5.805   0.967  16.152 -0.8413  0.8788  0.6832
14016TIP3    H263464   5.663   0.914  16.144 -1.0439  1.6261 -0.8713
14017TIP3   OH263465   0.030   2.645  13.605 -1.0279 -0.0952 -0.3246
14017TIP3    H163466  -0.050   2.610  13.644 -1.0195  0.6367  0.3523
14017TIP3    H263467   0.095   2.639  13.674 -0.3771 -1.0830 -1.0027
14018TIP3   OH263468   2.184   1.761   3.106  0.5688 -0.2073 -0.5000
14018TIP3    H163469   2.251   1.719   3.160 -0.1935 -0.6240  0.1322
14018TIP3    H263470   2.103   1.717   3.130 -0.3315  1.9409  0.4967
14019TIP3   OH263471   6.182   6.023   2.163  0.6042 -0.2030  0.0251
14019TIP3    H163472   6.261   6.071   2.189  0.3131 -0.6186  1.7552
14019TIP3    H263473   6.214   5.951   2.110  1.4867 -0.8857  1.4593
14020TIP3   OH263474   0.205   3.481  16.791  0.1281  0.2227  0.0079
14020TIP3    H163475   0.222   3.403  16.844  2.6046  1.7039  1.4822
14020TIP3    H263476   0.203   3.553  16.854 -1.9592  1.4100 -1.3461
14021TIP3   OH263477   3.197   5.846  11.722 -0.5247  0.5916  0.1933
14021TIP3    H163478   3.269   5.799  11.680 -0.7257  1.3719 -1.0466
14021TIP3    H263479   3.149   5.886  11.650 -1.6142  0.9229  1.0854
14022TIP3   OH263480   4.977   1.062   4.652  0.2572  0.6572 -0.3411
14022TIP3    H163481   4.886   1.031   4.658  0.2527  0.8798  0.7649
14022TIP3    H263482   4.969   1.158   4.651  0.4969  0.6779 -0.0667
14023TIP3   OH263483   0.703   3.766   0.956 -0.3595 -0.1144  0.0232
14023TIP3    H163484   0.641   3.729   1.020  2.2890 -0.6594  2.3790
14023TIP3    H263485   0.677   3.858   0.948  0.5277  0.5116  3.5476
14024TIP3   OH263486   3.447   3.417   0.127  0.3148 -0.2993  0.1380
14024TIP3    H163487   3.361   3.394   0.161  0.3403  3.0673  2.7287
14024TIP3    H263488   3.503   3.421   0.204  2.0985  0.3607 -1.1593
14025TIP3   OH263489   1.123   4.129   2.010  0.0247 -0.1959 -0.2491
14025TIP3    H163490   1.027   4.135   2.014  0.0047 -0.0906 -0.9589
14025TIP3    H263491   1.144   4.141   1.918  0.7333 -0.1133 -0.0741
14026TIP3   OH263492   3.904   1.189  15.621  0.0169  0.0848 -0.3632
14026TIP3    H163493   3.993   1.212  15.593 -0.7075  0.9930 -1.9491
14026TIP3    H263494   3.872   1.267  15.666  1.6520 -1.7888  4.3873
14027TIP3   OH263495   6.669   5.894  13.850 -0.5758  0.2349 -0.3023
14027TIP3    H163496   6.582   5.931  13.838 -1.4280 -1.4817  0.3742
14027TIP3    H263497   6.654   5.799  13.855  1.0901  0.0557  1.9557
14028TIP3   OH263498   3.661   4.813  14.467  0.3878 -0.0617 -0.5045
14028TIP3    H163499   3.712   4.894  14.463 -1.9154  1.4408 -0.9607
14028TIP3    H263500   3.601   4.819  14.393 -1.6857 -0.8455  1.0610
14029TIP3   OH263501   3.518   5.358  12.806  0.0467  0.6507 -0.0215
14029TIP3    H163502   3.442   5.300  12.809  0.1099  0.6101  1.4377
14029TIP3    H263503   3.573   5.323  12.736  0.2776 -1.3281  1.1058
14030TIP3   OH263504   2.709   6.058   1.181 -0.2929 -0.2273  0.0689
14030TIP3    H163505   2.643   6.122   1.151  1.0174 -0.1915 -2.9449
14030TIP3    H263506   2.678   5.974   1.146  0.6429 -0.4082 -0.3244
14031TIP3   OH263507   0.784   6.434   1.274 -0.0632  0.4328  0.3850
14031TIP3    H163508   0.873   6.434   1.239 -0.2237  0.6535 -0.0370
14031TIP3    H263509   0.738   6.366   1.225  0.4760 -1.3008  2.2237
14032TIP3   OH263510   0.515   2.708   1.941  0.0037 -0.5153  0.3801
14032TIP3    H163511   0.432   2.668   1.917  0.1882 -0.0951 -1.0378
14032TIP3    H263512   0.491   2.793   1.978 -0.2986 -1.2507  1.8980
14033TIP3   OH263513   4.548   5.777   6.027  0.3073  0.2791  0.0137
14033TIP3    H163514   4.567   5.842   6.094 -1.2713  1.8361 -1.0201
14033TIP3    H263515   4.570   5.693   6.068 -0.3720  1.2172  2.3661
14034TIP3   OH263516   3.431   3.530   5.701  0.1322  0.3399 -0.2220
14034TIP3    H163517   3.428   3.514   5.795  0.0582 -1.1649 -0.4710
14034TIP3    H263518   3.493   3.602   5.691 -0.8909  1.4463  1.0822
14035TIP3   OH263519   0.302   5.562   1.762 -0.0972 -0.0854 -0.0651
14035TIP3    H163520   0.277   5.501   1.831 -0.2781 -0.9527 -0.8887
14035TIP3    H263521   0.334   5.639   1.809 -1.0192 -0.3270  0.9876
14036TIP3   OH263522   5.303   0.111   2.804  0.1129  0.5100  1.1739
14036TIP3    H163523   5.291   0.171   2.878  0.0827  2.5601 -0.4402
14036TIP3    H263524   5.215   0.077   2.786 -0.3165  1.9118  0.5475
14037TIP3   OH263525   0.490   5.100  15.503 -0.1808 -0.7815 -0.0142
14037TIP3    H163526   0.432   5.136  15.571 -2.2425  0.8346 -2.4930
14037TIP3    H263527   0.431   5.054  15.443  1.4921 -1.6769 -1.0120
14038TIP3   OH263528   1.078   6.030   4.575  0.0669  0.7121 -0.2995
14038TIP3    H163529   1.052   6.117   4.607  0.9408  0.9490 -0.2288
14038TIP3    H263530   1.168   6.041   4.545  0.5537 -0.4191  0.6961
14039TIP3   OH263531   0.439   0.206  11.539 -0.2040  0.2414  0.1734
14039TIP3    H163532   0.453   0.144  11.611 -1.0426 -1.7764 -1.3785
14039TIP3    H263533   0.350   0.238  11.553 -1.1911 -1.8158 -1.1797
14040TIP3   OH263534   0.733   1.239  11.257 -0.5069 -0.4303 -0.4984
14040TIP3    H163535   0.690   1.324  11.274 -1.3121 -0.8083 -0.6235
14040TIP3    H263536   0.667   1.174  11.282  0.2392 -1.0280 -0.0596
14041TIP3   OH263537   2.288   3.485  11.061  0.0608 -0.4928  0.9238
14041TIP3    H163538   2.217   3.471  10.998 -1.1759  1.9045  1.7123
14041TIP3    H263539   2.268   3.424  11.133 -1.0728 -0.0478  1.0055
14042TIP3   OH263540   1.564   0.342  17.060 -0.0062  0.7822  0.0400
14042TIP3    H163541   1.495   0.282  17.032  0.0489  0.3747  0.7605
14042TIP3    H263542   1.521   0.402  17.121  0.4778 -0.0354  1.1846
14043TIP3   OH263543   6.288   5.233   3.160 -0.0070 -0.2037 -0.2073
14043TIP3    H163544   6.227   5.217   3.089 -1.4292 -0.6559  1.0837
14043TIP3    H263545   6.293   5.328   3.167  0.8776 -0.1388 -1.5059
14044TIP3   OH263546   6.569   6.185  16.816 -0.0243  0.5730  0.4279
14044TIP3    H163547   6.617   6.109  16.783 -0.7084  0.5660 -0.5595
14044TIP3    H263548   6.479   6.173  16.784 -0.1003  1.8766  0.1285
14045TIP3   OH263549   6.234   0.288   5.594  0.4018  0.2971  0.3751
14045TIP3    H163550   6.196   0.241   5.519  0.6794  1.2893 -0.4097
14045TIP3    H263551   6.163   0.346   5.623 -0.4038 -1.5556  2.2081
14046TIP3   OH263552   5.915   5.650  11.987  0.5561 -0.1007  0.2738
14046TIP3    H163553   5.847   5.612  11.931 -0.1356  0.5805  0.6521
14046TIP3    H263554   5.991   5.660  11.929 -0.6900  2.2047 -0.9905
14047TIP3   OH263555   0.423   0.881   2.437 -0.5217 -0.3093  0.1067
14047TIP3    H163556   0.496   0.839   2.483  1.5369 -2.5144 -4.7671
14047TIP3    H263557   0.350   0.820   2.448  0.5409 -1.8802 -1.2022
14048TIP3   OH263558   2.710   0.444  14.007 -0.0324  0.9240 -0.1605
14048TIP3    H163559   2.745   0.524  14.048  0.7324  0.9109 -0.7700
14048TIP3    H263560   2.728   0.456  13.913 -0.1673  0.1606 -0.2814
14049TIP3   OH263561   6.184   4.118  16.880  0.2033  0.0924  0.2018
14049TIP3    H163562   6.143   4.087  16.799  1.1141  1.1326 -0.6749
14049TIP3    H263563   6.112   4.122  16.943 -1.4105  3.2140 -1.6972
14050TIP3   OH263564   5.380   6.313   2.596 -0.1341  0.0665 -0.4626
14050TIP3    H163565   5.406   6.224   2.570  0.2972  0.7399 -2.3781
14050TIP3    H263566   5.414   6.369   2.527 -2.5366  1.4819 -0.5375
14051TIP3   OH263567   4.755   2.179   0.563  0.3848 -0.6353 -0.1061
14051TIP3    H163568   4.749   2.209   0.653  1.7552 -0.3440 -0.1050
14051TIP3    H263569   4.747   2.083   0.568 -0.3651 -0.5548  0.2362
14052TIP3   OH263570   5.388   0.068   3.543 -0.0044  0.0122 -0.2168
14052TIP3    H163571   5.301   0.030   3.550  0.3789 -1.6399 -3.5349
14052TIP3    H263572   5.447  -0.001   3.575  0.1031  1.5329  3.1061
14053TIP3   OH263573   4.825   3.062   3.675  0.0804 -0.0914 -0.0599
14053TIP3    H163574   4.890   3.113   3.628  0.3351 -0.5369 -0.1911
14053TIP3    H263575   4.796   3.120   3.746  0.3672  0.2314 -0.2047
14054TIP3   OH263576   2.662   6.740  15.896  0.0062 -0.5370 -0.2787
14054TIP3    H163577   2.575   6.725  15.933 -0.2581 -0.7655 -0.9683
14054TIP3    H263578   2.705   6.654  15.898  1.4756  0.2281  3.1530
14055TIP3   OH263579   2.298   1.962  16.513  0.9701 -0.6063 -0.9756
14055TIP3    H163580   2.232   1.919  16.458 -0.8723  2.5362 -1.3443
14055TIP3    H263581   2.375   1.969  16.457  0.4455 -1.1454 -1.7738
14056TIP3   OH263582   0.196   4.153   5.232  0.3159 -0.0331 -0.2090
14056TIP3    H163583   0.150   4.208   5.169 -0.0354 -0.6448 -0.4940
14056TIP3    H263584   0.264   4.110   5.181  1.4322  1.1114  0.2726
14057TIP3   OH263585   0.063   0.443   5.229  0.1621 -0.6981  0.4695
14057TIP3    H163586   0.008   0.483   5.297 -0.2993 -0.8430  0.1796
14057TIP3    H263587   0.149   0.434   5.271  0.2468  0.5048  0.5679
14058TIP3   OH263588   5.683   2.398   1.267  0.6102 -0.0004  0.3878
14058TIP3    H163589   5.744   2.378   1.338 -0.7170 -1.2859  1.1728
14058TIP3    H263590   5.641   2.480   1.294  1.8661  0.8323 -0.1037
14059TIP3   OH263591   4.854   6.242  16.146 -0.6600 -0.0792 -0.7504
14059TIP3    H163592   4.822   6.250  16.235 -1.4453  0.1489 -1.0519
14059TIP3    H263593   4.830   6.154  16.118  1.1436 -0.7959 -0.1347
14060TIP3   OH263594   0.134   5.423  17.007 -0.7966  0.2915  0.3399
14060TIP3    H163595   0.055   5.377  17.033 -1.9021  1.8965 -0.0586
14060TIP3    H263596   0.165   5.377  16.929 -1.8873  0.2294 -0.0557
14061TIP3   OH263597   5.207   5.998  14.441  0.6462  0.3257 -0.3042
14061TIP3    H163598   5.218   6.074  14.499  0.1571  0.8501 -0.8978
14061TIP3    H263599   5.255   5.928  14.485 -0.2454  0.5534  1.0564
14062TIP3   OH263600   2.920   1.643   0.463  0.3240  0.7974 -0.7392
14062TIP3    H163601   2.839   1.600   0.434  1.2520 -0.7495 -1.0795
14062TIP3    H263602   2.985   1.620   0.396  1.2660  1.2922 -0.0045
14063TIP3   OH263603   2.001   5.684   1.259 -0.3567 -0.4641 -0.3435
14063TIP3    H163604   1.922   5.636   1.234  0.5260 -1.8970 -0.4429
14063TIP3    H263605   2.034   5.636   1.335  0.6759 -0.1582 -0.6025
14064TIP3   OH263606   2.750   6.430   1.208  0.7018  0.7591  0.1557
14064TIP3    H163607   2.678   6.480   1.245 -0.4601 -1.2679  0.7393
14064TIP3    H263608   2.807   6.495   1.167 -1.6909  2.3590 -0.7282
14065TIP3   OH263609   6.379   2.521   3.152  0.4996 -1.0508 -0.8055
14065TIP3    H163610   6.360   2.428   3.140  1.0128 -1.3246  0.4715
14065TIP3    H263611   6.310   2.552   3.211  1.8577 -1.2247  0.8958
14066TIP3   OH263612   6.362   0.963   4.475 -0.3869  0.0709 -0.6909
14066TIP3    H163613   6.403   0.897   4.532  1.0098  1.5882  0.1221
14066TIP3    H263614   6.423   0.972   4.402 -0.9260 -0.0604 -1.1504
14067TIP3   OH263615   4.293   5.919   0.587 -0.2790 -0.6083  0.0586
14067TIP3    H163616   4.263   5.846   0.533 -0.8392  0.3045 -0.9006
14067TIP3    H263617   4.252   5.996   0.547  1.3964  0.3943  0.2116
14068TIP3   OH263618   0.289   0.537   0.398 -0.1004  0.1240 -0.0212
14068TIP3    H163619   0.277   0.444   0.378 -1.2578  0.2998 -0.2213
14068TIP3    H263620   0.348   0.569   0.330  0.7609 -0.5843  0.3858
14069TIP3   OH263621   6.454   0.458   5.261 -0.6330  0.5648  0.7784
14069TIP3    H163622   6.395   0.476   5.333  0.2367  3.2655  0.8757
14069TIP3    H263623   6.539   0.490   5.291 -0.0156  0.5993 -0.9441
14070TIP3   OH263624   5.563   5.423  13.633  0.3751 -0.1443  1.1000
14070TIP3    H163625   5.527   5.372  13.561  0.8966  1.4799 -0.3334
14070TIP3    H263626   5.487   5.463  13.675  0.3801  2.7654 -1.5206
14071TIP3   OH263627   3.488   5.543  14.361 -0.2448 -0.1360 -0.5010
14071TIP3    H163628   3.462   5.456  14.391  0.3540 -1.8703 -4.5436
14071TIP3    H263629   3.407   5.584  14.331 -0.0807 -0.6887 -1.7402
14072TIP3   OH263630   5.752   3.678   4.274 -0.4843  0.0396  0.2460
14072TIP3    H163631   5.724   3.752   4.328 -0.4518  0.8423 -0.8228
14072TIP3    H263632   5.839   3.656   4.306 -0.3049  0.7645  0.2565
14073TIP3   OH263633   2.515   3.694  12.424  0.3982  0.0864 -0.6277
14073TIP3    H163634   2.579   3.631  12.392  1.0796  0.9501 -0.9782
14073TIP3    H263635   2.568   3.765  12.461 -0.3472 -0.7227  2.1166
14074TIP3   OH263636   3.697   1.041   6.094 -0.6361  0.3591  0.4065
14074TIP3    H163637   3.636   0.987   6.144  0.2901  0.1321  1.2852
14074TIP3    H263638   3.676   1.021   6.002 -1.8045  0.1982  0.6927
14075TIP3   OH263639   6.721   0.562   4.293 -0.1764 -0.0485  0.1913
14075TIP3    H163640   6.720   0.631   4.227  1.1997  0.5834  0.8140
14075TIP3    H263641   6.633   0.563   4.330  0.0768  1.9598  0.7919
14076TIP3   OH263642   3.623   0.573  15.198  0.0290  0.5925  0.6911
14076TIP3    H163643   3.542   0.592  15.246 -0.6388  0.5624 -0.3869
14076TIP3    H263644   3.622   0.478  15.188 -1.7366  0.8638 -2.5331
14077TIP3   OH263645   5.399   1.601   4.868  0.4901 -0.4568  0.2201
14077TIP3    H163646   5.477   1.566   4.826  0.7184 -1.4071  1.4090
14077TIP3    H263647   5.418   1.596   4.962 -0.3283  0.8749  0.4749
14078TIP3   OH263648   5.554   0.480   5.176 -0.3159  0.0397  0.3669
14078TIP3    H163649   5.589   0.403   5.220 -2.9815 -2.4547 -1.7072
14078TIP3    H263650   5.473   0.499   5.222 -0.4465  0.6785 -0.1183
14079TIP3   OH263651   1.663   0.332  13.105 -0.1351 -0.2683 -0.4832
14079TIP3    H163652   1.715   0.351  13.183 -1.9656 -0.5301  0.8382
14079TIP3    H263653   1.709   0.377  13.034  1.5898 -0.0688  0.7245
14080TIP3   OH263654   2.310   4.134  12.173  0.5264 -0.0045  0.3653
14080TIP3    H163655   2.361   4.207  12.206 -0.5723 -0.1755  2.5226
14080TIP3    H263656   2.371   4.060  12.174  0.6113  0.0674  1.7363
14081TIP3   OH263657   3.953   1.095   5.215 -0.4337  0.0737  0.1181
14081TIP3    H163658   3.947   1.001   5.198 -1.0570 -0.2645  2.0427
14081TIP3    H263659   3.909   1.136   5.140 -0.4636 -1.1815 -0.5636
14082TIP3   OH263660   4.484   1.183  15.673  0.0435 -0.2168 -0.1021
14082TIP3    H163661   4.501   1.112  15.735  0.6419 -0.0991 -0.1328
14082TIP3    H263662   4.515   1.149  15.589 -2.0941 -0.9553 -0.6430
14083TIP3   OH263663   1.136   1.105  12.906 -0.2677 -0.0242  0.0879
14083TIP3    H163664   1.081   1.156  12.966  0.7193  0.6242  0.4514
14083TIP3    H263665   1.092   1.113  12.821 -0.8895  0.2520  0.4287
14084TIP3   OH263666   5.506   0.144   3.018 -0.2619 -0.0422 -0.2588
14084TIP3    H163667   5.470   0.074   2.963 -0.4651 -0.1707  0.0392
14084TIP3    H263668   5.486   0.117   3.108  0.1248  0.1383 -0.1178
14085TIP3   OH263669   2.798   1.997  15.211 -0.4848 -0.2731 -0.3618
14085TIP3    H163670   2.770   2.085  15.235  1.1080  0.0973  0.2114
14085TIP3    H263671   2.717   1.947  15.203 -1.3043  0.7116  1.4718
14086TIP3   OH263672   6.712   0.377  17.172  0.4854  0.5042  0.2689
14086TIP3    H163673   6.669   0.349  17.252 -2.4808  0.0658 -1.3895
14086TIP3    H263674   6.775   0.308  17.153  0.1138 -0.1556  1.4029
14087TIP3   OH263675   3.802   5.200  16.939 -0.4183  0.0844 -0.4050
14087TIP3    H163676   3.850   5.177  17.019 -1.7969 -1.4992  0.0033
14087TIP3    H263677   3.853   5.160  16.868 -0.5663 -0.6826 -0.0766
14088TIP3   OH263678   0.690   3.377   2.271  0.2384  0.1571  0.0839
14088TIP3    H163679   0.678   3.305   2.210  0.4248  1.2799 -1.2936
14088TIP3    H263680   0.725   3.335   2.350  0.9864 -1.1718 -0.9231
14089TIP3   OH263681   4.076   0.125  13.316 -0.3388 -0.3786 -0.0691
14089TIP3    H163682   4.120   0.118  13.401 -0.8088  1.3022  0.3268
14089TIP3    H263683   4.147   0.148  13.255 -0.2875  0.1087  0.1721
14090TIP3   OH263684   5.049   0.414   0.348  0.1793  0.5671 -0.3472
14090TIP3    H163685   5.041   0.416   0.252 -0.4360  1.0181 -0.2905
14090TIP3    H263686   4.989   0.344   0.375 -0.5399  1.2258 -0.2122
14091TIP3   OH263687   6.313   3.918   2.032 -0.0502  0.4941  0.4733
14091TIP3    H163688   6.365   3.864   1.971  0.0242  1.8066 -0.6486
14091TIP3    H263689   6.306   4.003   1.988 -1.1236  1.0545  1.7167
14092TIP3   OH263690   3.326   2.927  14.550 -0.0416 -0.5469  0.3164
14092TIP3    H163691   3.332   3.022  14.562  1.1612 -0.6416  0.5741
14092TIP3    H263692   3.369   2.911  14.466  1.3907 -1.0427  1.1224
14093TIP3   OH263693   5.028   2.463  12.753 -0.6532  0.4474 -0.1380
14093TIP3    H163694   5.016   2.452  12.659  0.0553 -0.4931 -0.1228
14093TIP3    H263695   5.104   2.409  12.775 -0.8141  0.6475  0.9750
14094TIP3   OH263696   3.714   2.547   0.767 -0.0995 -0.2180 -0.0077
14094TIP3    H163697   3.654   2.546   0.693 -0.9025  0.1610  0.6411
14094TIP3    H263698   3.801   2.553   0.727 -0.5225 -0.1095 -0.9194
14095TIP3   OH263699   0.823   5.469   1.969 -0.2420 -0.3187 -0.2821
14095TIP3    H163700   0.906   5.481   1.923  0.6467 -0.0594  1.3357
14095TIP3    H263701   0.757   5.467   1.900  1.1181 -0.6432 -1.6090
14096TIP3   OH263702   3.922   6.759  12.829  0.0040  0.5341 -0.5840
14096TIP3    H163703   3.883   6.801  12.752 -0.5822 -1.1245 -1.2017
14096TIP3    H263704   3.967   6.682  12.794  3.1734  1.9493  0.2288
14097TIP3   OH263705   5.972   1.175  15.994 -0.0557 -0.1197 -0.3278
14097TIP3    H163706   5.927   1.101  15.954  0.2792 -0.6930  0.3383
14097TIP3    H263707   5.927   1.253  15.960 -0.2902 -0.6177 -1.1753
14098TIP3   OH263708   5.903   3.168  14.660  0.7867 -0.3072  0.5637
14098TIP3    H163709   5.889   3.081  14.625 -0.1729  0.4119 -0.9025
14098TIP3    H263710   5.982   3.161  14.714  1.6983 -1.6716 -0.9353
14099TIP3   OH263711   0.194   5.386   3.185 -0.1381  0.1861  0.2607
14099TIP3    H163712   0.163   5.442   3.257 -1.3682 -0.4629  0.2462
14099TIP3    H263713   0.116   5.337   3.157  0.5493 -0.2879 -0.8619
14100TIP3   OH263714   0.707   2.019   1.743 -0.3346  0.7198  0.2388
14100TIP3    H163715   0.767   1.984   1.810 -1.7608 -2.0036  0.1661
14100TIP3    H263716   0.691   1.945   1.685 -1.2205  2.3353 -1.6294
14101TIP3   OH263717   4.298   1.118  11.216 -0.1352 -0.0191 -0.4085
14101TIP3    H163718   4.232   1.090  11.152 -0.0726  0.6968 -0.7920
14101TIP3    H263719   4.381   1.088  11.179 -0.2912 -1.5294  0.4092
14102TIP3   OH263720   5.677   0.543   3.440  0.1517  0.3749  0.7906
14102TIP3    H163721   5.665   0.567   3.532  0.8531 -0.0265  0.9858
14102TIP3    H263722   5.741   0.472   3.441 -1.7481 -1.4017  0.1895
14103TIP3   OH263723   6.541   4.377  15.939  0.4215  0.7998  0.1043
14103TIP3    H163724   6.448   4.376  15.961  0.1607  0.2006 -0.9777
14103TIP3    H263725   6.583   4.423  16.012 -0.5895  0.1505  1.1083
14104TIP3   OH263726   0.113   0.264  11.933 -0.8334 -0.0793  0.6982
14104TIP3    H163727   0.031   0.214  11.925 -0.3620 -0.9825  1.3454
14104TIP3    H263728   0.094   0.330  12.000 -1.2542  0.1700  0.3340
14105TIP3   OH263729   0.757   3.487   4.875 -0.1465  0.5307  0.6127
14105TIP3    H163730   0.743   3.394   4.858 -1.3992  0.9860 -0.8400
14105TIP3    H263731   0.845   3.504   4.841  0.3708 -0.2431  1.4960
14106TIP3   OH263732   3.058   0.197  15.459  0.4036  0.0941  0.5475
14106TIP3    H163733   3.138   0.243  15.435  0.2577 -0.3731 -0.8822
14106TIP3    H263734   3.001   0.265  15.496  1.0649  0.6147  0.6167
14107TIP3   OH263735   1.737   4.779  11.161  0.3239 -0.1483 -0.0529
14107TIP3    H163736   1.810   4.777  11.099  1.4486  1.7486  1.1619
14107TIP3    H263737   1.659   4.774  11.106  1.3190 -0.3871 -1.4888
14108TIP3   OH263738   1.839   6.443  12.454  0.2359  0.0119  0.3685
14108TIP3    H163739   1.909   6.494  12.494 -0.4387  0.2314  1.3011
14108TIP3    H263740   1.779   6.508  12.418  1.3842 -0.1990 -2.0104
14109TIP3   OH263741   2.087   0.707   3.030 -0.1486 -0.3233  0.2085
14109TIP3    H163742   2.155   0.644   3.007 -2.1574 -1.8359 -1.8502
14109TIP3    H263743   2.027   0.658   3.086  0.0114  0.7482  1.3302
14110TIP3   OH263744   2.419   3.486  12.748  0.1036 -0.1821 -0.1702
14110TIP3    H163745   2.454   3.552  12.808 -1.4696  2.5939 -2.2444
14110TIP3    H263746   2.457   3.508  12.663 -1.8424 -0.8551 -1.2436
14111TIP3   OH263747   0.773   1.359  17.037  0.5438  0.1744 -0.1977
14111TIP3    H163748   0.815   1.281  17.000 -0.1617 -0.8444  1.0738
14111TIP3    H263749   0.684   1.357  17.001 -0.3414 -1.1711  1.9773
14112TIP3   OH263750   4.241   2.062   2.484 -0.4542  0.1719  0.4434
14112TIP3    H163751   4.327   2.045   2.524 -0.2259 -0.7382 -0.4131
14112TIP3    H263752   4.251   2.034   2.394 -1.6099  0.2573  0.2827
14113TIP3   OH263753   3.812   2.536  13.503 -0.1297  0.1125 -0.3253
14113TIP3    H163754   3.764   2.481  13.564 -0.5616  2.4482  1.5239
14113TIP3    H263755   3.903   2.506  13.509 -0.5691 -1.2286 -0.3275
14114TIP3   OH263756   1.112   4.844  13.600  0.4776  0.1032 -0.6094
14114TIP3    H163757   1.032   4.893  13.618 -1.0087 -2.3271 -0.4023
14114TIP3    H263758   1.085   4.775  13.540  2.2685 -1.1706  0.0027
14115TIP3   OH263759   3.634   2.611   4.977 -0.2186  0.0932  0.3732
14115TIP3    H163760   3.674   2.641   5.059 -0.0785  0.1976  0.2657
14115TIP3    H263761   3.541   2.632   4.987 -0.1163  0.6007  0.2838
14116TIP3   OH263762   2.628   6.586   0.967  0.6550 -0.0663 -0.2621
14116TIP3    H163763   2.640   6.681   0.977 -1.6818  0.2700 -0.3035
14116TIP3    H263764   2.615   6.574   0.873 -0.7491 -0.2026 -0.0547
14117TIP3   OH263765   0.253   6.776  16.332 -0.3190 -0.6479 -0.0941
14117TIP3    H163766   0.249   6.869  16.356 -0.2072 -1.4577  3.2219
14117TIP3    H263767   0.332   6.770  16.278 -0.1705  1.1364 -0.1224
14118TIP3   OH263768   2.186   2.734  11.769  0.3047  0.2994 -0.1845
14118TIP3    H163769   2.139   2.728  11.852 -0.0828 -0.9722 -0.4798
14118TIP3    H263770   2.213   2.644  11.750  1.3040  0.7373 -0.9141
14119TIP3   OH263771   0.447   4.102   5.100  0.4106  0.1035  0.1898
14119TIP3    H163772   0.440   4.197   5.115  1.1064 -0.0028  1.2308
14119TIP3    H263773   0.474   4.094   5.009 -1.6769  0.8452 -0.5375
14120TIP3   OH263774   2.576   3.061  17.160  0.0196 -0.4890  0.1599
14120TIP3    H163775   2.661   3.086  17.196 -0.4160 -0.2870  1.0641
14120TIP3    H263776   2.573   3.102  17.074  0.2667  0.6663  0.6971
14121TIP3   OH263777   3.308   3.651   1.050  0.3777 -0.5913  0.3493
14121TIP3    H163778   3.325   3.730   0.999  0.9462  0.1355  1.6362
14121TIP3    H263779   3.368   3.586   1.013 -0.2715 -0.5145 -0.8800
14122TIP3   OH263780   1.289   3.613  10.851 -0.6958  0.1575 -0.4498
14122TIP3    H163781   1.327   3.671  10.917  0.4320 -0.9306 -0.1305
14122TIP3    H263782   1.355   3.609  10.782 -0.9045 -0.4902 -0.6109
14123TIP3   OH263783   3.475   5.152   1.050 -0.0740  0.2456 -0.2689
14123TIP3    H163784   3.392   5.184   1.086 -0.4886 -0.1039 -0.8983
14123TIP3    H263785   3.511   5.228   1.003 -0.0697  0.3813 -0.0454
14124TIP3   OH263786   5.989   2.699   1.146 -0.6037  0.2722  0.2577
14124TIP3    H163787   6.035   2.650   1.077  0.1139 -0.2921  1.1175
14124TIP3    H263788   5.898   2.670   1.141 -0.4445 -0.1560 -0.1163
14125TIP3   OH263789   2.070   4.173  11.974 -0.0162  0.2660 -0.4090
14125TIP3    H163790   2.144   4.180  12.034  0.3358  0.4584 -0.8687
14125TIP3    H263791   1.995   4.152  12.031  0.2308  0.8952  0.1513
14126TIP3   OH263792   5.569   6.604   4.690 -0.4469 -0.0181 -0.6780
14126TIP3    H163793   5.610   6.604   4.603 -1.5553  0.0282 -1.2058
14126TIP3    H263794   5.475   6.596   4.673 -0.6802  0.0253  0.5171
14127TIP3   OH263795   1.485   3.446   5.558 -0.4538 -0.0266  0.7907
14127TIP3    H163796   1.467   3.495   5.477  3.7250 -0.5140 -0.5373
14127TIP3    H263797   1.456   3.357   5.539 -1.1996  0.2627  0.5300
14128TIP3   OH263798   4.020   4.977   5.388 -0.7487 -0.1094 -0.1633
14128TIP3    H163799   3.996   4.981   5.480  1.2250 -2.0486  0.4656
14128TIP3    H263800   3.938   4.956   5.343 -1.0435 -2.7969  1.5512
14129TIP3   OH263801   0.571   2.439  15.701  0.3308  0.2479 -0.6037
14129TIP3    H163802   0.528   2.520  15.674 -0.5866 -0.7338 -2.1804
14129TIP3    H263803   0.525   2.413  15.781 -0.2290  0.6099 -0.8039
14130TIP3   OH263804   3.250   5.333   2.531  0.3114  0.0458 -0.3722
14130TIP3    H163805   3.251   5.253   2.584 -0.5675  0.5484  0.4209
14130TIP3    H263806   3.161   5.338   2.498  0.2254  0.9667 -0.0025
14131TIP3   OH263807   6.709   3.676   3.540  0.2173 -0.0411  0.3333
14131TIP3    H163808   6.797   3.713   3.547 -0.0882  0.6448  0.5747
14131TIP3    H263809   6.720   3.601   3.482  0.9252  0.1590  0.1919
14132TIP3   OH263810   5.454   0.686  16.452 -0.3008  0.3614  0.7433
14132TIP3    H163811   5.492   0.599  16.463 -0.2874 -0.0167 -1.8768
14132TIP3    H263812   5.528   0.744  16.436 -0.6085 -0.0534 -2.5004
14133TIP3   OH263813   1.962   2.996   0.750  0.0596 -0.1586  0.0766
14133TIP3    H163814   1.988   3.048   0.674 -2.3867 -0.0918 -0.7576
14133TIP3    H263815   1.970   2.905   0.722  1.6596 -0.2168  0.6328
14134TIP3   OH263816   0.066   5.416  12.770 -0.3796  0.3859 -0.0104
14134TIP3    H163817   0.045   5.504  12.740  0.5577  0.7424  0.3331
14134TIP3    H263818   0.134   5.386  12.710  0.0174  0.2938  0.4775
14135TIP3   OH263819   3.258   0.422  15.868  0.6799  0.1641 -0.1574
14135TIP3    H163820   3.214   0.434  15.784  2.9037 -1.3544 -1.5758
14135TIP3    H263821   3.248   0.329  15.888 -0.8826  0.7148  1.9197
14136TIP3   OH263822   4.449   4.022  11.173 -0.1358  1.0685  0.1722
14136TIP3    H163823   4.504   4.096  11.198 -0.1522  1.3090 -0.5044
14136TIP3    H263824   4.487   3.989  11.092 -1.2399  1.5135 -0.5434
14137TIP3   OH263825   0.684   3.777  14.495  0.0549  0.4268 -0.4893
14137TIP3    H163826   0.754   3.784  14.430  0.7358 -0.3863  0.1397
14137TIP3    H263827   0.615   3.727  14.451  0.0870  0.7637 -0.9255
14138TIP3   OH263828   0.202   2.691  11.077 -0.1428 -0.2170  0.0386
14138TIP3    H163829   0.216   2.719  11.168 -1.1487 -0.3954  0.2474
14138TIP3    H263830   0.289   2.699  11.036  0.0531  1.0386  0.6908
14139TIP3   OH263831   1.534   0.525  14.823 -0.6075 -0.1716 -0.2731
14139TIP3    H163832   1.500   0.489  14.905 -2.3523 -0.5792 -1.1317
14139TIP3    H263833   1.546   0.449  14.766 -0.1517  0.1705 -0.6366
14140TIP3   OH263834   2.284   2.451  12.278 -0.1356 -0.1333  0.0475
14140TIP3    H163835   2.242   2.516  12.221 -1.3766  1.1822  2.4263
14140TIP3    H263836   2.236   2.370  12.261  1.3015 -0.4749 -2.8034
14141TIP3   OH263837   0.114   3.040   0.683  0.3904  0.6788 -0.4311
14141TIP3    H163838   0.156   3.051   0.598  1.1594 -0.9237 -0.2597
14141TIP3    H263839   0.083   2.950   0.684  0.7843  0.5369  1.1639
14142TIP3   OH263840   2.026   2.096  14.838 -0.1864 -0.6731  0.0137
14142TIP3    H163841   1.946   2.056  14.872 -0.5798 -0.5182 -0.7144
14142TIP3    H263842   2.007   2.190  14.838 -0.0581 -0.6475 -0.2945
14143TIP3   OH263843   1.737   5.587   5.358  0.0836  0.1805  0.4664
14143TIP3    H163844   1.645   5.562   5.347  0.7599 -0.9274 -3.0023
14143TIP3    H263845   1.774   5.518   5.414 -0.7706 -0.3145  0.4276
14144TIP3   OH263846   5.869   4.135   3.967 -0.8364  0.6013  0.2627
14144TIP3    H163847   5.936   4.201   3.950 -1.6883  1.2442 -0.6965
14144TIP3    H263848   5.880   4.113   4.060  2.8918 -1.8230 -0.6497
14145TIP3   OH263849   3.633   0.259   0.861 -0.1179 -0.5578 -0.2555
14145TIP3    H163850   3.567   0.327   0.853  0.2104 -0.3326 -1.0682
14145TIP3    H263851   3.707   0.290   0.809 -0.2040 -1.8175 -1.1554
14146TIP3   OH263852   1.847   0.632   4.172 -0.3625 -0.3802 -0.2081
14146TIP3    H163853   1.866   0.541   4.148 -0.1452 -0.1658 -0.8483
14146TIP3    H263854   1.922   0.658   4.225 -0.3433 -0.5214 -0.1640
14147TIP3   OH263855   3.430   0.021   3.402  0.1332 -0.1389  0.4669
14147TIP3    H163856   3.398   0.005   3.313  1.6034  0.1789 -0.1314
14147TIP3    H263857   3.420  -0.063   3.447  1.2347 -0.8477 -0.5886
14148TIP3   OH263858   0.436   3.752  13.596  0.2401  0.0631 -0.5671
14148TIP3    H163859   0.366   3.790  13.649 -0.8519 -0.2550 -1.7733
14148TIP3    H263860   0.516   3.788  13.633 -0.5512  0.3530  0.8899
14149TIP3   OH263861   5.377   0.533  13.646 -0.3183  0.3579  0.3041
14149TIP3    H163862   5.306   0.596  13.634  0.1795  1.1372  1.3520
14149TIP3    H263863   5.435   0.575  13.710  1.8430  0.4213 -1.6147
14150TIP3   OH263864   0.516   0.853  12.411 -0.1714 -0.4807  0.3732
14150TIP3    H163865   0.548   0.821  12.496 -1.1946 -0.4350  0.7786
14150TIP3    H263866   0.448   0.916  12.433 -0.8706 -0.9310 -0.4893
14151TIP3   OH263867   4.262   3.295   0.967 -0.0471 -0.3725 -0.3315
14151TIP3    H163868   4.192   3.346   0.926 -1.8150 -2.9227 -0.6666
14151TIP3    H263869   4.330   3.289   0.900 -0.3698  0.4472 -0.7363
14152TIP3   OH263870   5.539   3.519  13.462 -0.3158  0.1193  0.3357
14152TIP3    H163871   5.595   3.593  13.438  0.3142  0.0197  1.4782
14152TIP3    H263872   5.578   3.444  13.417 -0.3119  0.2841  0.0614
14153TIP3   OH263873   0.830   3.150  13.045 -0.0637  0.0542  0.2112
14153TIP3    H163874   0.891   3.077  13.034  0.6040  0.2722  2.2249
14153TIP3    H263875   0.886   3.227  13.052 -0.6814  0.5356 -0.1160
14154TIP3   OH263876   1.712   3.110   0.117  0.5456 -0.0500  0.0600
14154TIP3    H163877   1.644   3.045   0.099 -0.5900  1.4139 -1.1207
14154TIP3    H263878   1.694   3.140   0.206 -0.6353  0.6389 -0.4010
14155TIP3   OH263879   5.927   6.261   2.161  0.7530  0.2341 -0.0616
14155TIP3    H163880   5.887   6.315   2.093 -1.6614 -2.6490 -0.9852
14155TIP3    H263881   6.017   6.294   2.167 -0.3171  3.6233 -1.3248
14156TIP3   OH263882   0.817   1.058   4.316 -0.3392 -0.0346  0.0912
14156TIP3    H163883   0.826   0.988   4.251 -2.4376 -1.2744  1.0674
14156TIP3    H263884   0.806   1.137   4.265 -0.3297 -0.7675 -1.0565
14157TIP3   OH263885   3.211   4.816  15.898  0.2148  0.4957 -0.0087
14157TIP3    H163886   3.140   4.861  15.852 -0.5150 -1.0194 -0.3932
14157TIP3    H263887   3.259   4.770  15.829 -0.5725 -1.3647  0.6273
14158TIP3   OH263888   3.923   0.276  17.239 -0.1737  0.0481  0.0122
14158TIP3    H163889   3.863   0.207  17.266 -1.3962  1.1910  0.2289
14158TIP3    H263890   3.986   0.282  17.311  0.2332 -1.1661 -0.2284
14159TIP3   OH263891   0.065   1.557   3.821 -0.2968  0.3250  0.0925
14159TIP3    H163892   0.008   1.483   3.803 -1.2100  0.4018  2.5986
14159TIP3    H263893   0.149   1.532   3.782 -1.5872 -0.4073 -2.3109
14160TIP3   OH263894   6.369   3.956   2.782 -0.4336 -0.3662  0.1815
14160TIP3    H163895   6.405   3.873   2.752  0.1505  0.5375 -1.7402
14160TIP3    H263896   6.290   3.968   2.729  0.9746  1.5783 -1.5838
14161TIP3   OH263897   6.207   5.242  11.679  0.1176 -0.0343 -0.1116
14161TIP3    H163898   6.136   5.252  11.616 -0.6075  1.8085  0.9809
14161TIP3    H263899   6.286   5.240  11.625 -0.6641 -1.0818 -1.2550
14162TIP3   OH263900   2.079   2.278   2.740 -0.0532 -0.0073  0.1330
14162TIP3    H163901   2.064   2.292   2.646 -0.0762  1.6128  0.3618
14162TIP3    H263902   2.171   2.301   2.753 -0.0457 -0.2453  0.5107
14163TIP3   OH263903   4.196   0.856  14.664  0.0973  0.7204  0.3164
14163TIP3    H163904   4.146   0.937  14.670 -0.1675  0.5345  0.6589
14163TIP3    H263905   4.228   0.841  14.753 -0.6054 -0.0249  0.4548
14164TIP3   OH263906   0.501   6.053  15.378  0.4301 -0.2792  0.3710
14164TIP3    H163907   0.485   6.127  15.438  2.2316  1.1307 -0.8210
14164TIP3    H263908   0.417   6.009  15.371 -0.7622  1.8724  0.8446
14165TIP3   OH263909   2.968   6.351   5.282 -1.0710  0.0651  0.4460
14165TIP3    H163910   2.969   6.271   5.228  1.9153 -1.1089  2.0911
14165TIP3    H263911   2.986   6.320   5.371 -0.5022  2.5138  1.2292
14166TIP3   OH263912   2.924   2.033  15.909  0.4602  0.3249  0.5387
14166TIP3    H163913   2.941   2.074  15.994 -0.2441  0.2014  0.7437
14166TIP3    H263914   2.840   2.070  15.881  0.0211 -0.6781  0.5381
14167TIP3   OH263915   2.242   5.202  11.868  0.0487 -0.7514  0.0937
14167TIP3    H163916   2.164   5.253  11.887  0.5093 -0.2080  0.5465
14167TIP3    H263917   2.209   5.114  11.850 -0.5949 -0.7566  1.2478
14168TIP3   OH263918   2.030   2.621   3.321  0.0542 -0.5055  0.8356
14168TIP3    H163919   2.040   2.652   3.410 -0.6043 -0.5758  0.9373
14168TIP3    H263920   2.039   2.699   3.267 -0.8078 -0.2549  1.0441
14169TIP3   OH263921   3.549   1.016  16.396  0.3297 -0.4578 -0.3856
14169TIP3    H163922   3.563   0.926  16.367 -1.4478 -0.4798 -1.2558
14169TIP3    H263923   3.453   1.024  16.402  0.5569  0.6454  2.0084
14170TIP3   OH263924   0.582   2.538  16.737  0.0185  0.2848 -0.2610
14170TIP3    H163925   0.492   2.568  16.743 -0.2821 -0.3505 -1.5173
14170TIP3    H263926   0.635   2.617  16.751 -0.7401  0.9421 -1.0746
14171TIP3   OH263927   5.718   5.087  12.353 -0.2429  0.4367  0.1933
14171TIP3    H163928   5.672   5.148  12.295 -0.5240  0.9977  0.9933
14171TIP3    H263929   5.765   5.028  12.294 -0.7133  0.8536 -0.6046
14172TIP3   OH263930   5.698   1.575   6.559  0.5085 -0.0853  0.3998
14172TIP3    H163931   5.644   1.653   6.571  1.1982  0.6108 -0.9611
14172TIP3    H263932   5.637   1.508   6.527  0.6424  1.0742 -2.4464
14173TIP3   OH263933   5.241   1.592   1.439  0.1086  0.1428 -0.5812
14173TIP3    H163934   5.301   1.665   1.455  1.6482 -1.4264  1.0410
14173TIP3    H263935   5.286   1.538   1.374  0.3945 -0.9165  0.4734
14174TIP3   OH263936   3.817   3.739   3.828 -0.3321  0.2219 -1.3573
14174TIP3    H163937   3.815   3.817   3.883 -0.2488 -0.5721 -0.1772
14174TIP3    H263938   3.820   3.771   3.738  0.5350  1.5698 -0.8578
14175TIP3   OH263939   1.240   4.068  13.459 -0.1617 -0.1528  0.6533
14175TIP3    H163940   1.240   4.052  13.365  1.4842 -1.0717  0.8017
14175TIP3    H263941   1.320   4.118  13.475 -0.2836 -0.2521  1.6045
14176TIP3   OH263942   2.149   3.463   5.197  0.2214 -0.1971 -0.3260
14176TIP3    H163943   2.081   3.464   5.264  0.1420  2.4006 -0.3984
14176TIP3    H263944   2.110   3.418   5.123 -0.8259 -0.1931  0.2186
14177TIP3   OH263945   2.018   5.848  15.503  0.2329 -0.0687  0.1197
14177TIP3    H163946   2.071   5.861  15.582 -0.7643 -3.5280  1.4215
14177TIP3    H263947   2.081   5.852  15.431  1.8441 -1.2864  1.4282
14178TIP3   OH263948   1.587   6.671   5.093  0.0116 -0.1473  0.2326
14178TIP3    H163949   1.626   6.652   5.178  0.1662 -0.6938  0.0395
14178TIP3    H263950   1.516   6.733   5.113  0.3256  0.0657  0.7011
14179TIP3   OH263951   0.503   6.273  13.841  0.5056  0.0664  0.3384
14179TIP3    H163952   0.568   6.208  13.817 -1.5358 -1.3827 -1.4989
14179TIP3    H263953   0.496   6.330  13.764 -1.4790 -0.7350 -0.1074
14180TIP3   OH263954   5.235   3.088   5.813  0.3258  0.1598 -0.6670
14180TIP3    H163955   5.287   3.167   5.797  1.6960 -0.7894 -0.9884
14180TIP3    H263956   5.287   3.037   5.874 -0.6630 -0.4007 -0.2821
14181TIP3   OH263957   2.741   3.923   6.364  0.2555  0.4473  0.1817
14181TIP3    H163958   2.791   3.863   6.419 -0.3783  0.1009  0.3867
14181TIP3    H263959   2.807   3.983   6.328  1.0844 -1.1655 -1.0612
14182TIP3   OH263960   3.581   1.684   4.470 -0.0878  0.5095  0.1936
14182TIP3    H163961   3.638   1.751   4.432 -1.9662  1.1201 -1.6231
14182TIP3    H263962   3.558   1.717   4.557  1.2674  0.8453  0.4373
14183TIP3   OH263963   2.569   5.776   6.116 -0.0266 -0.0852 -0.4255
14183TIP3    H163964   2.618   5.711   6.166 -0.5134  0.8920  1.3457
14183TIP3    H263965   2.482   5.776   6.155 -0.4664  0.5982 -1.3747
14184TIP3   OH263966   4.113   3.849  11.852  0.2410  0.1594  0.5192
14184TIP3    H163967   4.036   3.885  11.809  0.1647 -0.6778 -0.0669
14184TIP3    H263968   4.181   3.850  11.785 -0.0108 -1.6063  0.2168
14185TIP3   OH263969   5.584   3.079  13.024 -0.2969 -0.7073  0.6987
14185TIP3    H163970   5.607   2.998  13.069  0.7518 -0.5284  0.4997
14185TIP3    H263971   5.614   3.066  12.934 -0.2672 -0.1592  0.6261
14186TIP3   OH263972   1.841   6.241  12.008 -0.2643  0.0688  0.1864
14186TIP3    H163973   1.833   6.170  11.944 -0.0338 -1.4395  1.8050
14186TIP3    H263974   1.818   6.201  12.091  1.8420  1.3720  1.4488
14187TIP3   OH263975   4.255   0.208   0.685  0.0083  0.1153 -0.0572
14187TIP3    H163976   4.303   0.133   0.719 -0.3637  0.8040  2.0562
14187TIP3    H263977   4.252   0.270   0.758  0.6433  2.3512 -1.8535
14188TIP3   OH263978   4.051   6.301   3.488 -0.3081  0.1253  0.2283
14188TIP3    H163979   3.991   6.358   3.538 -0.8499  0.7055 -1.0513
14188TIP3    H263980   3.996   6.266   3.418  0.8394  0.6056 -0.9153
14189TIP3   OH263981   2.403   2.911  16.702 -0.4131  0.3770 -0.0993
14189TIP3    H163982   2.333   2.900  16.637  0.8337  0.1195 -1.4239
14189TIP3    H263983   2.366   2.971  16.767 -1.6952  0.6166 -1.0301
14190TIP3   OH263984   5.907   3.180   4.359  0.0300 -0.1189  0.3688
14190TIP3    H163985   5.917   3.110   4.296 -2.3644 -0.3939  0.2676
14190TIP3    H263986   5.876   3.255   4.308 -0.8327 -0.0176  1.0319
14191TIP3   OH263987   1.457   3.353   4.890  0.2446 -0.7100  0.3145
14191TIP3    H163988   1.463   3.387   4.980 -0.2603  1.5901 -0.4743
14191TIP3    H263989   1.516   3.409   4.840 -1.9761  0.2021 -1.3731
14192TIP3   OH263990   5.300   5.743  14.992  0.2151 -0.5643  0.4004
14192TIP3    H163991   5.349   5.797  15.054  1.1805  0.0794 -0.8962
14192TIP3    H263992   5.291   5.658  15.036  1.5894 -0.3656  1.1003
14193TIP3   OH263993   3.756   0.197   6.559 -0.7004 -0.5210 -0.2529
14193TIP3    H163994   3.810   0.125   6.592  0.8162 -0.5078 -2.6053
14193TIP3    H263995   3.772   0.269   6.621 -1.6304 -1.9184  1.6832
14194TIP3   OH263996   0.784   4.597   3.309 -0.9618 -0.1460  0.0460
14194TIP3    H163997   0.732   4.593   3.390  0.8135 -1.3992  1.1431
14194TIP3    H263998   0.869   4.560   3.333 -0.5562 -0.9484 -2.5264
14195TIP3   OH263999   6.606   1.239   5.250 -0.2902 -0.3585 -0.6080
14195TIP3    H164000   6.568   1.251   5.338  1.5353  0.1398  0.1360
14195TIP3    H264001   6.692   1.281   5.256 -0.6363  0.7539 -3.0053
14196TIP3   OH264002   6.126   6.490  16.111 -0.1273 -0.4399  0.1082
14196TIP3    H164003   6.174   6.469  16.031  0.0382  2.5840 -0.6462
14196TIP3    H264004   6.188   6.472  16.181  0.2144 -1.7730 -0.5153
14197TIP3   OH264005   3.023   1.138   3.241 -0.4472  0.0180 -0.0221
14197TIP3    H164006   2.933   1.140   3.272 -0.6538 -2.2169 -0.4198
14197TIP3    H264007   3.023   1.074   3.170  1.7696 -1.1669  0.9963
14198TIP3   OH264008   1.942   5.204   6.116 -0.8013 -0.2100  0.2929
14198TIP3    H164009   1.920   5.206   6.023 -0.0331 -2.0980  0.0449
14198TIP3    H264010   1.878   5.143   6.154  0.3153 -1.2083  0.5900
14199TIP3   OH264011   6.178   1.780  12.894 -0.1439 -0.0691 -0.0657
14199TIP3    H164012   6.253   1.825  12.933  0.0439  0.5614 -1.1486
14199TIP3    H264013   6.103   1.809  12.946  0.0969  0.8119 -0.2080
14200TIP3   OH264014   3.786   0.351   1.579  0.2528  0.1041 -0.1941
14200TIP3    H164015   3.709   0.328   1.631  0.5204 -1.6162 -0.5155
14200TIP3    H264016   3.750   0.381   1.495 -0.1004  0.4520  0.0815
14201TIP3   OH264017   2.387   1.484  11.620  0.3367 -0.0899 -0.0284
14201TIP3    H164018   2.344   1.398  11.612 -0.1242  0.1356  0.0095
14201TIP3    H264019   2.452   1.485  11.549  0.5892 -0.6092  0.1915
14202TIP3   OH264020   4.325   3.274  14.958  0.0690 -0.4619  0.3800
14202TIP3    H164021   4.387   3.347  14.967 -0.3049 -0.0966 -0.0012
14202TIP3    H264022   4.256   3.293  15.021 -0.3967 -0.1084 -0.2320
14203TIP3   OH264023   3.551   6.109  11.268  0.3013  0.4639 -0.4949
14203TIP3    H164024   3.644   6.124  11.252 -0.0769  2.6874 -0.8126
14203TIP3    H264025   3.506   6.173  11.213 -1.3768  0.2850  0.6212
14204TIP3   OH264026   0.035   4.305  13.675 -0.0674 -0.5443 -0.2135
14204TIP3    H164027   0.025   4.289  13.769 -0.6917 -1.3388 -0.4142
14204TIP3    H264028   0.041   4.401  13.667 -1.5794 -0.3843  0.4828
14205TIP3   OH264029   6.300   2.497   2.040  0.1956  0.0035 -0.0384
14205TIP3    H164030   6.282   2.581   2.082  1.8139  0.6680 -0.6176
14205TIP3    H264031   6.386   2.472   2.073 -0.7168 -1.9653  0.9389
14206TIP3   OH264032   6.223   1.245   5.282  0.3691 -0.1660  0.5148
14206TIP3    H164033   6.132   1.231   5.307  1.0959 -2.5976  1.9206
14206TIP3    H264034   6.221   1.254   5.187 -1.8413  4.3900  0.8223
14207TIP3   OH264035   1.482   6.746  14.117 -0.0493  0.6026  0.4240
14207TIP3    H164036   1.575   6.746  14.094  0.1263 -1.8804  0.9658
14207TIP3    H264037   1.438   6.771  14.036  1.0108 -0.1040 -0.3956
14208TIP3   OH264038   2.151   6.654  13.868 -0.4593  0.1654  0.5569
14208TIP3    H164039   2.163   6.743  13.834  1.3593  0.1900  1.2186
14208TIP3    H264040   2.200   6.599  13.807  1.5846  0.0477  2.2821
14209TIP3   OH264041   0.420   3.438  12.673 -0.1072 -0.3657 -0.1926
14209TIP3    H164042   0.467   3.416  12.592  0.5372 -0.0645  0.0978
14209TIP3    H264043   0.353   3.501  12.646 -1.2141 -1.7872 -0.8381
14210TIP3   OH264044   5.793   2.386  16.672  0.3830  0.7980 -0.1450
14210TIP3    H164045   5.808   2.299  16.635 -0.5887  0.6903 -0.2957
14210TIP3    H264046   5.809   2.446  16.600 -0.5171  0.6506 -0.4643
14211TIP3   OH264047   3.890   5.876   0.900  0.0683 -0.4624 -0.0214
14211TIP3    H164048   3.973   5.916   0.874 -1.4986  1.5478 -2.1122
14211TIP3    H264049   3.888   5.793   0.854  0.3569  0.0617 -0.9872
14212TIP3   OH264050   6.766   6.263   6.610 -0.3491 -0.0251 -0.4290
14212TIP3    H164051   6.822   6.223   6.677 -0.1322 -0.3697 -0.8097
14212TIP3    H264052   6.785   6.356   6.616 -0.1286 -0.0823 -0.1943
14213TIP3   OH264053   3.749   0.861  15.286 -0.9426  0.4271 -0.4278
14213TIP3    H164054   3.740   0.767  15.276 -0.2474  0.3801 -0.6021
14213TIP3    H264055   3.798   0.873  15.367  0.1266  0.5996 -1.0958
14214TIP3   OH264056   6.772   0.135  17.001  0.1449 -0.0013 -0.2601
14214TIP3    H164057   6.707   0.099  17.061  2.0010 -0.1033  1.7586
14214TIP3    H264058   6.801   0.060  16.949  0.3010 -0.4145  0.4153
14215TIP3   OH264059   2.234   6.437   6.568  1.0075 -0.0260  0.3807
14215TIP3    H164060   2.242   6.344   6.589 -2.0696 -0.5612 -0.5464
14215TIP3    H264061   2.169   6.470   6.631 -0.0565  0.8135 -1.1313
14216TIP3   OH264062   5.730   2.800  13.318  0.0560 -0.4086  0.1088
14216TIP3    H164063   5.696   2.769  13.235 -1.3436  0.5387  0.3171
14216TIP3    H264064   5.775   2.882  13.297  0.8619 -0.8581  0.0777
14217TIP3   OH264065   2.965   5.655  16.559  0.1055  0.6813 -0.9616
14217TIP3    H164066   2.996   5.615  16.641 -2.4805 -0.6737 -0.5985
14217TIP3    H264067   2.983   5.589  16.492  0.4906  1.0158 -1.1894
14218TIP3   OH264068   0.724   3.047   2.302 -0.2994  0.0548  0.1363
14218TIP3    H164069   0.716   3.066   2.208 -0.2687  0.7662  0.2702
14218TIP3    H264070   0.653   2.986   2.320 -0.1549 -0.2752 -0.3996
14219TIP3   OH264071   3.287   1.123   4.630 -0.0810 -0.3855  0.3350
14219TIP3    H164072   3.376   1.092   4.615 -0.1442 -0.7831  0.7564
14219TIP3    H264073   3.242   1.048   4.668 -0.9211 -0.5590 -0.9665
14220TIP3   OH264074   2.872   4.578   1.858 -0.1602 -0.3077 -0.0788
14220TIP3    H164075   2.817   4.543   1.928 -0.2797  0.3850  0.1718
14220TIP3    H264076   2.855   4.520   1.784  1.1396 -1.9834  0.9050
14221TIP3   OH264077   2.073   4.029  14.908 -0.3643  0.1416 -0.3866
14221TIP3    H164078   2.026   4.013  14.826  0.4820 -2.2422 -0.4571
14221TIP3    H264079   2.056   3.951  14.961  2.1971 -0.0655  0.2115
14222TIP3   OH264080   4.169   3.326   1.883 -0.0556  0.0999 -0.3437
14222TIP3    H164081   4.113   3.273   1.939 -1.1689  0.2703 -1.2920
14222TIP3    H264082   4.219   3.262   1.832 -0.6000 -0.0489 -0.6963
14223TIP3   OH264083   6.085   0.774   3.002  0.0191  0.4092  0.0236
14223TIP3    H164084   5.994   0.751   2.985  0.8793 -2.2865 -1.1691
14223TIP3    H264085   6.101   0.746   3.092 -0.4139  1.2383  0.3657
14224TIP3   OH264086   5.132   3.189  13.619 -0.3397  0.0577 -0.1537
14224TIP3    H164087   5.146   3.151  13.532 -0.0869 -2.4029  0.9053
14224TIP3    H264088   5.219   3.193  13.658 -0.5158  0.6572  0.1759
14225TIP3   OH264089   3.478   4.383   0.122  0.7372 -0.0558 -0.0950
14225TIP3    H164090   3.481   4.289   0.144 -0.4463 -0.7924 -2.9341
14225TIP3    H264091   3.530   4.390   0.042  0.1288  1.6072 -0.3451
14226TIP3   OH264092   6.552   2.891   3.805  0.2856 -0.7115  0.4383
14226TIP3    H164093   6.605   2.965   3.834  0.8515 -0.8651 -0.1918
14226TIP3    H264094   6.541   2.904   3.711 -1.8597 -0.0149  0.7548
14227TIP3   OH264095   2.319   3.572   2.462 -0.3852  0.0672 -0.2851
14227TIP3    H164096   2.368   3.627   2.523  0.0019 -0.1360 -0.4110
14227TIP3    H264097   2.232   3.612   2.458 -0.1480  0.5885 -0.2691
14228TIP3   OH264098   1.357   4.485  12.616  0.1665  0.0208  0.6863
14228TIP3    H164099   1.451   4.502  12.617  0.2943 -0.5407 -0.9402
14228TIP3    H264100   1.350   4.391  12.629 -0.1188 -0.0795 -0.1469
14229TIP3   OH264101   5.312   4.404  13.468  0.0544  0.8193 -0.0804
14229TIP3    H164102   5.280   4.387  13.556  1.1014 -0.9010 -0.0164
14229TIP3    H264103   5.407   4.405  13.477  0.2277 -1.0847 -1.4777
14230TIP3   OH264104   1.134   2.382   2.730  0.1221 -0.6950 -0.3662
14230TIP3    H164105   1.170   2.363   2.644 -0.9921  0.0213 -0.9991
14230TIP3    H264106   1.149   2.302   2.781  0.0055 -1.4349 -1.4850
14231TIP3   OH264107   5.102   3.044  15.987  0.7369  0.1653  0.5136
14231TIP3    H164108   5.063   3.094  15.914 -1.5351 -1.9499  0.1901
14231TIP3    H264109   5.069   3.087  16.065  1.1358  0.9246  0.2675
14232TIP3   OH264110   1.004   4.126  10.993 -0.2868  0.1233 -0.0762
14232TIP3    H164111   1.023   4.216  11.020  1.1168 -0.2175  0.1138
14232TIP3    H264112   1.035   4.072  11.065 -2.6325 -0.4532  0.5521
14233TIP3   OH264113   1.043   4.516  16.405  0.0205  0.1391  0.0887
14233TIP3    H164114   1.001   4.566  16.335 -0.3186  1.4960  1.2641
14233TIP3    H264115   1.111   4.573  16.438  1.1182 -1.0613 -0.0668
14234TIP3   OH264116   6.033   0.974   3.905 -0.0317  0.4936  0.0978
14234TIP3    H164117   6.066   0.886   3.892 -0.7714  0.1411  0.5882
14234TIP3    H264118   6.002   1.002   3.819 -2.5087 -0.8413  0.5006
14235TIP3   OH264119   4.274   1.767  14.285  0.5991 -0.0098  0.3208
14235TIP3    H164120   4.270   1.801  14.375 -0.4390  1.1187 -0.1347
14235TIP3    H264121   4.220   1.688  14.287 -2.2331  1.8336 -0.0514
14236TIP3   OH264122   0.207   2.899   4.053  0.1759  0.2560  0.4079
14236TIP3    H164123   0.192   2.823   3.996  2.0874  1.6106 -1.9924
14236TIP3    H264124   0.293   2.882   4.093 -0.2174  0.3058  1.2869
14237TIP3   OH264125   6.176   3.356  11.958 -0.6425  0.3176 -0.0417
14237TIP3    H164126   6.088   3.393  11.960 -0.4701  0.6968  0.7435
14237TIP3    H264127   6.232   3.428  11.928 -0.6769 -0.0927 -1.1109
14238TIP3   OH264128   5.448   0.010   5.723 -0.0405  0.3366  0.1315
14238TIP3    H164129   5.379   0.036   5.784 -1.2145  1.2867 -1.5676
14238TIP3    H264130   5.529   0.028   5.770 -0.9224  0.4131  1.6672
14239TIP3   OH264131   6.607   1.159   5.851  0.0656 -0.4615 -0.8539
14239TIP3    H164132   6.512   1.153   5.856 -0.1297  1.6236 -1.2749
14239TIP3    H264133   6.639   1.123   5.933 -1.1333 -0.3942 -0.3585
14240TIP3   OH264134   5.994   4.137  16.294  0.1642  0.0496 -0.0962
14240TIP3    H164135   5.923   4.202  16.289  0.9261  0.8943 -0.1170
14240TIP3    H264136   6.063   4.181  16.343  0.9097 -0.5514 -0.5923
14241TIP3   OH264137   6.622   1.879   1.246  0.6829  0.2356  0.0278
14241TIP3    H164138   6.638   1.800   1.298  0.2209  0.1863  0.0957
14241TIP3    H264139   6.578   1.847   1.168  1.7831  0.2563 -0.6093
14242TIP3   OH264140   6.049   6.151  11.819 -0.1506  0.2817 -0.2291
14242TIP3    H164141   6.115   6.177  11.755 -0.7613 -0.8915 -1.3473
14242TIP3    H264142   6.099   6.138  11.900  0.8615  0.2222 -0.8488
14243TIP3   OH264143   0.439   6.687  11.870  0.7261 -0.5531  0.0093
14243TIP3    H164144   0.492   6.689  11.790 -1.4300 -1.4779 -1.4920
14243TIP3    H264145   0.351   6.712  11.841 -0.2960 -1.8285  1.9282
14244TIP3   OH264146   0.358   3.179   0.777  0.1876 -0.2390  0.4229
14244TIP3    H164147   0.332   3.244   0.712 -0.3151  0.0107  0.8689
14244TIP3    H264148   0.277   3.133   0.800  0.5725 -1.1557 -0.0294
14245TIP3   OH264149   0.194   0.945  15.367  0.0622 -0.2844  0.1202
14245TIP3    H164150   0.209   0.896  15.287 -1.4063 -0.3170 -0.1395
14245TIP3    H264151   0.212   1.036  15.343  2.1414 -0.5811  0.4367
14246TIP3   OH264152   3.247   1.746  13.476  0.4333  0.4413  0.6796
14246TIP3    H164153   3.305   1.792  13.414  0.8300 -0.2348  0.5355
14246TIP3    H264154   3.257   1.653  13.452 -1.1591  0.3610  0.2777
14247TIP3   OH264155   5.298   3.344   2.220  0.2300 -0.2419 -0.5153
14247TIP3    H164156   5.263   3.363   2.133  0.2274  0.1281 -0.4318
14247TIP3    H264157   5.391   3.367   2.214  0.1989 -0.0816 -0.3787
14248TIP3   OH264158   2.820   2.669  12.796  0.3359  0.3016 -0.2533
14248TIP3    H164159   2.829   2.587  12.748  1.0434  0.5413 -0.5427
14248TIP3    H264160   2.727   2.691  12.791  0.4532  0.4717 -1.7502
14249TIP3   OH264161   0.089   4.099  16.920 -0.1703  0.2136  0.4015
14249TIP3    H164162   0.102   4.036  16.991 -3.8518 -0.8660  0.1968
14249TIP3    H264163   0.104   4.185  16.961  0.6823 -0.5509  1.7207
14250TIP3   OH264164   1.850   5.160   3.103  0.4119  0.3497 -0.0444
14250TIP3    H164165   1.943   5.182   3.103  0.0752  1.7990  0.3320
14250TIP3    H264166   1.807   5.237   3.138 -0.8504 -0.7482  0.8518
14251TIP3   OH264167   2.256   0.066  17.140 -0.2789  0.2813  0.4678
14251TIP3    H164168   2.175   0.116  17.144 -1.1255 -0.9979 -0.2721
14251TIP3    H264169   2.228  -0.025  17.144  1.0402 -0.1994 -0.8316
14252TIP3   OH264170   5.929   2.329   5.215  0.0036 -0.1718 -0.4681
14252TIP3    H164171   5.837   2.355   5.222  0.2841  0.5640  0.6957
14252TIP3    H264172   5.978   2.409   5.232  0.8575 -0.7042 -0.3781
14253TIP3   OH264173   0.288   5.816   6.279 -0.4692  0.0416 -0.2661
14253TIP3    H164174   0.361   5.754   6.277 -0.4657 -0.0186  1.2813
14253TIP3    H264175   0.312   5.881   6.344 -2.1550 -0.4596  0.9063
14254TIP3   OH264176   6.085   1.352  16.265 -0.3242  0.1713  0.1090
14254TIP3    H164177   6.051   1.268  16.233 -1.3491  0.5579  0.1669
14254TIP3    H264178   6.133   1.330  16.345 -1.7788 -0.1893  0.8941
14255TIP3   OH264179   2.892   1.782   3.968 -0.1021 -0.1602 -0.0846
14255TIP3    H164180   2.917   1.706   4.021  0.1582 -0.9948 -1.3903
14255TIP3    H264181   2.969   1.800   3.914  0.5956  2.2855  1.6054
14256TIP3   OH264182   5.940   2.667  14.609 -0.0480  0.2764 -0.0939
14256TIP3    H164183   5.918   2.585  14.565 -0.6531  0.8049 -0.7801
14256TIP3    H264184   6.035   2.671  14.607 -0.0363 -0.1849 -0.4686
14257TIP3   OH264185   5.536   1.568  14.353 -0.4299  0.1310  0.0994
14257TIP3    H164186   5.463   1.600  14.407 -0.8717 -0.7188 -0.0024
14257TIP3    H264187   5.532   1.473  14.360 -0.1066  0.0399 -0.9445
14258TIP3   OH264188   3.902   0.894   2.350 -0.0524  0.0639 -0.4649
14258TIP3    H164189   3.956   0.823   2.316 -0.9563 -2.3465  2.8902
14258TIP3    H264190   3.813   0.861   2.345 -0.6191  1.4910 -0.0199
14259TIP3   OH264191   4.809   4.494  17.000 -0.6980 -0.2013  0.1119
14259TIP3    H164192   4.733   4.541  17.033 -0.0258  1.8276 -1.1862
14259TIP3    H264193   4.808   4.508  16.906  0.7561 -0.9415 -0.0315
14260TIP3   OH264194   4.010   2.584  14.770  0.1441 -0.0725  0.2868
14260TIP3    H164195   3.956   2.524  14.823  0.1540  0.9011  1.4365
14260TIP3    H264196   3.965   2.589  14.686 -0.4009 -0.9333  0.5262
14261TIP3   OH264197   5.620   2.175  15.673 -0.5839 -0.1068  0.4657
14261TIP3    H164198   5.700   2.134  15.706 -0.3107 -0.4281 -0.5757
14261TIP3    H264199   5.583   2.110  15.614 -1.1897  0.3692  0.3222
14262TIP3   OH264200   2.904   3.353   6.128 -0.0919  0.7847  0.3446
14262TIP3    H164201   2.963   3.280   6.144  0.2829  0.9953 -0.0743
14262TIP3    H264202   2.901   3.401   6.211 -0.8802 -0.0886  0.8318
14263TIP3   OH264203   2.598   6.456  17.096  0.1676 -0.2809  0.0508
14263TIP3    H164204   2.686   6.483  17.123 -0.4027 -1.3322  3.1062
14263TIP3    H264205   2.542   6.530  17.117 -0.1120 -0.6941  0.7876
14264TIP3   OH264206   0.070   4.700   5.866 -0.5258 -0.1755 -0.1763
14264TIP3    H164207   0.057   4.793   5.884  1.1914  0.0384 -0.0003
14264TIP3    H264208  -0.001   4.656   5.913 -0.0899  0.8772  1.4841
14265TIP3   OH264209   4.338   3.128   1.759  0.1292  0.0285 -0.0837
14265TIP3    H164210   4.431   3.120   1.739  0.4180  0.8045  0.9345
14265TIP3    H264211   4.319   3.052   1.815  0.1453 -0.1518 -0.3253
14266TIP3   OH264212   6.630   3.920  10.219  0.4123 -0.3629 -0.2224
14266TIP3    H164213   6.535   3.929  10.215  0.2501 -1.5900  0.5233
14266TIP3    H264214   6.656   3.965  10.299  0.6508  1.3176 -1.2209
14267TIP3   OH264215   3.961   0.221  13.875 -0.4024  0.7268  0.1418
14267TIP3    H164216   4.009   0.183  13.801  1.6107  2.6328  0.4155
14267TIP3    H264217   4.001   0.181  13.952 -3.1990 -2.0574  0.2491
14268TIP3   OH264218   2.568   3.374  15.971  0.5954 -0.3136 -0.2677
14268TIP3    H164219   2.599   3.289  15.942 -1.2851 -1.0464 -0.2053
14268TIP3    H264220   2.500   3.355  16.035 -2.8260  1.1257 -3.3177
14269TIP3   OH264221   4.543   4.976   1.147 -0.2167 -0.3287  0.1804
14269TIP3    H164222   4.489   4.915   1.097 -2.3696  1.6979 -0.0387
14269TIP3    H264223   4.518   4.960   1.238 -0.2107 -0.3122  0.1850
14270TIP3   OH264224   2.441   6.542  15.904  0.2371 -0.0640 -0.7188
14270TIP3    H164225   2.359   6.582  15.877 -0.5765 -0.9529  0.4076
14270TIP3    H264226   2.437   6.453  15.869  0.8374 -0.0289 -0.8830
14271TIP3   OH264227   3.448   2.510   1.151  0.5374 -0.2528 -1.2264
14271TIP3    H164228   3.445   2.427   1.102  1.6306 -0.2353 -1.3369
14271TIP3    H264229   3.388   2.496   1.225 -0.6349 -0.5064 -2.2121
14272TIP3   OH264230   2.395   5.004   2.702  0.0669  0.0392  0.9295
14272TIP3    H164231   2.309   4.966   2.718 -0.2934  1.4321  2.4448
14272TIP3    H264232   2.434   5.013   2.789  1.6052 -0.2601  0.2910
14273TIP3   OH264233   5.306   1.925   6.233  0.4147  0.0875 -0.1019
14273TIP3    H164234   5.311   2.018   6.212 -1.0069  0.7339  2.3151
14273TIP3    H264235   5.222   1.897   6.196  1.5298 -0.6405 -2.1914
14274TIP3   OH264236   1.345   6.059   5.477  0.4066 -0.1281  0.4403
14274TIP3    H164237   1.336   6.112   5.556 -0.6598 -0.3396  0.4681
14274TIP3    H264238   1.380   6.119   5.412  0.8841  0.1530  0.9463
14275TIP3   OH264239   2.441   5.730  12.500  0.5890  0.4637  0.0214
14275TIP3    H164240   2.463   5.775  12.419 -2.1162 -1.4570 -1.8524
14275TIP3    H264241   2.416   5.800  12.560  1.8239  1.8535 -1.0494
14276TIP3   OH264242   3.958   3.127  11.518  0.1340 -0.7869 -0.0352
14276TIP3    H164243   3.977   3.169  11.602 -0.2785 -0.4767 -0.0981
14276TIP3    H264244   4.017   3.051  11.515  1.3129  0.1246 -0.1872
14277TIP3   OH264245   5.420   4.499   4.559  0.2712 -0.1905  0.1715
14277TIP3    H164246   5.408   4.416   4.605  0.4957  0.7964  2.0613
14277TIP3    H264247   5.508   4.492   4.522  0.3184 -0.7732  0.3779
14278TIP3   OH264248   5.281   3.566  13.316  0.2766  0.0445 -0.1080
14278TIP3    H164249   5.266   3.661  13.315 -0.2329 -0.0477 -2.0496
14278TIP3    H264250   5.340   3.553  13.390 -0.0646  1.8134  0.5105
14279TIP3   OH264251   2.500   2.161  14.595 -0.9063 -0.0350  0.0689
14279TIP3    H164252   2.550   2.102  14.652 -1.0602  0.9127  1.2131
14279TIP3    H264253   2.466   2.105  14.526  0.6038 -0.9332  0.0346
14280TIP3   OH264254   3.308   3.737   6.096  0.7821  0.3307 -0.4521
14280TIP3    H164255   3.251   3.774   6.028  0.5540  0.5589 -0.1385
14280TIP3    H264256   3.362   3.810   6.125  1.7805 -0.0612 -1.2910
14281TIP3   OH264257   2.756   3.097  14.392 -0.0415  0.1553 -0.6377
14281TIP3    H164258   2.722   3.039  14.324 -3.1110  0.0965  0.8492
14281TIP3    H264259   2.774   3.180  14.347 -0.2228 -0.4615 -1.8615
14282TIP3   OH264260   4.248   2.195  11.843  0.1162 -0.1730 -0.2358
14282TIP3    H164261   4.338   2.229  11.836  0.6213 -1.3233  0.5204
14282TIP3    H264262   4.212   2.240  11.920  0.2647 -0.1951 -0.1517
14283TIP3   OH264263   2.392   2.880   5.988  0.2783  0.6563 -0.2482
14283TIP3    H164264   2.444   2.833   6.053 -0.6961 -3.7757 -2.5253
14283TIP3    H264265   2.317   2.914   6.037  2.3738  2.3010  1.9609
14284TIP3   OH264266   0.885   2.244   2.294 -0.0391 -0.2862  0.5054
14284TIP3    H164267   0.790   2.251   2.290 -0.0785 -0.7280  0.6435
14284TIP3    H264268   0.906   2.168   2.241  0.3947  0.8839 -1.0475
14285TIP3   OH264269   3.025   1.659  13.941  0.2087 -0.1027  0.1366
14285TIP3    H164270   3.013   1.566  13.960 -1.9521  0.2806  0.8396
14285TIP3    H264271   2.982   1.671  13.856 -2.4487  0.8225  1.5325
14286TIP3   OH264272   1.722   3.647   4.147 -0.0529 -0.3238  0.4100
14286TIP3    H164273   1.721   3.653   4.052  1.0117 -0.5184  0.3785
14286TIP3    H264274   1.813   3.628   4.169 -0.5514 -1.6957  1.3791
14287TIP3   OH264275   6.345   5.372   4.478  0.4153  0.3119 -0.4118
14287TIP3    H164276   6.310   5.283   4.477 -1.2763  0.9798 -1.3045
14287TIP3    H264277   6.285   5.420   4.535  1.8983  0.6809  0.8895
14288TIP3   OH264278   4.134   5.214  11.329  0.4850 -0.3687  0.2641
14288TIP3    H164279   4.138   5.298  11.374  0.0919 -1.4080  2.2905
14288TIP3    H264280   4.180   5.229  11.246  0.5489  1.7853  0.6595
14289TIP3   OH264281   4.719   0.178  13.603 -0.1130 -0.4379 -0.2141
14289TIP3    H164282   4.734   0.145  13.692  2.0408 -1.6320 -0.9770
14289TIP3    H264283   4.802   0.219  13.579 -0.5200 -0.5532 -1.8470
14290TIP3   OH264284   5.589   6.564  10.896 -0.0282  0.2485  0.4451
14290TIP3    H164285   5.671   6.608  10.875  0.5297 -0.4557  1.1163
14290TIP3    H264286   5.545   6.623  10.957 -0.3702  0.9792 -0.5025
14291TIP3   OH264287   0.808   3.781   0.596 -0.3189  0.1595 -0.0954
14291TIP3    H164288   0.800   3.876   0.602 -0.6890  0.3142 -2.5834
14291TIP3    H264289   0.724   3.752   0.560 -0.7387 -1.2634  1.9659
14292TIP3   OH264290   3.543   2.934  17.185 -0.2817 -0.1372 -0.5126
14292TIP3    H164291   3.449   2.918  17.181 -0.5488  0.6944  1.6948
14292TIP3    H264292   3.559   2.997  17.115 -1.6448  0.9363  0.1165
14293TIP3   OH264293   0.531   4.463   4.808  0.4125  0.8674  0.1827
14293TIP3    H164294   0.554   4.396   4.873  1.2114  1.1936  0.2373
14293TIP3    H264295   0.614   4.488   4.768 -0.3130 -0.9584 -2.5876
14294TIP3   OH264296   3.229   0.767  11.631 -0.1056  0.3423  0.0970
14294TIP3    H164297   3.254   0.758  11.723 -1.8978 -1.8014  0.3942
14294TIP3    H264298   3.176   0.847  11.628  3.2260  2.6605  0.1661
14295TIP3   OH264299   1.161   3.323   2.432 -0.2333 -0.0711  0.0881
14295TIP3    H164300   1.170   3.338   2.338  0.2570 -0.2710  0.1050
14295TIP3    H264301   1.112   3.241   2.439  1.2848 -1.0020  0.0085
14296TIP3   OH264302   1.684   2.979   6.307  0.0988  0.5405  0.1035
14296TIP3    H164303   1.698   3.058   6.359  1.3712  1.5326 -1.6753
14296TIP3    H264304   1.597   2.991   6.269  0.3744  1.2093 -0.3356
14297TIP3   OH264305   1.201   5.149   6.445  0.0904  0.5518  0.1217
14297TIP3    H164306   1.204   5.070   6.391  0.1761  0.4197  0.3152
14297TIP3    H264307   1.289   5.154   6.484  0.8406  2.0179 -1.6702
14298TIP3   OH264308   1.521   5.729  13.912  0.4059 -0.1183  0.0343
14298TIP3    H164309   1.478   5.651  13.878 -0.0147 -0.5756  1.5748
14298TIP3    H264310   1.464   5.801  13.886 -0.6632 -0.6000  0.9845
14299TIP3   OH264311   6.708   0.945  15.903  0.0049  0.1087 -0.4789
14299TIP3    H164312   6.629   0.936  15.957 -1.6763  0.7798 -2.7811
14299TIP3    H264313   6.711   1.038  15.881  1.5461  0.1155 -0.2955
14300TIP3   OH264314   1.874   5.655   0.072  0.1093  0.2584  0.3386
14300TIP3    H164315   1.915   5.594   0.133  0.1787  1.5617  1.6137
14300TIP3    H264316   1.789   5.676   0.112 -0.9065 -0.7648 -1.2238
14301TIP3   OH264317   0.937   0.823  11.878  0.1047 -0.1956 -0.0535
14301TIP3    H164318   0.919   0.755  11.943  2.3433  1.3002  2.2435
14301TIP3    H264319   0.991   0.779  11.812 -1.6376 -1.5723 -0.5926
14302TIP3   OH264320   6.384   4.436   0.362  0.1676 -0.3683 -0.0709
14302TIP3    H164321   6.383   4.532   0.365 -0.0083 -0.2748 -2.2509
14302TIP3    H264322   6.446   4.410   0.431  1.5773  1.3674 -0.6547
14303TIP3   OH264323   5.521   2.110  16.580  0.3165  0.4945 -0.5463
14303TIP3    H164324   5.538   2.150  16.665 -0.2460  1.6730 -0.9743
14303TIP3    H264325   5.540   2.180  16.517  1.6954 -0.6670 -1.4560
14304TIP3   OH264326   6.218   4.890   3.538  0.1759  0.0274  0.4342
14304TIP3    H164327   6.175   4.972   3.560  2.0181  1.4155 -1.0013
14304TIP3    H264328   6.295   4.887   3.595  0.0557 -0.7740  0.5619
14305TIP3   OH264329   2.750   6.770   4.717  0.1178 -0.5893 -0.8368
14305TIP3    H164330   2.826   6.829   4.724  1.1178 -2.1513  2.4728
14305TIP3    H264331   2.683   6.822   4.673  1.5692  2.4510  0.3921
14306TIP3   OH264332   2.838   5.467   2.828  0.4887 -0.1592  0.1586
14306TIP3    H164333   2.811   5.523   2.755  1.6659 -0.1670 -0.2824
14306TIP3    H264334   2.882   5.393   2.787  0.6190 -0.4702  0.8511
14307TIP3   OH264335   6.113   4.982   1.415  0.4785  0.3534  0.4406
14307TIP3    H164336   6.044   4.927   1.452  0.5959  1.0604  1.7155
14307TIP3    H264337   6.138   4.937   1.334 -0.8765 -0.3590  0.4027
14308TIP3   OH264338   2.656   6.731  12.246  0.5511 -0.4621 -0.1150
14308TIP3    H164339   2.584   6.707  12.187  1.4778  1.7779 -2.2371
14308TIP3    H264340   2.715   6.656  12.243 -0.3350 -1.1591 -0.5102
14309TIP3   OH264341   4.312   4.880   2.746 -0.0090  0.4928  0.3141
14309TIP3    H164342   4.288   4.830   2.668  2.8173  0.3702 -0.5551
14309TIP3    H264343   4.284   4.969   2.727  0.1208  0.3461 -0.6069
14310TIP3   OH264344   0.847   3.397   1.655 -0.4777  0.0068 -0.7922
14310TIP3    H164345   0.776   3.459   1.637 -0.6463 -0.3400 -1.3561
14310TIP3    H264346   0.927   3.445   1.637 -0.6169 -0.0375 -1.5556
14311TIP3   OH264347   4.077   6.257  17.054  0.1215 -0.1390  0.4909
14311TIP3    H164348   4.022   6.320  17.006 -0.3573 -2.0458 -1.5165
14311TIP3    H264349   4.165   6.273  17.021  0.2975  0.6900  1.3236
14312TIP3   OH264350   6.512   5.227  12.964  0.3950  0.4071  0.1922
14312TIP3    H164351   6.449   5.200  12.898  1.5184 -1.6638 -0.0734
14312TIP3    H264352   6.458   5.255  13.038 -0.8469  0.4462 -0.7066
14313TIP3   OH264353   0.892   4.045  11.661  0.9813  0.0580 -0.3975
14313TIP3    H164354   0.974   3.995  11.659  1.6037  1.0969 -1.7173
14313TIP3    H264355   0.914   4.128  11.618 -0.7905  0.3064 -0.8542
14314TIP3   OH264356   2.941   4.603  13.496  0.2267 -0.4258  0.0352
14314TIP3    H164357   2.959   4.624  13.588 -0.0396  0.5086 -0.1228
14314TIP3    H264358   3.019   4.632  13.449  0.3682 -0.9184 -0.0363
14315TIP3   OH264359   2.208   5.569  16.769 -0.0492 -0.2475 -0.3337
14315TIP3    H164360   2.177   5.610  16.850  0.4152 -1.1851  0.3371
14315TIP3    H264361   2.144   5.499  16.753 -0.4585  0.3021 -1.0948
14316TIP3   OH264362   6.403   6.774   4.617 -0.1350 -0.1881 -0.6781
14316TIP3    H164363   6.430   6.771   4.709 -0.6484  1.4513 -0.4484
14316TIP3    H264364   6.310   6.796   4.620  0.2330  1.6350 -1.5907
14317TIP3   OH264365   6.192   3.173   3.609  0.4546  0.4596 -0.2213
14317TIP3    H164366   6.177   3.267   3.621  1.0187  0.6774 -1.2128
14317TIP3    H264367   6.287   3.163   3.611  0.3625 -0.2296  0.8894
14318TIP3   OH264368   1.027   0.838  16.994 -0.2607 -0.5191 -0.0539
14318TIP3    H164369   0.949   0.878  17.032 -0.0418 -0.2067  0.0626
14318TIP3    H264370   1.100   0.888  17.030 -0.1071  0.7312 -2.0121
14319TIP3   OH264371   6.440   1.771  16.698 -0.9006 -0.1252  0.4815
14319TIP3    H164372   6.436   1.748  16.605 -0.5739 -1.5673  0.8186
14319TIP3    H264373   6.358   1.738  16.734  0.6572 -3.0605  1.4627
14320TIP3   OH264374   4.887   1.447  12.836 -0.1975  0.5193 -0.3142
14320TIP3    H164375   4.891   1.414  12.746  0.4738  1.9950 -0.8457
14320TIP3    H264376   4.799   1.425  12.867  0.3653 -2.1016 -0.4965
14321TIP3   OH264377   0.637   2.595  13.339 -0.1852  0.5635  0.2839
14321TIP3    H164378   0.637   2.619  13.246  1.2895 -0.7796 -0.0604
14321TIP3    H264379   0.719   2.549  13.353 -0.3785  0.7657  2.2793
14322TIP3   OH264380   0.048   4.563   1.421 -0.3098  0.3824 -0.1277
14322TIP3    H164381   0.026   4.475   1.450 -0.2380  0.7414  1.0438
14322TIP3    H264382   0.142   4.570   1.437 -0.2423  0.5372 -0.5850
14323TIP3   OH264383   5.272   6.134   6.040 -0.5237 -0.4614  0.5701
14323TIP3    H164384   5.186   6.143   6.080 -0.5687 -2.1500  0.8954
14323TIP3    H264385   5.308   6.054   6.079  1.1401  0.1775  0.3598
14324TIP3   OH264386   0.002   4.365   4.464  0.4858 -0.6365 -0.5278
14324TIP3    H164387   0.055   4.443   4.483 -1.7134  0.5081  1.1169
14324TIP3    H264388   0.026   4.304   4.533  0.2328 -0.3951 -0.2224
14325TIP3   OH264389   6.604   6.312  11.618  0.6560  0.6972  0.3067
14325TIP3    H164390   6.544   6.351  11.554  1.1203 -0.1527 -0.6634
14325TIP3    H264391   6.677   6.374  11.623  1.2199  0.1642 -0.9556
14326TIP3   OH264392   1.152   1.461  16.984  0.6962  0.8972 -0.3704
14326TIP3    H164393   1.091   1.522  17.026 -0.5250 -1.2440  1.0501
14326TIP3    H264394   1.143   1.478  16.890 -0.7365  1.8679 -0.0623
14327TIP3   OH264395   1.392   1.051   1.936 -0.5297  0.0935  0.1102
14327TIP3    H164396   1.358   1.040   2.025 -0.5038 -0.6169  0.0312
14327TIP3    H264397   1.435   1.137   1.938 -1.3210  0.4857  0.5269
14328TIP3   OH264398   4.218   2.936  13.980  0.0501  0.0203 -0.3093
14328TIP3    H164399   4.237   2.989  14.058 -0.7428  0.1063 -0.1646
14328TIP3    H264400   4.297   2.885  13.966  0.0631 -0.2825  0.7906
14329TIP3   OH264401   0.317   3.797   2.192  0.8638 -0.4575 -0.1818
14329TIP3    H164402   0.345   3.792   2.283 -0.1745 -0.9076  0.1293
14329TIP3    H264403   0.335   3.710   2.156 -3.5133 -2.0452  1.0796
14330TIP3   OH264404   2.382   0.367   1.683 -0.0477 -0.0724  0.0852
14330TIP3    H164405   2.397   0.291   1.740  0.6782 -1.8945 -2.4015
14330TIP3    H264406   2.330   0.332   1.611 -0.2959  1.9789 -0.7463
14331TIP3   OH264407   2.708   1.918  16.500 -0.1241 -0.3384 -0.3788
14331TIP3    H164408   2.802   1.932  16.516  0.2258 -0.6862 -1.9910
14331TIP3    H264409   2.676   1.876  16.580  0.8806  0.7098  0.5858
14332TIP3   OH264410   2.585   0.782  14.090 -0.1405  0.2233 -0.6293
14332TIP3    H164411   2.521   0.841  14.131  0.7865  0.0445  1.1345
14332TIP3    H264412   2.599   0.713  14.155  1.0072 -0.3345 -1.4501
14333TIP3   OH264413   3.552   1.746   2.653  0.3317 -0.2121  0.1269
14333TIP3    H164414   3.617   1.699   2.705  0.0565  1.5694  2.1684
14333TIP3    H264415   3.469   1.704   2.676  0.6234 -1.8351 -1.7197
14334TIP3   OH264416   0.350   3.736   2.479 -0.0023 -0.4341 -0.0010
14334TIP3    H164417   0.383   3.740   2.569  1.1771 -1.1643 -0.3814
14334TIP3    H264418   0.358   3.644   2.456 -1.9921 -0.5550 -0.2488
14335TIP3   OH264419   5.322   6.471   3.630 -0.0415 -0.3152 -0.3811
14335TIP3    H164420   5.280   6.557   3.640  0.1866 -0.1900 -0.5072
14335TIP3    H264421   5.253   6.409   3.652  0.8922 -0.0214  3.7917
14336TIP3   OH264422   2.937   0.629  14.487  0.6308 -0.4130  0.3834
14336TIP3    H164423   3.028   0.649  14.462 -0.1257  1.1789 -1.2547
14336TIP3    H264424   2.918   0.547  14.441  1.4625 -1.1512  1.3275
14337TIP3   OH264425   2.244   5.818   1.217 -0.3771  0.4122  0.1941
14337TIP3    H164426   2.179   5.751   1.237 -0.7822  0.9357  0.6295
14337TIP3    H264427   2.280   5.844   1.302 -0.2231  0.7503  0.0289
14338TIP3   OH264428   0.073   4.173  12.217  0.9723  0.5454  0.2898
14338TIP3    H164429   0.048   4.166  12.125  0.1110  0.5667  0.5191
14338TIP3    H264430   0.153   4.225  12.215  1.4781 -0.2388 -0.5206
14339TIP3   OH264431   2.792   3.533  14.134 -0.7802 -0.3124 -0.2311
14339TIP3    H164432   2.853   3.590  14.181 -0.5102 -0.7126 -0.0952
14339TIP3    H264433   2.842   3.504  14.057 -1.1733  0.2339 -0.6976
14340TIP3   OH264434   4.138   0.351  14.696 -0.4409 -0.0261 -0.1488
14340TIP3    H164435   4.194   0.404  14.752 -1.9723  1.7784 -0.2799
14340TIP3    H264436   4.071   0.412  14.665  0.2883 -0.9978 -3.8575
14341TIP3   OH264437   5.571   3.608   4.085 -0.1066  0.0953  0.1507
14341TIP3    H164438   5.507   3.545   4.118  0.0287 -0.0623  0.1146
14341TIP3    H264439   5.636   3.615   4.156  1.1467 -1.6077 -0.7900
14342TIP3   OH264440   1.289   2.603   4.800  0.3284 -0.2697  0.1663
14342TIP3    H164441   1.361   2.651   4.759  0.2767 -0.1682  0.1956
14342TIP3    H264442   1.217   2.666   4.805  0.0805 -0.5131 -0.3042
14343TIP3   OH264443   3.088   6.489   0.879  0.1303  0.1985 -0.2374
14343TIP3    H164444   3.175   6.521   0.901  0.1830 -0.0390 -0.0936
14343TIP3    H264445   3.028   6.557   0.910  0.3494  1.1236 -1.8192
14344TIP3   OH264446   6.509   3.585  11.614 -0.0538 -0.3365 -0.7563
14344TIP3    H164447   6.597   3.605  11.644 -0.1028 -2.0340  0.5354
14344TIP3    H264448   6.522   3.532  11.536  0.1003 -2.6420  0.8015
14345TIP3   OH264449   5.919   1.924   2.233 -0.0485 -0.5664  0.5584
14345TIP3    H164450   5.887   2.014   2.224 -0.7762 -0.8135  0.6091
14345TIP3    H264451   6.011   1.933   2.257  0.2716  0.1629 -0.8540
14346TIP3   OH264452   4.414   4.840  11.952 -0.0042 -0.1324  0.1584
14346TIP3    H164453   4.352   4.912  11.959  0.1996  0.0741 -0.1720
14346TIP3    H264454   4.500   4.881  11.965 -0.0220 -0.6419  2.1503
14347TIP3   OH264455   5.163   6.339   5.860 -0.1966  0.0235 -0.0312
14347TIP3    H164456   5.214   6.414   5.888  0.8329 -0.2049 -1.2220
14347TIP3    H264457   5.201   6.265   5.908 -1.3697  0.3000  1.3233
14348TIP3   OH264458   1.799   0.696  13.791  0.0484 -0.0289  0.0251
14348TIP3    H164459   1.780   0.785  13.822  0.7993  0.3415 -0.5510
14348TIP3    H264460   1.849   0.709  13.710 -1.7370 -0.9605 -1.2753
14349TIP3   OH264461   5.287   3.075  11.388 -0.0178  0.2891  0.1226
14349TIP3    H164462   5.264   3.141  11.453  0.1222  2.1718 -1.7068
14349TIP3    H264463   5.270   3.117  11.304  1.2416 -1.5887 -1.1023
14350TIP3   OH264464   2.059   3.802  12.820  0.3169  0.3668 -0.1912
14350TIP3    H164465   2.144   3.803  12.776  0.5715  0.9017  0.3047
14350TIP3    H264466   2.069   3.741  12.893  1.0698  2.3238  1.3970
14351TIP3   OH264467   3.133   3.654   5.398  0.3863 -0.1574  0.1877
14351TIP3    H164468   3.079   3.576   5.398  0.8035 -0.4825  2.3573
14351TIP3    H264469   3.076   3.723   5.432  0.7500 -0.0874  0.6687
14352TIP3   OH264470   6.081   1.042   0.736  0.3118 -0.5976 -0.1864
14352TIP3    H164471   6.108   1.100   0.665  0.4354 -0.1503  0.2281
14352TIP3    H264472   6.073   1.099   0.813  1.4859 -1.3083  0.4764
14353TIP3   OH264473   4.995   6.420  13.614 -0.2820  0.0519  0.4982
14353TIP3    H164474   4.969   6.363  13.542  1.2956  0.9914 -0.8658
14353TIP3    H264475   5.082   6.388  13.640  0.4471  1.5455 -0.0250
14354TIP3   OH264476   2.520   0.047  13.615 -0.0532 -0.1655  0.1250
14354TIP3    H164477   2.532   0.037  13.520  0.1543 -1.5568  0.2736
14354TIP3    H264478   2.494  -0.041  13.644  2.6233 -0.4872  1.7398
14355TIP3   OH264479   4.236   4.221   4.867  0.4715 -0.4432  0.2129
14355TIP3    H164480   4.149   4.257   4.848  0.9469  1.0739  0.8620
14355TIP3    H264481   4.220   4.128   4.880 -1.2686  0.0113  1.5816
14356TIP3   OH264482   2.245   5.677  12.969  0.4102  0.2283 -0.7128
14356TIP3    H164483   2.216   5.665  12.878 -0.4110  0.3671 -0.4786
14356TIP3    H264484   2.333   5.641  12.971  0.2318 -0.2764 -1.4432
14357TIP3   OH264485   0.404   2.327   0.569 -0.2327  0.3525 -0.1630
14357TIP3    H164486   0.345   2.263   0.527  0.6317  0.8912 -2.2622
14357TIP3    H264487   0.409   2.399   0.506  1.2604  1.1096  0.8133
14358TIP3   OH264488   1.336   2.918  13.309 -0.6283 -0.3529  0.1044
14358TIP3    H164489   1.320   2.896  13.217 -2.1244 -0.4665  0.3642
14358TIP3    H264490   1.398   2.991  13.306 -2.5352  1.2931 -1.1170
14359TIP3   OH264491   6.485   5.385   0.585 -0.1335 -0.0695 -0.2146
14359TIP3    H164492   6.483   5.296   0.621 -3.7843 -0.1074 -0.3172
14359TIP3    H264493   6.467   5.373   0.492 -0.0749  0.7612 -0.3327
14360TIP3   OH264494   5.991   0.976  17.185 -0.1752 -0.0714 -0.0831
14360TIP3    H164495   5.971   1.030  17.261 -1.8893  0.8170 -1.1360
14360TIP3    H264496   6.082   0.950  17.197 -0.0141  1.1941  1.5661
14361TIP3   OH264497   5.724   2.353   2.896  0.4814  0.1213 -0.2376
14361TIP3    H164498   5.737   2.268   2.856 -0.7211 -0.0815 -0.2093
14361TIP3    H264499   5.639   2.383   2.863  0.4059  0.8383  0.5745
14362TIP3   OH264500   1.014   0.581   4.984 -0.9629 -0.2939 -0.1507
14362TIP3    H164501   1.035   0.585   4.890 -0.3583  0.4511  0.0149
14362TIP3    H264502   0.918   0.580   4.986 -0.9735 -1.2129 -0.8105
14363TIP3   OH264503   2.382   1.775  12.980 -0.5906 -0.1572 -0.0691
14363TIP3    H164504   2.327   1.701  13.007 -1.6205  0.8759  0.7328
14363TIP3    H264505   2.396   1.825  13.060  0.3109  0.3853 -0.5588
14364TIP3   OH264506   1.760   0.364  12.627 -0.1148  0.6581 -0.2646
14364TIP3    H164507   1.719   0.394  12.545  0.9522 -0.6314 -1.2754
14364TIP3    H264508   1.851   0.348  12.604  0.3131  0.7459  1.3116
14365TIP3   OH264509   1.740   5.470  16.297 -0.2204 -0.4410 -0.1583
14365TIP3    H164510   1.759   5.456  16.204  0.3875 -1.1374  0.0622
14365TIP3    H264511   1.709   5.560  16.302  3.9484  1.0891 -0.4096
14366TIP3   OH264512   3.679   2.269   2.780  0.2439 -0.2972 -0.0127
14366TIP3    H164513   3.657   2.313   2.698 -3.3195 -3.0517 -0.6681
14366TIP3    H264514   3.612   2.298   2.842 -0.6738 -2.7941  0.2171
14367TIP3   OH264515   3.734   5.482   2.422  0.1390 -0.0290  0.2855
14367TIP3    H164516   3.796   5.411   2.408 -0.8462 -0.5123 -1.8677
14367TIP3    H264517   3.650   5.446   2.394 -0.6509  1.4522  0.7060
14368TIP3   OH264518   5.583   1.149   3.139  0.1208 -0.5508 -0.6389
14368TIP3    H164519   5.606   1.177   3.228  1.6502 -2.2036 -0.4774
14368TIP3    H264520   5.650   1.188   3.083  0.6046 -1.5239 -0.7496
14369TIP3   OH264521   5.181   4.331  14.854  0.1466 -0.2782 -0.2084
14369TIP3    H164522   5.219   4.408  14.811 -0.8840  0.7652  0.6949
14369TIP3    H264523   5.219   4.332  14.942 -0.0147 -0.6885 -0.1321
14370TIP3   OH264524   3.653   0.838  14.685 -0.4075 -0.2517 -0.0794
14370TIP3    H164525   3.724   0.779  14.709 -1.1924 -1.6064 -1.0045
14370TIP3    H264526   3.605   0.853  14.766  0.4594  0.0410  0.3894
14371TIP3   OH264527   5.354   3.999  15.258 -0.4163 -0.6076  0.2190
14371TIP3    H164528   5.416   3.942  15.302  0.5048 -0.5800 -1.0199
14371TIP3    H264529   5.408   4.058  15.206 -1.3532  1.2875  1.3299
14372TIP3   OH264530   2.695   4.855   2.772 -0.5385 -0.1809  0.1761
14372TIP3    H164531   2.627   4.876   2.835 -1.0259 -1.7025  0.1848
14372TIP3    H264532   2.747   4.786   2.814  1.0542  1.0120  0.2009
14373TIP3   OH264533   2.093   3.409   1.998  0.0414  0.1985  0.2794
14373TIP3    H164534   2.082   3.414   2.092  1.3847  0.0623  0.4538
14373TIP3    H264535   2.043   3.483   1.964 -1.7700 -0.7009  0.9772
14374TIP3   OH264536   3.045   5.995   5.786 -0.2777  0.1593  0.3652
14374TIP3    H164537   3.014   5.997   5.876 -0.2705 -1.4435  0.4104
14374TIP3    H264538   3.111   5.925   5.784 -0.2654  0.1909 -0.8751
14375TIP3   OH264539   6.243   2.411   4.827  0.0656  0.2013 -0.0583
14375TIP3    H164540   6.253   2.430   4.733  0.0485 -1.6574 -0.4514
14375TIP3    H264541   6.259   2.317   4.834  0.7199  0.4450  1.9164
14376TIP3   OH264542   3.975   3.029  16.496  0.4574 -0.2140 -0.6111
14376TIP3    H164543   4.026   2.972  16.554 -0.0068  0.9444  0.9362
14376TIP3    H264544   4.041   3.078  16.446  0.8943 -2.9673 -2.8936
14377TIP3   OH264545   3.094   1.718  15.043 -0.5096  0.3300 -0.1268
14377TIP3    H164546   3.177   1.738  15.001 -0.8619  0.3343 -0.8339
14377TIP3    H264547   3.028   1.742  14.978 -1.0459 -0.0948  0.2540
14378TIP3   OH264548   0.411   2.675   6.385  0.1877 -0.2554 -0.0180
14378TIP3    H164549   0.421   2.667   6.290  0.2535  1.3464 -0.1737
14378TIP3    H264550   0.416   2.770   6.401  1.3404 -0.5859  1.7088
14379TIP3   OH264551   0.440   5.614   0.078  0.8181  0.0652 -0.1270
14379TIP3    H164552   0.387   5.610   0.158  0.5649  3.8713 -0.0040
14379TIP3    H264553   0.401   5.549   0.020 -1.6473  0.1675  1.3479
14380TIP3   OH264554   5.185   6.101  13.002 -0.4757  0.0498  0.2407
14380TIP3    H164555   5.225   6.186  12.981 -1.1387  1.1033  3.0081
14380TIP3    H264556   5.107   6.124  13.052  0.2180 -2.2282  2.4661
14381TIP3   OH264557   5.646   0.382  16.131 -0.1114  0.1105  0.3440
14381TIP3    H164558   5.737   0.354  16.127  0.3787  1.5299  1.0832
14381TIP3    H264559   5.639   0.451  16.064 -0.7980 -0.3989 -0.1201
14382TIP3   OH264560   0.102   0.123  14.278  0.0625 -0.4414 -0.2042
14382TIP3    H164561   0.032   0.062  14.300 -0.9670  1.8161  3.1359
14382TIP3    H264562   0.176   0.095  14.331 -0.0916  0.5609  0.5492
14383TIP3   OH264563   2.274   1.672  14.900  0.2184 -0.8892  0.4815
14383TIP3    H164564   2.321   1.591  14.881 -0.2251 -0.8596 -0.7714
14383TIP3    H264565   2.307   1.734  14.836  0.3121 -0.1518  1.2290
14384TIP3   OH264566   5.570   3.884   0.788  0.2029  0.2758  0.4021
14384TIP3    H164567   5.515   3.958   0.764 -1.1762 -0.9041 -0.1752
14384TIP3    H264568   5.611   3.909   0.870 -3.2391  0.1577  2.2171
14385TIP3   OH264569   1.240   2.866   1.866  0.2957  0.4972 -0.2523
14385TIP3    H164570   1.224   2.886   1.774  1.5199  1.3089 -0.2990
14385TIP3    H264571   1.299   2.791   1.864 -1.8030 -1.2170 -0.0903
14386TIP3   OH264572   2.685   3.911   1.968  0.0422  0.6423  0.0893
14386TIP3    H164573   2.752   3.843   1.972  0.2948  0.8655 -0.4450
14386TIP3    H264574   2.616   3.873   1.914  0.2664  0.8874 -0.3666
14387TIP3   OH264575   3.913   3.146   4.032 -0.3530  0.3018 -0.2458
14387TIP3    H164576   4.007   3.129   4.021  0.1108  1.8495  1.0292
14387TIP3    H264577   3.893   3.212   3.965 -0.3059  0.6892  0.1201
14388TIP3   OH264578   6.432   4.841   0.771 -0.0592 -0.4979 -1.2281
14388TIP3    H164579   6.468   4.857   0.859  1.6158 -1.7108 -1.6631
14388TIP3    H264580   6.378   4.762   0.781 -1.4006  0.4525 -0.8973
14389TIP3   OH264581   5.516   1.700   5.728 -0.1710  0.2491  0.3184
14389TIP3    H164582   5.607   1.721   5.706 -0.3690  1.1129  0.2808
14389TIP3    H264583   5.480   1.662   5.648 -0.4455  1.9318 -0.3936
14390TIP3   OH264584   5.365   6.453  12.483 -0.0934 -0.1296  0.1057
14390TIP3    H164585   5.453   6.492  12.483 -0.6278  1.0988  1.3945
14390TIP3    H264586   5.377   6.368  12.525  0.1216  0.8842  2.1192
14391TIP3   OH264587   6.368   4.663  15.924 -0.2614  0.2692  0.3120
14391TIP3    H164588   6.366   4.715  16.004  1.3374  0.4865  0.2361
14391TIP3    H264589   6.359   4.573  15.953 -2.2910  0.5182  0.5085
14392TIP3   OH264590   5.245   6.213  14.601  0.2888  0.6246  0.6644
14392TIP3    H164591   5.307   6.182  14.667 -0.4833 -0.3883  0.9261
14392TIP3    H264592   5.170   6.245  14.652  0.2531  1.0854  0.3235
14393TIP3   OH264593   1.777   1.317  15.764 -0.2606  0.4591  0.4461
14393TIP3    H164594   1.749   1.387  15.823  1.0444  2.0678 -0.8013
14393TIP3    H264595   1.709   1.313  15.697 -0.3634  0.4866  0.5485
14394TIP3   OH264596   4.703   3.987   0.167 -0.4338  0.5036  0.3697
14394TIP3    H164597   4.648   3.976   0.089 -0.8623 -0.3231  0.7833
14394TIP3    H264598   4.779   4.036   0.136 -0.7281  0.4068 -0.5176
14395TIP3   OH264599   1.215   3.160  14.053  0.0952  0.6088 -0.0470
14395TIP3    H164600   1.281   3.091  14.057 -0.5338 -0.4164 -4.1867
14395TIP3    H264601   1.132   3.116  14.071 -0.0282  0.8254 -0.0770
14396TIP3   OH264602   1.461   0.130  14.636 -0.2251 -0.4135 -0.0000
14396TIP3    H164603   1.378   0.142  14.682 -0.2740  0.3303 -0.2806
14396TIP3    H264604   1.451   0.047  14.590 -0.4881 -0.7557  0.6569
14397TIP3   OH264605   5.506   4.295  12.911 -0.5200  0.3249  0.3871
14397TIP3    H164606   5.416   4.308  12.940 -0.5199  1.3169 -0.0593
14397TIP3    H264607   5.507   4.327  12.821 -0.0012 -0.7471 -0.0002
14398TIP3   OH264608   3.891   2.847   1.567  0.7213 -0.6509 -0.4038
14398TIP3    H164609   3.985   2.865   1.571  0.2309  1.8760  1.1208
14398TIP3    H264610   3.856   2.889   1.645 -1.9255  0.0350 -1.9057
14399TIP3   OH264611   5.377   4.656   0.210 -0.8619  0.1743  0.3736
14399TIP3    H164612   5.351   4.741   0.175 -1.7612 -0.0415  0.4923
14399TIP3    H264613   5.472   4.654   0.203 -0.9578  0.5376 -1.1381
14400TIP3   OH264614   2.204   3.507   4.383 -0.3748 -0.1446  0.4166
14400TIP3    H164615   2.169   3.580   4.334 -2.6897 -1.8341 -0.5442
14400TIP3    H264616   2.286   3.484   4.338 -0.5211  0.7469 -0.3071
14401TIP3   OH264617   0.168   2.757  16.413  0.0312  0.3763 -0.3146
14401TIP3    H164618   0.187   2.703  16.490 -0.0146  3.1233  1.7098
14401TIP3    H264619   0.248   2.806  16.397 -1.4251  3.2236  0.8843
14402TIP3   OH264620   5.474   2.758   4.768 -0.3915  0.2915  0.3443
14402TIP3    H164621   5.476   2.791   4.857  1.0940 -0.3742  0.5595
14402TIP3    H264622   5.564   2.767   4.736 -0.7105 -0.3437 -0.7702
14403TIP3   OH264623   1.965   2.988  14.819 -0.2739 -0.3779  0.0156
14403TIP3    H164624   2.024   3.053  14.858  1.0712 -0.5456 -1.6750
14403TIP3    H264625   1.881   3.033  14.813  0.2797  0.7116  0.2187
14404TIP3   OH264626   4.217   4.746  15.862  0.3034 -0.9383 -0.1254
14404TIP3    H164627   4.227   4.836  15.830 -0.8940 -0.8771 -0.3375
14404TIP3    H264628   4.200   4.756  15.955 -0.5329 -0.9131 -0.2813
14405TIP3   OH264629   3.964   3.867  14.669  0.1389  0.1554 -0.2068
14405TIP3    H164630   3.919   3.951  14.661 -1.9143 -0.7328  1.3792
14405TIP3    H264631   4.039   3.885  14.727 -0.1429  0.9392 -0.0789
14406TIP3   OH264632   4.065   2.416  16.206 -0.0469 -0.3672 -0.0570
14406TIP3    H164633   4.002   2.488  16.217 -1.7750 -1.8092 -0.3097
14406TIP3    H264634   4.064   2.397  16.112  1.6518  0.3519 -0.2402
14407TIP3   OH264635   5.266   5.206  11.123  0.0612  0.0472  0.5458
14407TIP3    H164636   5.208   5.130  11.138 -1.0365  0.9748  1.0998
14407TIP3    H264637   5.353   5.168  11.113 -0.7869 -1.4678 -1.3015
14408TIP3   OH264638   6.642   6.680  13.790 -0.2564  0.2751  0.0213
14408TIP3    H164639   6.579   6.669  13.719  0.5660 -1.5057 -0.4403
14408TIP3    H264640   6.594   6.728  13.858 -0.9538  2.2756 -1.8282
14409TIP3   OH264641   3.071   5.648  11.440  0.0249  0.0441 -0.1672
14409TIP3    H164642   3.165   5.647  11.427  0.1670  1.2587  0.6625
14409TIP3    H264643   3.053   5.571  11.494  0.6249  0.2103  0.2691
14410TIP3   OH264644   4.238   4.037  11.608  0.1357 -0.0107 -0.3167
14410TIP3    H164645   4.257   4.000  11.522  0.5483  0.9666 -0.6565
14410TIP3    H264646   4.314   4.015  11.662  0.7458  1.0376 -0.7441
14411TIP3   OH264647   2.301   5.267   0.793 -0.2820  0.1731 -0.0301
14411TIP3    H164648   2.322   5.337   0.855  0.9266  0.4165 -0.6994
14411TIP3    H264649   2.381   5.255   0.742 -1.0321 -0.5166 -1.0692
14412TIP3   OH264650   0.140   2.531   1.485 -0.1439  0.5553  0.0469
14412TIP3    H164651   0.218   2.502   1.532  1.5470  3.1610 -1.0274
14412TIP3    H264652   0.164   2.525   1.393 -0.7789  2.4196 -0.2676
14413TIP3   OH264653   3.673   2.592   1.582 -0.2034 -0.0930  0.3123
14413TIP3    H164654   3.684   2.502   1.551  1.9202  0.1941  0.1861
14413TIP3    H264655   3.695   2.646   1.506  2.4358  0.5750  1.5257
14414TIP3   OH264656   2.147   1.252   1.121 -0.3971  0.3744  0.1658
14414TIP3    H164657   2.201   1.198   1.062 -1.2127  0.1696 -0.4163
14414TIP3    H264658   2.087   1.298   1.062 -0.4512  1.0625  0.7563
14415TIP3   OH264659   4.686   6.558  16.179 -0.3105  0.0901  0.3191
14415TIP3    H164660   4.592   6.564  16.193 -0.3512  2.9077 -0.6840
14415TIP3    H264661   4.720   6.643  16.209  1.4266  0.4590 -2.4465
14416TIP3   OH264662   5.035   5.162   5.802 -0.1389 -0.5178 -0.5674
14416TIP3    H164663   4.971   5.116   5.750  0.5405 -1.4438 -0.5920
14416TIP3    H264664   5.036   5.116   5.886 -0.5000  0.3379 -0.0897
14417TIP3   OH264665   5.654   1.536   3.873  0.3333 -0.4747  0.9355
14417TIP3    H164666   5.699   1.562   3.792  0.8602 -1.6855  0.8328
14417TIP3    H264667   5.674   1.443   3.883 -2.0033 -1.0032  0.9815
14418TIP3   OH264668   1.011   0.335  11.658 -0.3237 -0.2205 -0.0006
14418TIP3    H164669   1.068   0.266  11.624 -0.2115 -2.6702  4.6992
14418TIP3    H264670   1.071   0.405  11.684  0.1586 -0.8474  0.6070
14419TIP3   OH264671   3.368   0.998   5.351  0.2347  0.3181  0.0186
14419TIP3    H164672   3.406   0.932   5.410  1.4139  2.1880  1.3909
14419TIP3    H264673   3.321   1.058   5.410 -1.3988  0.3480 -1.2808
14420TIP3   OH264674   1.018   0.451   1.117  0.3972  0.6191  0.3692
14420TIP3    H164675   1.060   0.532   1.089  2.0394  0.1350  1.3378
14420TIP3    H264676   1.008   0.461   1.212 -0.1591  0.0320  0.3778
14421TIP3   OH264677   0.905   2.553  13.402 -0.5089 -0.7639  0.4999
14421TIP3    H164678   0.971   2.507  13.350  0.4873 -0.1357  1.1947
14421TIP3    H264679   0.949   2.632  13.432 -1.8922  0.1255  0.1895
14422TIP3   OH264680   3.829   6.605  13.031  0.1046 -0.1018  0.9582
14422TIP3    H164681   3.845   6.679  12.972  1.3015 -1.0688  0.0366
14422TIP3    H264682   3.858   6.635  13.117 -0.0877  0.7460  0.7236
14423TIP3   OH264683   1.650   4.180   2.191 -0.4615  0.4895  0.0892
14423TIP3    H164684   1.649   4.129   2.272 -0.3354  0.2505 -0.0608
14423TIP3    H264685   1.562   4.170   2.155  0.1187 -1.1685 -0.9098
14424TIP3   OH264686   5.548   1.830   1.207  0.3183 -0.4126  0.0162
14424TIP3    H164687   5.616   1.778   1.163 -0.3446  1.0575 -2.9320
14424TIP3    H264688   5.504   1.876   1.135 -1.8890  0.9007  2.1500
14425TIP3   OH264689   5.608   0.782   5.861  0.6217  0.3773  0.0681
14425TIP3    H164690   5.556   0.836   5.921 -0.9452  1.0414 -1.8091
14425TIP3    H264691   5.697   0.788   5.895  0.1582  2.6144  1.0159
14426TIP3   OH264692   2.617   3.557   2.646  0.7587  0.2485  0.0451
14426TIP3    H164693   2.682   3.501   2.690  0.6414  0.1969  0.1508
14426TIP3    H264694   2.544   3.562   2.708 -0.5728 -2.0549 -1.2699
14427TIP3   OH264695   3.117   5.569  13.274 -0.2562  0.5410 -0.1860
14427TIP3    H164696   3.096   5.572  13.181 -0.2045  0.6214 -0.1937
14427TIP3    H264697   3.032   5.564  13.318 -0.2809  0.5160 -0.2356
14428TIP3   OH264698   2.652   2.404  13.502 -0.0481 -0.4714 -0.1723
14428TIP3    H164699   2.670   2.330  13.561 -0.7366 -0.6771 -0.2147
14428TIP3    H264700   2.570   2.441  13.535 -0.6852 -0.8753 -1.2761
14429TIP3   OH264701   0.972   3.792  12.985  0.3353  1.1600  0.2958
14429TIP3    H164702   0.915   3.854  12.940 -3.2462 -1.5603  0.9138
14429TIP3    H264703   0.966   3.712  12.934  2.8624  0.5094  0.9486
14430TIP3   OH264704   4.855   6.098  13.963  0.4180 -0.1469 -0.2451
14430TIP3    H164705   4.836   6.006  13.980  1.0223 -0.2985 -0.3786
14430TIP3    H264706   4.817   6.115  13.877 -0.1938 -0.1178  0.0290
14431TIP3   OH264707   2.039   6.371  14.934 -0.0446 -0.0323  0.5097
14431TIP3    H164708   2.060   6.302  14.871 -1.6222 -0.7305  0.7138
14431TIP3    H264709   2.089   6.447  14.904 -1.4832 -0.0658 -2.1700
14432TIP3   OH264710   3.613   2.985   0.329 -0.3545 -0.1251 -0.6333
14432TIP3    H164711   3.592   3.034   0.250  1.5521  0.7526 -0.6485
14432TIP3    H264712   3.609   2.893   0.303 -1.2017  0.1164 -1.3543
14433TIP3   OH264713   0.984   6.052  12.221 -0.7452  0.0418 -0.0001
14433TIP3    H164714   0.890   6.041  12.236 -0.5412 -0.4278  0.9778
14433TIP3    H264715   1.002   6.142  12.246 -1.1763  0.5542 -1.4863
14434TIP3   OH264716   4.809   4.955   5.315  0.1894  0.1619 -0.5185
14434TIP3    H164717   4.800   4.914   5.401  0.6567 -0.3081 -0.6901
14434TIP3    H264718   4.892   4.922   5.281 -0.0115  0.3139 -1.1667
14435TIP3   OH264719   0.068   2.705  13.299 -0.2946 -0.8854 -0.4588
14435TIP3    H164720  -0.015   2.679  13.338 -1.0888  0.9660 -0.8723
14435TIP3    H264721   0.050   2.790  13.257  1.4273 -1.1314 -1.7706
14436TIP3   OH264722   3.345   4.881  14.008  0.7473  0.1232 -0.0049
14436TIP3    H164723   3.429   4.856  14.045  1.1803 -2.8101 -2.7727
14436TIP3    H264724   3.282   4.864  14.078  2.1948  0.5521  1.4399
14437TIP3   OH264725   1.609   1.112  13.449  0.0646  0.3372  0.3543
14437TIP3    H164726   1.628   1.134  13.540  0.0905  1.0084  0.1920
14437TIP3    H264727   1.563   1.028  13.453 -0.6626  0.7613  1.0395
14438TIP3   OH264728   5.137   5.907  16.136  0.3237  0.3465  0.5097
14438TIP3    H164729   5.179   5.961  16.203 -0.7968 -0.5185  1.9249
14438TIP3    H264730   5.124   5.822  16.178 -1.8972  0.2991 -0.2405
14439TIP3   OH264731   3.823   3.080   0.487 -0.4413  0.2082  0.6494
14439TIP3    H164732   3.743   3.038   0.455  1.4113 -2.5895 -0.5336
14439TIP3    H264733   3.840   3.151   0.425 -1.4828  0.2081  0.3588
14440TIP3   OH264734   0.170   2.380  12.611  0.5577  0.2006 -0.1813
14440TIP3    H164735   0.150   2.409  12.522 -1.9015 -0.0256  0.2544
14440TIP3    H264736   0.258   2.344  12.606  1.1879  1.9360 -2.1097
14441TIP3   OH264737   2.314   2.676  10.813 -0.1537 -0.3246 -0.0536
14441TIP3    H164738   2.352   2.594  10.843  2.7425  1.0448  0.1616
14441TIP3    H264739   2.388   2.726  10.778 -1.5557  2.8618  1.2885
14442TIP3   OH264740   1.696   0.426  16.616 -0.2783  0.5594 -0.2051
14442TIP3    H164741   1.791   0.421  16.612 -0.2321  1.7457 -0.6315
14442TIP3    H264742   1.666   0.351  16.564  0.4074 -0.4164  0.7823
14443TIP3   OH264743   2.573   3.347   1.114  0.1034  0.1929  0.1762
14443TIP3    H164744   2.545   3.393   1.034 -1.4670 -0.1620  0.5091
14443TIP3    H264745   2.646   3.400   1.147  0.0984  0.9176 -0.9300
14444TIP3   OH264746   1.255   1.792  11.218 -0.1336  0.0519  0.4654
14444TIP3    H164747   1.284   1.818  11.130 -0.5125  1.8270  0.8512
14444TIP3    H264748   1.195   1.719  11.203  1.4391 -1.0526 -0.6049
14445TIP3   OH264749   0.738   2.566   1.354 -0.3871 -0.2484  0.1570
14445TIP3    H164750   0.813   2.561   1.294  0.5121 -0.0694  1.2446
14445TIP3    H264751   0.665   2.595   1.299  0.0640 -1.5791 -1.1627
14446TIP3   OH264752   5.354   3.491  16.512 -0.0296  0.1648 -0.7001
14446TIP3    H164753   5.405   3.500  16.593 -0.4798  1.4356 -0.5532
14446TIP3    H264754   5.374   3.403  16.481  0.8709  0.0086  0.3050
14447TIP3   OH264755   5.949   3.419  15.702  0.0298 -0.6452  0.0188
14447TIP3    H164756   5.957   3.415  15.798 -1.8078 -3.2833  0.1028
14447TIP3    H264757   5.861   3.453  15.686  0.9131  1.3533 -0.7843
14448TIP3   OH264758   3.910   6.328   2.482 -0.0545 -0.2458 -0.8297
14448TIP3    H164759   3.922   6.235   2.498  0.5629 -0.3239 -1.7020
14448TIP3    H264760   3.865   6.333   2.398 -0.9247  0.2278 -0.3514
14449TIP3   OH264761   1.850   4.605  16.875  0.1655  0.6973  0.4102
14449TIP3    H164762   1.907   4.574  16.945  1.9505  0.9400 -0.9015
14449TIP3    H264763   1.872   4.551  16.799  0.9744  2.9051 -1.0056
14450TIP3   OH264764   2.352   5.032  14.018  0.3953  0.0349 -0.2017
14450TIP3    H164765   2.379   4.952  14.063 -0.6635 -0.7730 -0.9717
14450TIP3    H264766   2.275   5.061  14.066  1.1717  0.9646  0.4855
14451TIP3   OH264767   6.134   5.344  16.383 -0.2799 -0.5747  0.5842
14451TIP3    H164768   6.073   5.413  16.408 -0.1514 -0.2883  0.1068
14451TIP3    H264769   6.110   5.322  16.293 -1.0408 -1.9255  1.0895
14452TIP3   OH264770   4.213   2.388   3.005  0.3848  0.0952  0.1374
14452TIP3    H164771   4.295   2.342   2.987  1.2150  1.0414  1.3727
14452TIP3    H264772   4.165   2.384   2.922  1.6322 -0.5532 -0.5816
14453TIP3   OH264773   2.016   2.822  13.322  0.6661 -0.1251 -0.0372
14453TIP3    H164774   1.997   2.914  13.341 -0.5316 -0.3945  0.0986
14453TIP3    H264775   1.939   2.790  13.277  1.2497 -0.9620 -0.4584
14454TIP3   OH264776   5.124   6.154  12.234  0.0410 -0.2129  0.8356
14454TIP3    H164777   5.085   6.170  12.148  2.0067  1.3155  0.2001
14454TIP3    H264778   5.108   6.234  12.284  2.9257  0.7459  0.3202
14455TIP3   OH264779   6.033   6.483   5.002  0.2702 -0.3202 -0.5738
14455TIP3    H164780   6.025   6.494   5.097  3.2312 -1.0958 -0.1963
14455TIP3    H264781   6.007   6.567   4.965 -1.5298 -0.2143  0.8673
14456TIP3   OH264782   0.740   0.183   1.148  0.2943  0.0229 -0.2206
14456TIP3    H164783   0.725   0.165   1.241 -2.1314  1.9233 -0.1906
14456TIP3    H264784   0.802   0.255   1.148  1.3067 -0.8294 -0.1318
14457TIP3   OH264785   5.241   1.210   0.469 -0.4069  0.4882 -0.3946
14457TIP3    H164786   5.159   1.178   0.507  0.7479 -1.1274  0.8166
14457TIP3    H264787   5.232   1.191   0.375 -1.0145 -0.6157 -0.1305
14458TIP3   OH264788   2.100   0.437   2.044  0.0940  0.1627  0.4245
14458TIP3    H164789   2.044   0.360   2.053  0.0791  0.1149 -0.0317
14458TIP3    H264790   2.096   0.480   2.129 -0.8303  0.2958  0.3211
14459TIP3   OH264791   1.971   2.959   2.146 -0.2476  0.5026 -0.1972
14459TIP3    H164792   1.883   2.998   2.148 -1.1887 -1.5598 -0.3643
14459TIP3    H264793   1.974   2.904   2.224  1.4471  1.6449  0.5859
14460TIP3   OH264794   1.841   6.106  12.605 -0.2175 -0.3695 -0.2965
14460TIP3    H164795   1.907   6.082  12.540 -0.3786  1.2165 -1.0668
14460TIP3    H264796   1.758   6.102  12.558 -0.7334 -2.6261  0.7465
14461TIP3   OH264797   5.898   3.792   0.650  0.4203  0.1060  0.6255
14461TIP3    H164798   5.830   3.790   0.716  1.4120  0.3291  1.6697
14461TIP3    H264799   5.980   3.780   0.698  1.1971  0.7489 -0.4848
14462TIP3   OH264800   0.801   4.826  12.732 -0.0478 -0.0204 -0.3209
14462TIP3    H164801   0.709   4.852  12.731  0.1653  0.7325 -1.8067
14462TIP3    H264802   0.847   4.901  12.694  0.9634 -1.2411 -1.5305
14463TIP3   OH264803   5.834   5.135  16.710 -0.0748 -0.1798  0.2044
14463TIP3    H164804   5.809   5.054  16.753  0.6669 -0.4410  0.1472
14463TIP3    H264805   5.766   5.198  16.734  0.5770 -0.1998  2.1176
14464TIP3   OH264806   4.513   0.070  12.198 -0.3258  0.6184  0.0303
14464TIP3    H164807   4.458   0.136  12.155 -1.4071 -0.9436 -1.0542
14464TIP3    H264808   4.502  -0.009  12.144  0.2824 -0.6769  1.7583
14465TIP3   OH264809   2.078   5.685  14.701 -0.0569 -0.2819 -0.1354
14465TIP3    H164810   2.133   5.695  14.779 -0.2383  2.9066 -0.3371
14465TIP3    H264811   1.992   5.662  14.735  0.1742 -0.1498  0.5428
14466TIP3   OH264812   6.123   4.370   0.916 -0.1005 -0.1695 -0.4704
14466TIP3    H164813   6.098   4.462   0.911 -1.3958 -0.4150  0.9795
14466TIP3    H264814   6.094   4.333   0.833 -0.0659  0.6059 -0.8382
14467TIP3   OH264815   2.438   1.210  14.024 -1.0489 -0.2298 -0.0682
14467TIP3    H164816   2.359   1.222  13.973  1.6258  3.0388 -3.7552
14467TIP3    H264817   2.478   1.131  13.989  0.1970  1.3700 -2.3643
14468TIP3   OH264818   4.470   6.265  10.840 -0.3207  0.6710  0.0095
14468TIP3    H164819   4.545   6.287  10.895  0.5889 -1.1712 -0.4654
14468TIP3    H264820   4.467   6.336  10.775  1.0138  0.7663  0.0372
14469TIP3   OH264821   2.255   0.700   1.355  0.5743  0.7054  0.6454
14469TIP3    H164822   2.209   0.616   1.361 -1.5044  1.8374  1.0666
14469TIP3    H264823   2.343   0.681   1.386  0.0074 -1.2328  1.1581
14470TIP3   OH264824   5.698   6.554   2.744  0.4028  0.0167  0.1005
14470TIP3    H164825   5.756   6.567   2.819  0.0472 -2.5587  0.8883
14470TIP3    H264826   5.728   6.471   2.705 -0.2110  0.6807 -1.8692
14471TIP3   OH264827   3.956   1.913   6.289 -0.1952 -0.4009  0.3917
14471TIP3    H164828   3.982   1.827   6.256  1.9762 -0.1643  1.4421
14471TIP3    H264829   3.972   1.909   6.383 -1.0175  0.8235  0.5983
14472TIP3   OH264830   4.429   0.723   1.181 -0.4772 -0.0313 -0.6923
14472TIP3    H164831   4.424   0.727   1.085 -1.7226 -2.5312 -0.7565
14472TIP3    H264832   4.488   0.795   1.204 -0.2000  0.6526 -3.3203
14473TIP3   OH264833   1.910   4.518  13.877  0.1905 -0.1891  0.5072
14473TIP3    H164834   1.836   4.579  13.884  0.9216  0.7659  0.0451
14473TIP3    H264835   1.890   4.466  13.799  0.2932  0.4698  0.0330
14474TIP3   OH264836   2.534   1.446   4.493 -0.1130  0.1976  0.2092
14474TIP3    H164837   2.600   1.515   4.492 -0.9330  1.0175  1.6174
14474TIP3    H264838   2.538   1.410   4.582 -0.1042 -1.1678 -0.3346
14475TIP3   OH264839   2.737   0.054   4.396 -0.1425  0.0361  0.1728
14475TIP3    H164840   2.825   0.016   4.403 -0.1777 -0.2145 -0.6698
14475TIP3    H264841   2.681  -0.020   4.374  0.0383  0.7919 -3.1469
14476TIP3   OH264842   2.016   4.110   1.844 -0.0198  0.3839  0.3462
14476TIP3    H164843   2.008   4.101   1.939  1.7422 -2.3187  0.3006
14476TIP3    H264844   2.092   4.167   1.832  1.0991 -1.0381  0.5697
14477TIP3   OH264845   6.267   6.757   5.338 -0.3944 -0.6298 -0.0543
14477TIP3    H164846   6.309   6.700   5.273 -1.4001 -1.3826 -0.0632
14477TIP3    H264847   6.272   6.707   5.420  1.8823  0.7957  0.7082
14478TIP3   OH264848   1.384   0.956   0.920  0.8413 -0.0915  0.5697
14478TIP3    H164849   1.433   0.884   0.883  1.8342  0.1676  1.3496
14478TIP3    H264850   1.345   0.920   1.000  0.6147 -0.0080  0.4974
14479TIP3   OH264851   1.250   3.634   4.997 -1.5858 -0.5570 -0.1084
14479TIP3    H164852   1.207   3.619   5.081 -1.1367 -0.5630  0.1249
14479TIP3    H264853   1.339   3.660   5.021 -2.2332  2.2061 -0.4810
14480TIP3   OH264854   2.004   6.693  16.585  0.1109  0.1965  0.4552
14480TIP3    H164855   1.968   6.711  16.498  0.4877 -1.3541 -0.0418
14480TIP3    H264856   1.980   6.602  16.602 -0.4786  0.6615  2.2403
14481TIP3   OH264857   1.115   1.766   5.188  0.1060 -0.1192  0.3011
14481TIP3    H164858   1.193   1.749   5.241 -0.2829  2.5738  1.8260
14481TIP3    H264859   1.147   1.817   5.114  0.1489 -1.1122 -0.3718
14482TIP3   OH264860   3.471   6.409  10.396 -0.3471 -0.8591 -0.4094
14482TIP3    H164861   3.414   6.355  10.343  0.0394  0.0922 -1.8244
14482TIP3    H264862   3.438   6.498  10.384 -0.0851 -0.6014  0.7236
14483TIP3   OH264863   1.957   0.100  13.325 -0.3266  0.1315 -0.1166
14483TIP3    H164864   2.040   0.107  13.279  1.1581  0.7853  2.5680
14483TIP3    H264865   1.915   0.185  13.310 -0.1533  0.1086 -0.7645
14484TIP3   OH264866   2.615   6.597  11.117  0.4471  0.9389  0.3042
14484TIP3    H164867   2.596   6.686  11.146 -0.7703 -0.0764  2.8303
14484TIP3    H264868   2.564   6.542  11.176  3.1767 -1.5397  0.4491
14485TIP3   OH264869   3.778   6.018   5.225 -0.2158 -0.1204 -0.1273
14485TIP3    H164870   3.745   6.106   5.208 -0.8767 -0.5328 -1.0332
14485TIP3    H264871   3.737   5.993   5.308 -2.7149 -0.8706 -1.5450
14486TIP3   OH264872   6.172   4.753  11.249  0.1086 -0.2784 -0.9569
14486TIP3    H164873   6.130   4.831  11.211 -0.0715  0.2698  0.3294
14486TIP3    H264874   6.226   4.788  11.320 -0.2180 -1.3624 -0.1757
14487TIP3   OH264875   5.098   5.827   4.613 -0.5345 -0.1060  0.3158
14487TIP3    H164876   5.027   5.872   4.568  1.6598  3.0536 -0.1963
14487TIP3    H264877   5.145   5.780   4.543 -0.2057  0.5041  0.1231
14488TIP3   OH264878   2.949   2.072  10.663 -0.3317 -0.0754  0.4027
14488TIP3    H164879   3.026   2.125  10.643 -1.4265  1.0401 -0.9581
14488TIP3    H264880   2.941   2.077  10.758  2.2738 -1.6498  0.7596
14489TIP3   OH264881   4.078   2.823   5.933 -0.7127 -0.2572  0.0510
14489TIP3    H164882   4.159   2.850   5.891 -1.4452  2.5792  0.3327
14489TIP3    H264883   4.097   2.737   5.970  1.5067 -0.5325 -1.6465
14490TIP3   OH264884   3.898   4.723  16.886  0.4960 -0.0436  0.1422
14490TIP3    H164885   3.985   4.693  16.913  0.7756 -0.3865 -1.0704
14490TIP3    H264886   3.840   4.650  16.906  0.2501  0.6753  2.1526
14491TIP3   OH264887   4.204   2.288  16.647 -0.7995  0.2381 -0.2164
14491TIP3    H164888   4.244   2.296  16.560  1.8226  0.0380  0.9371
14491TIP3    H264889   4.201   2.194  16.663 -3.2687  0.1511 -0.9396
14492TIP3   OH264890   4.373   6.684   5.408  0.4258 -0.7338 -0.3727
14492TIP3    H164891   4.434   6.753   5.431  1.4371 -1.7484  0.0336
14492TIP3    H264892   4.401   6.608   5.460 -2.5481 -0.5943  1.5768
14493TIP3   OH264893   4.062   3.522   4.753 -0.1469  0.2338 -0.1875
14493TIP3    H164894   3.966   3.527   4.758 -0.3630 -1.5650 -1.7970
14493TIP3    H264895   4.088   3.602   4.707 -0.9985  0.0279 -1.0344
14494TIP3   OH264896   6.551   2.630   5.602  0.2844  0.3483  0.5022
14494TIP3    H164897   6.523   2.715   5.567 -0.2953  0.6424  1.6328
14494TIP3    H264898   6.591   2.585   5.528  0.0993  1.3952 -0.2458
14495TIP3   OH264899   0.984   6.182   0.003  0.3438 -0.4682 -0.4051
14495TIP3    H164900   0.923   6.160  -0.067  0.8203 -1.2420 -0.5824
14495TIP3    H264901   1.070   6.179  -0.038  0.5648 -0.1282  0.0211
14496TIP3   OH264902   0.732   4.800  10.712  0.1629  0.3367 -0.2524
14496TIP3    H164903   0.686   4.732  10.763  0.6014  0.4741  0.3310
14496TIP3    H264904   0.803   4.753  10.669  0.4270  0.4131  0.0994
14497TIP3   OH264905   0.065   3.570   5.199 -0.0257 -0.4272  0.4136
14497TIP3    H164906  -0.019   3.532   5.227 -0.2257 -1.1965 -1.1833
14497TIP3    H264907   0.064   3.563   5.104  1.3209  0.7189  0.3024
14498TIP3   OH264908   3.142   4.337   2.110 -0.7645  0.1021 -0.2483
14498TIP3    H164909   3.140   4.281   2.033 -1.5619 -0.4128  0.1418
14498TIP3    H264910   3.102   4.419   2.082 -2.6734 -0.6865  0.0728
14499TIP3   OH264911   1.692   3.046  16.330 -0.4832 -0.5030 -0.1255
14499TIP3    H164912   1.780   3.073  16.304 -0.5348 -0.5422 -0.3382
14499TIP3    H264913   1.637   3.121  16.308 -0.9790 -1.5571 -2.7260
14500TIP3   OH264914   4.471   3.393   5.504 -0.1856  0.3545  0.8883
14500TIP3    H164915   4.411   3.337   5.455  0.3211 -0.0389  0.7049
14500TIP3    H264916   4.557   3.353   5.491 -0.0151  0.3419  1.9564
14501TIP3   OH264917   0.583   2.171  16.996 -0.4647 -0.8588  0.2690
14501TIP3    H164918   0.536   2.143  17.074  0.8375 -1.7890  0.7349
14501TIP3    H264919   0.589   2.266  17.005 -0.2246 -0.9705  1.3546
14502TIP3   OH264920   2.866   3.431  13.885  0.2052  0.0456  0.1151
14502TIP3    H164921   2.962   3.435  13.885  0.1443  1.5073  0.1894
14502TIP3    H264922   2.839   3.501  13.827 -0.8282 -0.3908  0.0656
14503TIP3   OH264923   6.492   6.368  13.697 -0.1415 -0.0632 -0.2600
14503TIP3    H164924   6.489   6.309  13.622 -0.4257 -0.4081  0.0162
14503TIP3    H264925   6.581   6.402  13.698  0.6116 -1.9628  0.7028
14504TIP3   OH264926   1.597   0.851   1.168 -0.2839 -0.8857  0.7967
14504TIP3    H164927   1.637   0.938   1.157  0.7621 -1.2407  1.7957
14504TIP3    H264928   1.596   0.814   1.080 -2.1580  0.7455  0.0905
14505TIP3   OH264929   3.862   2.215  12.649 -0.2095  0.5885 -0.1627
14505TIP3    H164930   3.818   2.194  12.567 -0.3114  0.4038 -0.0614
14505TIP3    H264931   3.888   2.307  12.640 -0.3975  0.6263 -0.3201
14506TIP3   OH264932   0.092   0.821   3.378  0.3622  0.0513 -0.0347
14506TIP3    H164933   0.153   0.798   3.308 -0.0572 -0.8674 -0.1021
14506TIP3    H264934   0.148   0.839   3.453  0.7814  0.3960 -0.4262
14507TIP3   OH264935   2.121   5.570  11.883 -0.4832 -0.4039  0.4377
14507TIP3    H164936   2.122   5.600  11.793  1.4982 -2.8075 -0.3874
14507TIP3    H264937   2.209   5.588  11.916 -1.4027  1.1524  2.1614
14508TIP3   OH264938   4.715   3.234   2.157 -0.3094  0.3030 -0.0925
14508TIP3    H164939   4.767   3.282   2.222  0.8831  0.5560 -1.2289
14508TIP3    H264940   4.779   3.194   2.099 -1.3862  0.4755 -1.4144
14509TIP3   OH264941   1.405   2.989  16.454  0.5141  0.4186 -0.0519
14509TIP3    H164942   1.442   2.959  16.537  2.8563  1.2923 -0.7450
14509TIP3    H264943   1.475   2.976  16.390 -0.5143  1.7502 -1.4862
14510TIP3   OH264944   4.704   4.749   0.394  0.5427 -0.8908  0.5767
14510TIP3    H164945   4.620   4.789   0.374  0.3826 -2.1033 -1.2521
14510TIP3    H264946   4.681   4.668   0.439  0.7157 -1.4458 -0.3326
14511TIP3   OH264947   5.988   0.374   6.105  0.0280  0.7178 -0.2854
14511TIP3    H164948   6.022   0.289   6.077  1.6737  0.5394  2.1416
14511TIP3    H264949   5.905   0.354   6.147 -0.7070  0.5965 -1.7541
14512TIP3   OH264950   2.651   1.869   0.025 -0.2261  0.8036 -0.0708
14512TIP3    H164951   2.557   1.851   0.027 -0.1904  0.5526 -0.5192
14512TIP3    H264952   2.669   1.916   0.107 -0.6739  0.5246  0.1855
14513TIP3   OH264953   1.712   4.977   5.459 -0.1847  0.2085 -0.1729
14513TIP3    H164954   1.723   4.998   5.366 -1.4584 -2.5412 -1.0263
14513TIP3    H264955   1.767   4.899   5.472 -1.3987 -0.4846  0.9192
14514TIP3   OH264956   5.444   3.305   0.254  0.0180 -1.0221 -0.1840
14514TIP3    H164957   5.448   3.373   0.187  2.3395 -0.6036  0.3451
14514TIP3    H264958   5.402   3.347   0.329 -0.2781 -0.7479 -0.5013
14515TIP3   OH264959   4.649   2.132   4.634  0.6016 -0.1090  0.4415
14515TIP3    H164960   4.606   2.216   4.620  1.1521 -0.3520 -3.3362
14515TIP3    H264961   4.735   2.141   4.593 -0.1181 -3.1175 -1.9399
14516TIP3   OH264962   1.064   6.351  15.904 -0.0630 -0.0913 -0.4719
14516TIP3    H164963   1.034   6.377  15.991  1.8156  0.0727  0.1438
14516TIP3    H264964   1.005   6.280  15.879 -1.1839  0.4622  0.5486
14517TIP3   OH264965   5.200   2.344   5.253  0.5483  0.3779 -0.2956
14517TIP3    H164966   5.208   2.260   5.207  1.6933 -0.4196  1.2958
14517TIP3    H264967   5.226   2.410   5.189 -0.3222 -0.4898 -1.5521
14518TIP3   OH264968   5.656   5.923  15.815  0.1126 -0.3129 -0.0308
14518TIP3    H164969   5.700   5.960  15.891  0.1410  0.2841 -0.3345
14518TIP3    H264970   5.698   5.966  15.740  0.6867 -1.5199 -0.4250
14519TIP3   OH264971   4.127   1.471   0.168 -0.0248 -0.4613 -0.2347
14519TIP3    H164972   4.183   1.428   0.104 -0.4969 -1.0469 -0.2641
14519TIP3    H264973   4.150   1.430   0.252  0.9252  0.6372  0.0409
14520TIP3   OH264974   6.360   5.833   4.847  0.4953  0.0048  0.0321
14520TIP3    H164975   6.389   5.745   4.824 -0.4289 -0.8270  1.9660
14520TIP3    H264976   6.265   5.829   4.844  0.4599  1.2814 -1.0687
14521TIP3   OH264977   4.107   2.465   6.772  0.0485  0.1380 -0.2746
14521TIP3    H164978   4.133   2.391   6.718 -2.9105 -1.8387  0.8399
14521TIP3    H264979   4.068   2.527   6.711 -1.0009 -0.9793 -0.7718
14522TIP3   OH264980   4.551   4.327   0.551 -0.0582  0.2387  0.2074
14522TIP3    H164981   4.530   4.235   0.561 -0.5281  0.1328 -1.4975
14522TIP3    H264982   4.644   4.333   0.575  0.3831 -0.9662 -1.1154
14523TIP3   OH264983   5.946   3.307  13.229 -0.3364  0.0682 -0.1639
14523TIP3    H164984   6.032   3.282  13.262  0.5111  1.4699 -1.2381
14523TIP3    H264985   5.935   3.255  13.150  0.2584  1.0737 -0.9258
14524TIP3   OH264986   4.476   3.547   1.051 -0.3455  0.7057  0.0332
14524TIP3    H164987   4.447   3.456   1.050 -0.2081  0.6678 -0.3931
14524TIP3    H264988   4.396   3.599   1.054 -0.4101  0.5496  1.6304
14525TIP3   OH264989   2.848   4.594   0.777 -0.4762 -0.2937  0.4065
14525TIP3    H164990   2.883   4.657   0.840 -1.0536  0.2451  0.2030
14525TIP3    H264991   2.915   4.526   0.770 -0.0874  0.0220  1.0433
14526TIP3   OH264992   2.127   2.899   4.106  0.1343  0.7421 -0.3602
14526TIP3    H164993   2.033   2.886   4.120  0.2407 -1.8977 -1.7653
14526TIP3    H264994   2.133   2.981   4.058 -1.4153  1.1814  0.1519
14527TIP3   OH264995   1.357   3.015   3.536  0.5995  0.9400  0.3876
14527TIP3    H164996   1.411   2.985   3.463  0.2794 -0.7447  0.8393
14527TIP3    H264997   1.269   2.983   3.515  0.8066 -0.9482  2.2858
14528TIP3   OH264998   1.300   4.781  13.126  0.3528  0.0113 -0.1106
14528TIP3    H164999   1.329   4.728  13.052  1.4585  0.9988 -0.4019
14528TIP3    H265000   1.371   4.773  13.190 -0.6014 -0.8406  0.8343
14529TIP3   OH265001   3.417   0.308  13.427  0.3538  0.4209 -0.2165
14529TIP3    H165002   3.377   0.222  13.439 -0.9973  1.2224  1.1708
14529TIP3    H265003   3.436   0.340  13.515  1.0027  1.4761 -0.7167
14530TIP3   OH265004   0.805   3.395   3.172 -0.5713 -0.3319  0.1351
14530TIP3    H165005   0.751   3.411   3.094 -1.9516  1.0736  1.3737
14530TIP3    H265006   0.895   3.392   3.138 -1.2976 -1.7168 -1.8002
14531TIP3   OH265007   4.102   4.998  12.334 -0.0669  0.6911  0.0327
14531TIP3    H165008   4.174   4.938  12.317 -0.8104  0.1820 -1.4323
14531TIP3    H265009   4.144   5.084  12.343  0.6496  0.5647 -1.8072
14532TIP3   OH265010   3.691   4.986  11.967 -0.3383  0.6261 -0.7157
14532TIP3    H165011   3.612   4.998  12.021 -0.7733  1.6841 -1.5601
14532TIP3    H265012   3.763   4.981  12.031 -1.0114  0.3828  0.0278
14533TIP3   OH265013   2.511   4.760  14.476  0.2278 -0.1213  0.3444
14533TIP3    H165014   2.430   4.752  14.425  0.5992  0.1195 -0.2890
14533TIP3    H265015   2.569   4.813  14.420  0.6386  0.1363  1.0113
14534TIP3   OH265016   1.736   4.721  13.822 -0.0638 -0.1582 -0.0655
14534TIP3    H165017   1.662   4.725  13.882 -0.1113  2.4208 -0.2518
14534TIP3    H265018   1.794   4.792  13.850  1.8463 -1.4657 -0.5840
14535TIP3   OH265019   0.354   1.281   5.461 -0.2112 -0.3391 -0.3317
14535TIP3    H165020   0.293   1.208   5.478 -0.3163 -0.4496 -1.1829
14535TIP3    H265021   0.358   1.287   5.366  0.6248  0.0874 -0.2701
14536TIP3   OH265022   4.286   2.284   3.619 -0.0092 -0.1663 -0.3396
14536TIP3    H165023   4.244   2.369   3.603  1.2223  0.7056  0.9119
14536TIP3    H265024   4.221   2.219   3.594 -2.7642  1.1324  3.0846
14537TIP3   OH265025   0.844   4.766  12.184 -0.1441 -0.6674 -0.0925
14537TIP3    H165026   0.928   4.799  12.153  0.2307 -1.9493 -0.4887
14537TIP3    H265027   0.781   4.797  12.119 -0.1287  1.0235  0.6599
14538TIP3   OH265028   5.448   6.237   5.843  0.3402 -0.4960  0.2286
14538TIP3    H165029   5.496   6.320   5.845  0.3223 -0.4947  0.5262
14538TIP3    H265030   5.430   6.217   5.935 -0.6369 -0.2634  0.0921
14539TIP3   OH265031   2.089   4.380   3.877 -0.1410 -0.0916  0.3603
14539TIP3    H165032   2.046   4.346   3.799  0.8243  0.5500 -0.4654
14539TIP3    H265033   2.059   4.471   3.884  0.3552  0.0786  0.3022
14540TIP3   OH265034   3.881   1.670  12.054  0.0326 -0.4135 -0.1467
14540TIP3    H165035   3.817   1.611  12.015 -2.5713  0.7688  2.1468
14540TIP3    H265036   3.931   1.615  12.115 -0.2291 -0.8926 -0.3665
14541TIP3   OH265037   5.173   0.363  16.948 -0.7272 -0.4975 -0.0379
14541TIP3    H165038   5.235   0.351  16.876 -1.6697  0.7975 -1.1231
14541TIP3    H265039   5.171   0.279  16.993  0.0021 -1.2924 -1.4532
14542TIP3   OH265040   2.912   2.857   2.572  0.3468 -0.0397 -0.3249
14542TIP3    H165041   2.835   2.829   2.622 -1.2854  1.3128 -2.0188
14542TIP3    H265042   2.933   2.944   2.607  1.0187 -0.3427  0.0308
14543TIP3   OH265043   6.036   0.091   4.196 -0.6511  0.4522  0.0667
14543TIP3    H165044   5.994   0.027   4.254 -0.7725  0.7499  0.3049
14543TIP3    H265045   5.974   0.101   4.124 -0.5048  0.0896 -0.1135
14544TIP3   OH265046   1.388   1.908   2.730  0.1521  0.0844 -0.1040
14544TIP3    H165047   1.383   1.970   2.802 -1.6884  0.5109 -0.5863
14544TIP3    H265048   1.482   1.896   2.715  0.5387  0.6146  1.8123
14545TIP3   OH265049   3.599   6.527  13.662  0.7003  0.2811 -0.0607
14545TIP3    H165050   3.648   6.447  13.682 -0.5476 -0.3409  0.5940
14545TIP3    H265051   3.526   6.497  13.607  0.9925  1.1781 -0.9463
14546TIP3   OH265052   4.033   1.175  13.874  0.0647 -0.5156  0.3180
14546TIP3    H165053   4.052   1.085  13.851 -0.0197 -0.6177  0.6472
14546TIP3    H265054   3.938   1.177  13.887 -0.2419  0.0994 -1.7982
14547TIP3   OH265055   2.963   6.264   4.491 -0.6170 -0.8990 -0.4330
14547TIP3    H165056   3.006   6.315   4.559 -1.1088 -1.1381  0.0582
14547TIP3    H265057   3.035   6.237   4.433 -0.1923 -0.7255  0.0032
14548TIP3   OH265058   1.454   0.967  11.948  0.6406 -0.4176 -0.3222
14548TIP3    H165059   1.543   0.986  11.979  0.3267  1.3120 -0.4458
14548TIP3    H265060   1.409   0.934  12.026  0.1503  2.9436  0.8944
14549TIP3   OH265061   6.562   1.074  12.919 -0.5216  0.1783 -0.0990
14549TIP3    H165062   6.603   1.140  12.862  1.1073 -0.1104  0.7164
14549TIP3    H265063   6.472   1.105  12.930 -0.1565  1.5496 -0.8307
14550TIP3   OH265064   5.421   3.987   5.397  0.2466 -0.2121  0.9797
14550TIP3    H165065   5.391   3.994   5.488 -0.7004 -3.3252  0.9651
14550TIP3    H265066   5.346   4.014   5.345  1.0513  2.3751  1.0694
14551TIP3   OH265067   0.537   5.324   0.943 -0.1223 -0.1668  0.1798
14551TIP3    H165068   0.495   5.239   0.937  0.0076 -0.2616  0.6119
14551TIP3    H265069   0.625   5.306   0.978 -0.0752  0.1338  0.2267
14552TIP3   OH265070   6.275   2.561   5.041  0.2442 -0.0897  0.6570
14552TIP3    H165071   6.255   2.653   5.024  0.1686 -0.3873 -0.9442
14552TIP3    H265072   6.253   2.516   4.960 -0.4337 -1.6504  1.6633
14553TIP3   OH265073   5.879   5.794  15.455  0.2115 -0.3482 -0.2316
14553TIP3    H165074   5.862   5.702  15.474  0.0541 -0.1846  0.4206
14553TIP3    H265075   5.858   5.803  15.362 -1.5176 -0.5618  0.1268
14554TIP3   OH265076   1.914   6.614   4.894  0.0968  0.0432  0.2839
14554TIP3    H165077   1.861   6.536   4.908  0.8940 -0.4907  0.3309
14554TIP3    H265078   1.914   6.628   4.800 -0.0000 -0.0330  0.2724
14555TIP3   OH265079   6.704   2.018   5.070  0.3949  0.3757  0.2369
14555TIP3    H165080   6.668   1.930   5.052  1.1984  0.0281  0.3173
14555TIP3    H265081   6.628   2.076   5.063  0.2317 -0.0372 -1.9609
14556TIP3   OH265082   1.522   3.537   4.321  0.2244  0.1879  0.0892
14556TIP3    H165083   1.581   3.574   4.255  1.4615 -0.1524  0.9927
14556TIP3    H265084   1.440   3.586   4.310  0.1184 -0.4757 -2.2941
14557TIP3   OH265085   0.481   5.929  11.524  0.1209 -0.3282  0.1551
14557TIP3    H165086   0.409   5.989  11.507 -1.9979 -2.2450  2.0936
14557TIP3    H265087   0.548   5.954  11.460 -0.6281  4.0782  0.9329
14558TIP3   OH265088   2.171   0.091  12.102 -0.5633  0.2184 -0.4651
14558TIP3    H165089   2.234   0.047  12.160 -1.2570 -2.0320 -1.3536
14558TIP3    H265090   2.224   0.152  12.051  0.4484  0.3999  0.7702
14559TIP3   OH265091   1.702   6.734  11.889 -0.8164  0.3046  0.1966
14559TIP3    H165092   1.664   6.677  11.956 -0.0234  0.1563  0.5222
14559TIP3    H265093   1.772   6.781  11.934 -1.4235  1.4993 -0.0861
14560TIP3   OH265094   5.404   2.653  14.650  0.2227 -0.1932  0.0173
14560TIP3    H165095   5.395   2.732  14.704  0.6921 -1.0418  1.3438
14560TIP3    H265096   5.349   2.671  14.573 -0.2606  1.1253  0.6475
14561TIP3   OH265097   4.440   3.591  10.983  0.0101  0.2566  0.3408
14561TIP3    H165098   4.406   3.646  10.913 -3.0238 -0.2164  1.3956
14561TIP3    H265099   4.452   3.505  10.942  0.4762  0.5585 -0.1646
14562TIP3   OH265100   0.803   0.912   4.077  0.0914 -0.2398 -0.1015
14562TIP3    H165101   0.716   0.897   4.041  0.8845 -0.1004 -2.1093
14562TIP3    H265102   0.863   0.901   4.003  1.5594  2.4247  0.6110
14563TIP3   OH265103   0.204   6.349  10.563  0.1397 -0.1797 -0.2349
14563TIP3    H165104   0.203   6.276  10.625  0.7504 -0.3250 -0.3941
14563TIP3    H265105   0.291   6.346  10.523  1.1725  2.2665  1.6989
14564TIP3   OH265106   6.033   1.842   4.861 -0.7091  0.1783  0.2947
14564TIP3    H165107   5.963   1.907   4.872  0.3663  1.1797  1.4576
14564TIP3    H265108   6.080   1.870   4.782  0.9169  1.9884  1.8354
14565TIP3   OH265109   1.123   6.685   3.301  0.2505  0.2906  0.3226
14565TIP3    H165110   1.183   6.730   3.241  2.0092 -1.5604  0.6134
14565TIP3    H265111   1.130   6.593   3.277 -3.2743  0.1146 -0.2468
14566TIP3   OH265112   4.912   2.536   3.798  0.1047  0.2748  0.3299
14566TIP3    H165113   4.898   2.529   3.893 -0.1741 -0.8302  0.2155
14566TIP3    H265114   4.862   2.613   3.772  1.4552  1.5084  1.3227
14567TIP3   OH265115   5.822   6.487   1.406 -0.6562 -0.4285  0.0266
14567TIP3    H165116   5.839   6.431   1.330 -2.3400 -1.0972  0.1306
14567TIP3    H265117   5.797   6.571   1.370 -0.7417 -0.5316 -0.1504
14568TIP3   OH265118   0.325   2.339  16.799  0.5292  0.0787  0.0418
14568TIP3    H165119   0.255   2.403  16.785  0.1158 -0.3005  0.3952
14568TIP3    H265120   0.349   2.350  16.892 -0.4643 -1.2225  0.4558
14569TIP3   OH265121   1.035   1.743  16.869  0.4753 -0.2079  0.6028
14569TIP3    H165122   0.953   1.774  16.831  1.8836  2.0463 -0.7471
14569TIP3    H265123   1.018   1.738  16.963 -1.5789 -1.0428  0.2134
14570TIP3   OH265124   0.483   4.542  12.533 -0.5009  0.0694 -0.4745
14570TIP3    H165125   0.407   4.586  12.495 -0.6961  1.1944  1.1824
14570TIP3    H265126   0.554   4.558  12.470 -1.0955  0.8804 -0.9407
14571TIP3   OH265127   4.673   0.839  13.246  0.0130 -0.1646  0.0141
14571TIP3    H165128   4.631   0.843  13.331  2.1442  0.2136  1.0751
14571TIP3    H265129   4.756   0.795  13.262  1.6802  2.3808 -1.3363
14572TIP3   OH265130   0.943   3.182  11.117  0.0680  0.3741 -0.7348
14572TIP3    H165131   1.003   3.249  11.151 -1.0505  1.7043 -1.3318
14572TIP3    H265132   0.931   3.205  11.025 -0.4173 -0.5955 -0.9226
14573TIP3   OH265133   0.108   1.256  14.005  0.4745  0.1728  0.5108
14573TIP3    H165134   0.042   1.243  14.074  1.0678  0.7994  1.2011
14573TIP3    H265135   0.174   1.190  14.023  1.0216  0.8499  1.0288
14574TIP3   OH265136   3.251   0.143  12.554 -0.9459 -0.6449 -0.3416
14574TIP3    H165137   3.188   0.089  12.602 -0.8571 -0.6018 -0.1769
14574TIP3    H265138   3.257   0.224  12.605 -0.0135 -1.0378  0.1787
14575TIP3   OH265139   3.418   2.828  11.984 -0.2402  0.3906 -0.4002
14575TIP3    H165140   3.444   2.758  11.924 -1.7947 -0.3607 -0.2061
14575TIP3    H265141   3.489   2.833  12.048 -1.3631 -2.8484  1.1995
14576TIP3   OH265142   0.391   4.671   6.489 -0.0126 -0.2741  0.2165
14576TIP3    H165143   0.410   4.579   6.468 -1.8574 -0.8320  0.9226
14576TIP3    H265144   0.303   4.686   6.453  0.8191  1.6418 -1.1170
14577TIP3   OH265145   6.046   5.886  12.357  0.0519  0.1102  0.4983
14577TIP3    H165146   6.058   5.808  12.303 -2.0447  0.2614 -0.2316
14577TIP3    H265147   5.959   5.876  12.394 -0.0139  1.8297  0.8472
14578TIP3   OH265148   5.669   5.479   5.369  0.4959  0.7541  0.2278
14578TIP3    H165149   5.662   5.499   5.462  1.0066 -0.1025  0.4530
14578TIP3    H265150   5.589   5.516   5.331 -0.0578  0.4827  1.1118
14579TIP3   OH265151   0.642   1.294   2.924  0.4400  0.5786  0.2072
14579TIP3    H165152   0.561   1.337   2.952 -0.1957 -0.5078  0.0509
14579TIP3    H265153   0.645   1.309   2.829 -0.6921 -1.1946 -0.1389
14580TIP3   OH265154   2.657   2.282   2.854  0.0088  0.4160  0.1078
14580TIP3    H165155   2.573   2.298   2.897 -0.3994  0.6051 -0.7440
14580TIP3    H265156   2.647   2.322   2.767  1.0722  0.6816  0.1039
14581TIP3   OH265157   5.250   1.118   2.109  0.1946 -0.0947  0.1286
14581TIP3    H165158   5.197   1.153   2.037 -0.3992  1.2773  1.2007
14581TIP3    H265159   5.191   1.115   2.184  0.9386 -1.0392  0.6895
14582TIP3   OH265160   1.193   5.774   2.284  0.2841  0.2320 -0.3514
14582TIP3    H165161   1.238   5.735   2.359  0.2725  0.2315 -0.3451
14582TIP3    H265162   1.110   5.727   2.279  1.4059 -1.7082 -2.0362
14583TIP3   OH265163   5.444   4.128  13.467 -0.0328 -0.7897  0.3608
14583TIP3    H165164   5.401   4.115  13.551  0.1771  0.6599  0.7080
14583TIP3    H265165   5.536   4.106  13.484  0.7371  2.9360  1.4883
14584TIP3   OH265166   5.747   5.403   0.119  0.7216 -0.1183 -0.4044
14584TIP3    H165167   5.729   5.366   0.033  1.4669  0.4955 -0.8242
14584TIP3    H265168   5.717   5.494   0.113  0.1159 -0.2694  0.2101
14585TIP3   OH265169   3.270   5.994  13.098  0.7275  0.5269  0.4601
14585TIP3    H165170   3.251   5.977  13.190  1.1408 -1.2923  0.2159
14585TIP3    H265171   3.343   6.056  13.099  1.7445 -0.6829  1.3414
14586TIP3   OH265172   4.046   3.478   5.528 -0.5939  0.3016 -0.1017
14586TIP3    H165173   3.999   3.399   5.554  0.4144  0.1701  1.3786
14586TIP3    H265174   4.036   3.482   5.433 -1.9506 -0.7628 -0.0158
14587TIP3   OH265175   5.150   1.186   5.783  0.1534 -0.3138 -0.1427
14587TIP3    H165176   5.199   1.129   5.724  0.9343  0.2971 -0.0914
14587TIP3    H265177   5.084   1.228   5.728  2.1348  1.7571 -1.0247
14588TIP3   OH265178   0.424   1.863   0.933 -0.2006 -0.0636  0.2996
14588TIP3    H165179   0.461   1.813   0.860 -0.2729  0.6243 -0.2229
14588TIP3    H265180   0.345   1.904   0.896  0.3293  1.1270  0.4590
14589TIP3   OH265181   2.187   0.380   6.574  0.0588  0.0339  0.4077
14589TIP3    H165182   2.115   0.341   6.624 -0.4341  0.8843  0.3770
14589TIP3    H265183   2.186   0.333   6.491 -0.7993  0.3770  0.2109
14590TIP3   OH265184   3.391   6.362   0.804  0.5511 -0.3294  0.3029
14590TIP3    H165185   3.353   6.429   0.747 -0.0423 -0.8140  0.1210
14590TIP3    H265186   3.433   6.411   0.875  0.1191  0.2337  0.1677
14591TIP3   OH265187   6.734   6.186   2.331  0.2822 -0.5488  0.0198
14591TIP3    H165188   6.826   6.209   2.347  0.0083  0.2516  0.4643
14591TIP3    H265189   6.705   6.143   2.411  0.4173 -1.2852 -0.3219
14592TIP3   OH265190   6.316   1.300  16.066 -0.5694 -0.0814  0.4112
14592TIP3    H165191   6.277   1.385  16.043 -0.8905  0.0024  1.2736
14592TIP3    H265192   6.243   1.249  16.100 -0.1668 -0.3553  0.8599
14593TIP3   OH265193   0.091   5.946   1.878  0.4480 -0.1805 -0.4755
14593TIP3    H165194   0.038   6.013   1.920  0.0088 -1.0081  0.3218
14593TIP3    H265195   0.178   5.954   1.918 -0.2965 -1.8034  1.5978
14594TIP3   OH265196   4.682   2.836  11.034 -0.5138  0.2952  0.2381
14594TIP3    H165197   4.705   2.786  10.955 -0.8492 -0.7369  0.7807
14594TIP3    H265198   4.593   2.809  11.054 -0.4313  0.5563  0.9696
14595TIP3   OH265199   4.705   5.634   0.582 -0.2370  0.5494 -0.0272
14595TIP3    H165200   4.642   5.564   0.565  0.2247  0.1544 -0.1247
14595TIP3    H265201   4.775   5.591   0.630  0.1553  0.9030 -0.2868
14596TIP3   OH265202   0.591   1.328  15.753  0.1708 -0.0412 -0.5276
14596TIP3    H165203   0.558   1.267  15.819 -0.8368  0.2861 -0.7263
14596TIP3    H265204   0.644   1.273  15.695  0.8675 -0.3705  0.4117
14597TIP3   OH265205   2.158   4.546   5.570  0.2215  0.5237 -0.7692
14597TIP3    H165206   2.168   4.619   5.632 -0.3559  0.4253 -0.5583
14597TIP3    H265207   2.246   4.511   5.559  0.2814  0.3894  0.1813
14598TIP3   OH265208   1.690   5.153   0.876 -0.2573  0.1223 -0.0734
14598TIP3    H165209   1.666   5.070   0.917  0.8181  0.3817  1.0964
14598TIP3    H265210   1.785   5.150   0.869 -0.2666  0.9811 -0.6289
14599TIP3   OH265211   6.293   1.405  14.933 -0.0681  0.5158 -0.8557
14599TIP3    H165212   6.266   1.491  14.967  2.5315  0.3678  1.8609
14599TIP3    H265213   6.382   1.420  14.902  0.8349 -1.4213  0.7169
14600TIP3   OH265214   4.878   4.685   5.507 -0.8673  0.2273  0.2947
14600TIP3    H165215   4.810   4.730   5.557 -0.0138  1.3992  0.4111
14600TIP3    H265216   4.830   4.629   5.445 -1.9365  1.6893 -0.2046
14601TIP3   OH265217   1.952   6.148  11.352 -0.1122 -0.1642  0.2270
14601TIP3    H165218   1.992   6.233  11.368  0.1109 -0.4505  1.2282
14601TIP3    H265219   2.024   6.095  11.316  0.3434 -0.5725  1.6900
14602TIP3   OH265220   4.986   5.111   0.415 -0.5179 -0.3597  0.4980
14602TIP3    H165221   4.973   5.054   0.490  0.3557 -0.5080  0.5420
14602TIP3    H265222   5.078   5.101   0.392 -0.9466 -0.9115 -1.0849
14603TIP3   OH265223   6.746   3.416   0.008  0.1526 -0.6124 -0.7161
14603TIP3    H165224   6.678   3.470  -0.033 -0.4398 -0.6991  0.1466
14603TIP3    H265225   6.820   3.422  -0.052 -0.5787 -0.4301 -1.6136
14604TIP3   OH265226   4.211   3.397   0.456  0.3719 -0.3442  0.0097
14604TIP3    H165227   4.153   3.367   0.386 -0.7083 -1.2720  1.2687
14604TIP3    H265228   4.210   3.326   0.520  2.8715 -0.3460  0.0957
14605TIP3   OH265229   3.810   2.976   5.832 -0.2646 -0.2127  0.3506
14605TIP3    H165230   3.844   2.938   5.751  0.3499  0.2511  0.3954
14605TIP3    H265231   3.831   2.911   5.899 -0.3664 -0.3877  0.2141
14606TIP3   OH265232   3.272   3.116  15.035  0.4411 -0.0787  0.0091
14606TIP3    H165233   3.296   3.206  15.011 -0.1024 -0.0282 -0.3526
14606TIP3    H265234   3.253   3.073  14.951 -0.7241 -0.1141  0.2742
14607TIP3   OH265235   5.851   4.571  13.528  0.5828  0.3186 -0.2778
14607TIP3    H165236   5.867   4.664  13.546  1.0042  0.3010 -0.5630
14607TIP3    H265237   5.937   4.537  13.501  0.5457 -0.2648  0.3211
14608TIP3   OH265238   0.623   3.298  11.855  0.0336 -0.3719  0.2543
14608TIP3    H165239   0.642   3.392  11.860  0.4395 -0.2487 -2.5464
14608TIP3    H265240   0.698   3.262  11.807 -1.8115 -1.5390 -1.8086
14609TIP3   OH265241   2.415   5.913  11.341  0.0387 -0.6025 -0.2430
14609TIP3    H165242   2.331   5.909  11.295 -0.7581  0.4095  1.0829
14609TIP3    H265243   2.429   6.007  11.357  1.6085 -0.7230 -0.7724
14610TIP3   OH265244   3.692   6.734  14.876  0.0477  0.1751  0.1551
14610TIP3    H165245   3.781   6.728  14.841  0.6919 -0.0671  1.8270
14610TIP3    H265246   3.700   6.784  14.957 -1.3538  0.2034  0.2978
14611TIP3   OH265247   4.353   4.456  12.863 -0.1415  0.2369  0.6958
14611TIP3    H165248   4.421   4.467  12.797 -0.3847  0.1230  0.4280
14611TIP3    H265249   4.399   4.423  12.940  0.0622 -0.0948  0.4286
14612TIP3   OH265250   0.537   1.815  14.009 -0.2565 -0.0469 -0.2221
14612TIP3    H165251   0.477   1.848  14.076 -1.9926 -0.7115 -1.3959
14612TIP3    H265252   0.530   1.878  13.937  0.5250 -0.0923 -0.3419
14613TIP3   OH265253   2.561   6.701  16.523 -0.0243 -0.2678 -0.3158
14613TIP3    H165254   2.500   6.770  16.549 -0.1622  0.3934 -2.3511
14613TIP3    H265255   2.525   6.621  16.562  0.0295  0.7435  1.8931
14614TIP3   OH265256   1.679   2.330   4.026  0.1804  0.7808  0.2374
14614TIP3    H165257   1.760   2.350   3.979  0.0764  0.3812 -0.1259
14614TIP3    H265258   1.664   2.406   4.082  0.0905  1.4409 -0.6751
14615TIP3   OH265259   0.524   6.375  14.741 -0.3608 -0.0712  0.2183
14615TIP3    H165260   0.464   6.425  14.797  0.2649 -0.9105  1.6482
14615TIP3    H265261   0.609   6.385  14.783 -0.2075 -2.2575  0.4791
14616TIP3   OH265262   6.028   2.728  14.957  0.2361 -0.5433 -0.8449
14616TIP3    H165263   5.994   2.769  15.037  1.3355  0.8778 -1.0817
14616TIP3    H265264   5.953   2.725  14.898  0.1147  1.1272 -0.8045
14617TIP3   OH265265   5.271   3.095   3.878  0.5816 -0.7763  0.4613
14617TIP3    H165266   5.241   3.005   3.886  2.3827 -1.3439  1.2558
14617TIP3    H265267   5.355   3.096   3.924  1.5586  0.8163 -1.2935
14618TIP3   OH265268   1.996   1.820  12.667 -0.1629 -0.2913 -0.5243
14618TIP3    H165269   1.992   1.883  12.738 -1.7162 -2.3037  1.2567
14618TIP3    H265270   2.022   1.871  12.590 -1.1351  2.4264  0.9045
14619TIP3   OH265271   1.193   0.001  13.688  0.5182 -1.1104 -0.1101
14619TIP3    H165272   1.129   0.072  13.693 -0.0302 -1.6399  0.5050
14619TIP3    H265273   1.211  -0.009  13.594 -2.9658 -3.2900 -0.6749
14620TIP3   OH265274   1.254   6.519   2.286  0.0094  0.0177 -0.1905
14620TIP3    H165275   1.288   6.549   2.202  0.0063  1.2912  0.2436
14620TIP3    H265276   1.331   6.503   2.339 -0.0045 -0.0460 -0.1901
14621TIP3   OH265277   0.538   3.772   1.352  0.1704 -0.4849  0.0081
14621TIP3    H165278   0.563   3.733   1.436  1.6953  0.4663  0.0129
14621TIP3    H265279   0.586   3.854   1.349  1.1275 -1.0960 -2.3676
14622TIP3   OH265280   2.873   0.743  13.293  0.4613 -0.4106 -0.0934
14622TIP3    H165281   2.873   0.658  13.338 -0.3772  0.1251  0.9697
14622TIP3    H265282   2.929   0.730  13.217  0.1796 -1.9815 -0.0625
14623TIP3   OH265283   5.557   4.279   1.798 -0.4336  0.1933  0.1034
14623TIP3    H165284   5.483   4.337   1.782  0.7776  1.6182 -0.4524
14623TIP3    H265285   5.595   4.310   1.880 -0.5207 -0.6021  0.4478
14624TIP3   OH265286   2.688   1.891  14.381  0.1576  0.0467 -0.1914
14624TIP3    H165287   2.597   1.878  14.352 -0.0608 -0.2640  0.6084
14624TIP3    H265288   2.705   1.984  14.364 -0.6848  0.3682  0.6609
14625TIP3   OH265289   0.257   0.296   0.679  0.1683 -0.2031 -0.1643
14625TIP3    H165290   0.343   0.336   0.694 -0.5704  1.5074 -0.4069
14625TIP3    H265291   0.223   0.280   0.767  1.1630 -1.8792 -0.0578
14626TIP3   OH265292   0.552   5.612  12.557 -0.1254 -0.4944  1.0979
14626TIP3    H165293   0.616   5.682  12.545  0.5347 -1.2202  0.3611
14626TIP3    H265294   0.477   5.640  12.504  1.0503 -1.4887 -1.1438
14627TIP3   OH265295   1.585   4.518  13.983  0.3744 -0.2708 -0.4224
14627TIP3    H165296   1.510   4.578  13.986  0.0151 -0.5820 -2.3010
14627TIP3    H265297   1.582   4.481  13.894  2.0712 -1.1675 -0.1227
14628TIP3   OH265298   1.082   1.927  15.883  0.4199  0.8084 -0.2268
14628TIP3    H165299   1.000   1.926  15.834 -0.0123  1.2255  0.4805
14628TIP3    H265300   1.096   2.019  15.906  0.4113  0.5704  0.7606
14629TIP3   OH265301   5.513   0.401  16.515 -0.4291 -0.0389 -0.3553
14629TIP3    H165302   5.451   0.463  16.555  0.4976  1.2269 -0.8469
14629TIP3    H265303   5.458   0.341  16.466 -1.2279  1.5759 -1.4775
14630TIP3   OH265304   0.461   0.502   1.233 -0.4282 -0.6479 -0.4619
14630TIP3    H165305   0.451   0.512   1.139 -0.4317 -1.4314 -0.5499
14630TIP3    H265306   0.378   0.532   1.270 -0.8083 -1.2850 -0.7813
14631TIP3   OH265307   3.517   4.394  12.784  0.1310 -0.6708  0.1353
14631TIP3    H165308   3.464   4.366  12.859  1.2641 -3.0385  0.0779
14631TIP3    H265309   3.607   4.376  12.810  0.7045  0.5737 -0.9346
14632TIP3   OH265310   5.960   2.681  13.635 -0.2502  0.1690  0.3386
14632TIP3    H165311   6.016   2.748  13.673 -1.0129  1.3542 -0.5923
14632TIP3    H265312   5.935   2.716  13.550 -0.7713 -1.2441 -0.1074
14633TIP3   OH265313   2.982   2.299  13.403  0.1581  0.4534 -0.0149
14633TIP3    H165314   3.021   2.385  13.387 -0.2307  0.9456  1.6624
14633TIP3    H265315   3.010   2.275  13.491 -1.1538 -0.3800  0.1961
14634TIP3   OH265316   6.563   0.311   0.504  0.5963  0.5115  1.0364
14634TIP3    H165317   6.655   0.301   0.532  0.7982 -2.6710 -0.5683
14634TIP3    H265318   6.567   0.373   0.431  1.6892 -0.7322  0.0197
14635TIP3   OH265319   2.565   0.665  14.550 -0.6965 -0.0362 -0.1614
14635TIP3    H165320   2.605   0.581  14.574 -1.6198 -0.2972  0.4941
14635TIP3    H265321   2.517   0.691  14.628 -0.2589  1.2092 -0.3030
14636TIP3   OH265322   6.530   5.619   3.139  0.0965 -0.1138  0.1014
14636TIP3    H165323   6.565   5.651   3.222 -0.2402  0.1762  0.1344
14636TIP3    H265324   6.456   5.563   3.164  0.4172 -0.5746  0.0255
14637TIP3   OH265325   1.773   1.580   2.975 -0.0174 -0.0154 -0.4363
14637TIP3    H165326   1.822   1.659   2.954 -0.7688  0.5927  0.0810
14637TIP3    H265327   1.834   1.528   3.027  0.1421  0.6718  0.0732
14638TIP3   OH265328   6.314   4.839  10.717  0.0481  0.3365  0.1547
14638TIP3    H165329   6.248   4.832  10.648  1.0279  0.7485 -0.8409
14638TIP3    H265330   6.307   4.930  10.748 -1.7446 -0.3858  2.0027
14639TIP3   OH265331   2.303   0.504  16.019  0.1804 -0.0463  0.3466
14639TIP3    H165332   2.373   0.450  15.982 -0.7666 -2.1940  1.5898
14639TIP3    H265333   2.228   0.446  16.023 -0.6307  1.1137  2.5628
14640TIP3   OH265334   2.526   5.276   3.999 -0.5599  0.3557  0.2919
14640TIP3    H165335   2.537   5.361   3.957 -0.3380 -0.3047 -1.0015
14640TIP3    H265336   2.472   5.294   4.076 -0.4872  1.6643  0.0435
14641TIP3   OH265337   1.458   6.146  12.264 -0.2994  0.1467  0.3089
14641TIP3    H165338   1.546   6.180  12.283 -0.1642 -0.1549  0.2433
14641TIP3    H265339   1.398   6.211  12.300 -0.0476  0.4233  0.2286
14642TIP3   OH265340   6.451   5.886  15.692 -0.5875 -0.1697 -0.0952
14642TIP3    H165341   6.391   5.889  15.617 -1.5919 -0.0615  0.7036
14642TIP3    H265342   6.422   5.811  15.743  0.9169 -1.0381 -0.4687
14643TIP3   OH265343   1.589   5.902   5.120 -0.3103  0.0708 -0.6013
14643TIP3    H165344   1.551   5.886   5.033 -1.2438 -1.6421  0.0907
14643TIP3    H265345   1.677   5.866   5.115 -0.1202  0.5965 -1.0489
14644TIP3   OH265346   1.784   2.000  14.911 -0.2791 -0.8386 -0.2316
14644TIP3    H165347   1.806   1.908  14.896 -2.2101 -1.2281 -0.9015
14644TIP3    H265348   1.690   2.005  14.893 -0.0781  1.3963 -0.8113
14645TIP3   OH265349   2.456   5.667   5.827  0.0404 -0.1112 -0.1761
14645TIP3    H165350   2.470   5.748   5.876 -2.3812  0.4799 -0.4143
14645TIP3    H265351   2.456   5.598   5.894 -4.3302  0.8011  0.9549
14646TIP3   OH265352   3.805   3.376   1.160 -0.1360 -0.6842 -0.7275
14646TIP3    H165353   3.845   3.423   1.233  1.3245 -0.5145 -1.6158
14646TIP3    H265354   3.740   3.319   1.201  1.8504 -1.8573  0.8986
14647TIP3   OH265355   2.428   5.558   1.376  0.5785  0.5600  0.1982
14647TIP3    H165356   2.467   5.566   1.289  0.4202  0.1741  0.0921
14647TIP3    H265357   2.495   5.513   1.428  1.1062  1.7495  0.5599
14648TIP3   OH265358   0.656   0.839  16.014 -0.2341  0.0530  0.2150
14648TIP3    H165359   0.635   0.792  15.934  0.6981  0.0964 -0.0604
14648TIP3    H265360   0.686   0.925  15.985  0.7040 -0.1422  0.5587
14649TIP3   OH265361   3.383   3.111   0.134  0.3983 -0.0444 -0.4834
14649TIP3    H165362   3.310   3.128   0.075  0.8006  0.6695 -0.7707
14649TIP3    H265363   3.439   3.050   0.085  0.6021  0.3472 -0.7420
14650TIP3   OH265364   5.637   5.748   0.911 -0.8570 -0.0575  0.4244
14650TIP3    H165365   5.562   5.769   0.855  0.9964  1.3754 -1.5930
14650TIP3    H265366   5.695   5.824   0.903  1.5446 -1.8008  0.6897
14651TIP3   OH265367   4.652   5.565  12.659 -0.6226 -0.3359 -0.3263
14651TIP3    H165368   4.602   5.610  12.727 -1.5914 -0.8162 -0.7096
14651TIP3    H265369   4.739   5.555  12.697 -0.8222  0.4751  0.3679
14652TIP3   OH265370   0.909   5.164   5.847  0.8940  0.1526 -0.5105
14652TIP3    H165371   0.952   5.090   5.889  3.3662  0.8545 -1.6952
14652TIP3    H265372   0.867   5.127   5.769 -0.2184 -0.4569  0.3799
14653TIP3   OH265373   1.362   2.493  13.701  0.2964 -0.1175 -0.3350
14653TIP3    H165374   1.303   2.463  13.770  0.7193 -1.7605 -0.6511
14653TIP3    H265375   1.324   2.575  13.670 -1.5209 -0.8637 -0.1494
14654TIP3   OH265376   4.701   6.656  16.521 -0.2611  0.4599  0.4759
14654TIP3    H165377   4.643   6.678  16.594  1.1298 -0.8719  2.0284
14654TIP3    H265378   4.653   6.684  16.443 -2.1001  1.2358  1.8451
14655TIP3   OH265379   5.152   4.255   3.143 -0.8482 -0.7458 -0.2609
14655TIP3    H165380   5.170   4.214   3.228 -0.2586  1.3754  0.6832
14655TIP3    H265381   5.057   4.266   3.141 -0.7403  0.5440  0.8006
14656TIP3   OH265382   2.970   2.578   4.589 -0.8352 -0.2869 -0.0648
14656TIP3    H165383   3.054   2.597   4.631 -0.3162 -0.4611 -0.9996
14656TIP3    H265384   2.914   2.652   4.611 -0.7566 -0.6235  1.3725
14657TIP3   OH265385   6.186   0.763   1.969 -0.2057  0.0134 -0.2319
14657TIP3    H165386   6.194   0.688   2.028  2.7268 -0.4470 -1.1639
14657TIP3    H265387   6.102   0.749   1.925 -1.2990 -0.8982  2.0368
14658TIP3   OH265388   2.014   3.730  14.408  0.5021  0.0777 -0.4154
14658TIP3    H165389   2.082   3.751  14.344  1.2275  0.8037  0.5646
14658TIP3    H265390   1.935   3.717  14.356  1.2493 -0.1481 -1.5230
14659TIP3   OH265391   4.925   4.810   2.897 -0.4177 -0.0907  0.1924
14659TIP3    H165392   4.969   4.750   2.957 -1.1540 -0.2540  0.5771
14659TIP3    H265393   4.984   4.885   2.891 -0.3566 -0.0427  1.1895
14660TIP3   OH265394   0.818   4.668   1.653 -0.3412 -0.1483  0.0060
14660TIP3    H165395   0.730   4.631   1.646  0.6554 -2.8475  0.8527
14660TIP3    H265396   0.854   4.629   1.732  1.4940  1.2029 -0.1263
14661TIP3   OH265397   2.728   4.232  12.041  0.0137 -0.0115 -0.1270
14661TIP3    H165398   2.759   4.197  12.124 -0.2297  0.3870  0.1324
14661TIP3    H265399   2.808   4.244  11.989  0.1441 -0.4791 -0.0391
14662TIP3   OH265400   0.517   0.429  14.095 -0.0543 -0.1524 -0.0427
14662TIP3    H165401   0.441   0.438  14.037 -0.6820  0.9822  0.9229
14662TIP3    H265402   0.571   0.506  14.075 -1.7121  1.8707  2.9017
14663TIP3   OH265403   5.808   5.774  12.421 -0.2640  0.1714  0.2826
14663TIP3    H165404   5.762   5.850  12.385 -0.5418  0.5439  1.3901
14663TIP3    H265405   5.741   5.705  12.422  0.2700 -0.4151 -1.6991
14664TIP3   OH265406   4.758   2.728  12.682  0.1941  0.1699 -0.2050
14664TIP3    H165407   4.746   2.803  12.624 -3.8471 -0.2687 -0.1141
14664TIP3    H265408   4.689   2.737  12.747  1.6366 -1.9556  1.6849
14665TIP3   OH265409   5.823   0.908   4.735 -0.0078 -0.1741 -0.1179
14665TIP3    H165410   5.732   0.878   4.735 -0.1058  0.1200 -0.0570
14665TIP3    H265411   5.824   0.983   4.795  0.1667  0.1493 -0.5252
14666TIP3   OH265412   4.329   5.577  11.196  0.3173 -0.0032  0.2672
14666TIP3    H165413   4.259   5.522  11.231 -0.1381  0.0564 -0.5410
14666TIP3    H265414   4.378   5.519  11.138  0.7715  0.0323  0.6133
14667TIP3   OH265415   4.231   5.195   0.625  0.0512 -0.2439  0.2538
14667TIP3    H165416   4.325   5.196   0.608  0.3676 -0.8789  1.9356
14667TIP3    H265417   4.217   5.269   0.684 -0.3960 -0.5657  0.5508
14668TIP3   OH265418   3.653   4.287  11.973 -0.0645  0.6084  0.0784
14668TIP3    H165419   3.696   4.257  12.053  2.3450  0.7317 -1.1430
14668TIP3    H265420   3.603   4.211  11.943 -0.0021  0.1870  1.0163
14669TIP3   OH265421   0.287   1.144   6.234 -0.0175 -0.1847  0.0927
14669TIP3    H165422   0.211   1.098   6.200 -0.2511 -1.5540  2.3832
14669TIP3    H265423   0.331   1.080   6.290 -0.2900  2.2695  3.3002
14670TIP3   OH265424   1.908   1.016  15.469  0.5085  0.5952 -0.0106
14670TIP3    H165425   1.937   1.085  15.410  1.2432 -0.9277 -1.4501
14670TIP3    H265426   1.977   1.010  15.535  1.1289  0.2572 -0.6931
14671TIP3   OH265427   0.415   2.440   4.104 -0.0710  0.2309 -0.9441
14671TIP3    H165428   0.345   2.504   4.117  1.8753  2.0990  0.8155
14671TIP3    H265429   0.470   2.478   4.035  0.1570 -0.4045 -1.1200
14672TIP3   OH265430   4.813   5.654  11.397  0.6748 -0.5321 -0.3368
14672TIP3    H165431   4.817   5.568  11.439 -0.6968 -0.6455 -0.4342
14672TIP3    H265432   4.743   5.647  11.333 -2.6021  1.9642  2.7186
14673TIP3   OH265433   3.167   6.191   1.475 -0.2332  0.5492  0.3071
14673TIP3    H165434   3.084   6.209   1.431 -0.6770 -1.1951  0.3840
14673TIP3    H265435   3.143   6.184   1.568  0.7308  4.4300  0.9266
14674TIP3   OH265436   5.983   0.771   4.504  0.0945 -0.7215  0.1477
14674TIP3    H165437   5.932   0.839   4.548  1.7429  0.0131  0.9577
14674TIP3    H265438   5.978   0.793   4.411 -0.5910 -0.3231  0.2791
14675TIP3   OH265439   2.578   2.084  15.983 -0.5999  0.3580 -0.5550
14675TIP3    H165440   2.562   2.052  15.894 -1.7406 -0.0721 -0.2048
14675TIP3    H265441   2.598   2.177  15.973 -0.1872  0.1868 -1.3075
14676TIP3   OH265442   5.113   3.684  14.264 -0.2592  0.4131  0.8202
14676TIP3    H165443   5.201   3.681  14.226  0.0609 -0.1805  1.5793
14676TIP3    H265444   5.058   3.721  14.195  0.5732  0.7143  0.3089
14677TIP3   OH265445   6.015   3.076  12.371 -0.0123  0.2330  0.5521
14677TIP3    H165446   6.063   3.086  12.454 -2.1790 -0.0374  1.8803
14677TIP3    H265447   6.038   3.154  12.320  0.8160  0.7425  1.6787
14678TIP3   OH265448   4.092   6.067  12.370 -0.0600  0.2870 -0.2108
14678TIP3    H165449   4.181   6.044  12.395 -0.5193  0.9480  2.2338
14678TIP3    H265450   4.092   6.163  12.367 -0.4415  0.2660 -1.2492
14679TIP3   OH265451   3.492   6.191   1.060  0.4091 -0.5117 -0.0079
14679TIP3    H165452   3.451   6.257   1.005  0.1699 -2.0029 -1.6491
14679TIP3    H265453   3.554   6.147   1.003  1.7013 -0.6723  1.5017
14680TIP3   OH265454   2.182   5.372   5.511  0.0114 -0.0481 -0.0594
14680TIP3    H165455   2.208   5.442   5.451  0.1429 -0.8281 -0.9192
14680TIP3    H265456   2.233   5.389   5.590  0.5165  0.4678 -0.4907
14681TIP3   OH265457   2.914   4.613   2.238  0.0607  0.0745  0.0904
14681TIP3    H165458   2.985   4.633   2.176  0.7274 -2.0869  0.0814
14681TIP3    H265459   2.850   4.564   2.185 -0.1357 -0.3510  0.7188
14682TIP3   OH265460   4.844   4.567   1.635  0.5442  0.3343 -0.0726
14682TIP3    H165461   4.935   4.560   1.606  0.6406  0.8688  0.0897
14682TIP3    H265462   4.793   4.571   1.554  0.5367 -1.5022 -0.1634
14683TIP3   OH265463   5.337   1.558  15.744  0.1990  0.2390  0.2126
14683TIP3    H165464   5.336   1.582  15.837  2.0665 -0.7940  0.5353
14683TIP3    H265465   5.430   1.553  15.722 -0.2240  0.4407 -1.7212
14684TIP3   OH265466   2.537   5.397   1.746 -0.3743 -0.1438 -0.3934
14684TIP3    H165467   2.581   5.471   1.787  2.0024 -0.4984 -2.2065
14684TIP3    H265468   2.451   5.430   1.722  0.6298  2.0103 -1.0917
14685TIP3   OH265469   3.377   1.668  13.701 -0.6764  0.0819  0.1399
14685TIP3    H165470   3.469   1.683  13.678 -0.5197 -2.4099 -1.0262
14685TIP3    H265471   3.328   1.718  13.636 -0.1558 -0.0100 -0.3274
14686TIP3   OH265472   0.090   2.282  13.192  0.1003 -0.0585 -0.1872
14686TIP3    H165473   0.011   2.326  13.159 -0.2426 -0.9812 -0.6138
14686TIP3    H265474   0.088   2.296  13.287 -0.1848  0.5524 -0.2816
14687TIP3   OH265475   5.362   4.398  15.261 -0.3649 -0.6354 -0.0907
14687TIP3    H165476   5.377   4.423  15.170  0.7534 -1.0590 -0.0219
14687TIP3    H265477   5.448   4.403  15.302 -1.3992  2.9160  1.8094
14688TIP3   OH265478   1.607   4.994   0.520  0.0064 -0.3661 -0.1510
14688TIP3    H165479   1.518   5.021   0.544 -0.5316 -0.3647 -2.0419
14688TIP3    H265480   1.631   4.929   0.586 -2.2155 -1.9105 -0.7734
14689TIP3   OH265481   1.795   0.111   2.996 -0.7047  0.3066 -0.0538
14689TIP3    H165482   1.808   0.074   3.083 -2.6430 -2.8378 -1.0409
14689TIP3    H265483   1.868   0.079   2.944  0.3546  2.0380  0.3289
14690TIP3   OH265484   0.506   2.632  14.516 -0.2234  0.5813  0.0998
14690TIP3    H165485   0.460   2.709  14.482 -0.3801 -0.7064 -2.6978
14690TIP3    H265486   0.454   2.558  14.485  0.7077 -0.7236  1.5822
14691TIP3   OH265487   6.317   2.373   4.232  0.1594 -0.2672  0.0316
14691TIP3    H165488   6.267   2.406   4.307 -0.2245  0.6883 -0.6349
14691TIP3    H265489   6.371   2.303   4.268  0.7582  0.8891  1.4057
14692TIP3   OH265490   1.489   1.683  16.998  0.3882 -0.3746  0.2407
14692TIP3    H165491   1.581   1.666  17.019  0.2850 -2.9556 -1.2734
14692TIP3    H265492   1.455   1.600  16.966 -2.1060  0.9071 -0.6113
14693TIP3   OH265493   3.933   4.648   0.366 -0.0246 -0.0709  0.2683
14693TIP3    H165494   3.885   4.640   0.284  0.6531  1.7348 -0.3445
14693TIP3    H265495   4.025   4.655   0.340  0.1282  1.3134  1.1096
14694TIP3   OH265496   0.121   0.748  16.765  0.3945  0.4980 -0.8491
14694TIP3    H165497   0.038   0.796  16.769 -0.0107 -0.1576 -1.2875
14694TIP3    H265498   0.103   0.666  16.811  0.6978  0.2146 -1.2370
14695TIP3   OH265499   6.695   5.078   5.366 -0.6824 -0.1105  0.0057
14695TIP3    H165500   6.767   5.026   5.402  0.3551 -0.1600 -2.0477
14695TIP3    H265501   6.728   5.168   5.366  0.1835 -0.3826 -2.7443
14696TIP3   OH265502   1.045   2.182  14.326  0.6460  0.0230 -0.4589
14696TIP3    H165503   0.986   2.118  14.367  1.0432 -0.0415  0.0241
14696TIP3    H265504   0.991   2.260  14.315  0.5738  0.0937  0.3483
14697TIP3   OH265505   0.431   0.557   3.778  0.1105  0.1937 -0.7134
14697TIP3    H165506   0.442   0.551   3.683 -1.7115 -1.8334 -0.8389
14697TIP3    H265507   0.416   0.467   3.806  1.2155  0.6901  1.5891
14698TIP3   OH265508   0.318   0.676  12.114 -0.1463 -0.4638 -0.0676
14698TIP3    H165509   0.250   0.654  12.051 -0.8476  0.9091  0.2074
14698TIP3    H265510   0.321   0.771  12.115  1.4120 -0.4949  0.3232
14699TIP3   OH265511   3.384   5.082  13.299  0.5173  0.5131  0.2094
14699TIP3    H165512   3.377   5.014  13.366 -2.4772 -0.4580 -1.0331
14699TIP3    H265513   3.474   5.075  13.268  1.1306 -0.8720  2.1850
14700TIP3   OH265514   3.345   5.456  16.397 -0.0744  0.1093 -0.0794
14700TIP3    H165515   3.430   5.426  16.430  1.1802  1.7569 -1.6994
14700TIP3    H265516   3.287   5.454  16.473  2.2109  1.8954  1.7601
14701TIP3   OH265517   4.217   0.671  15.656 -0.5393 -0.0392 -0.5999
14701TIP3    H165518   4.123   0.654  15.649 -0.4413 -0.2761 -1.2967
14701TIP3    H265519   4.247   0.610  15.724 -1.1785  1.1956  0.8475
14702TIP3   OH265520   5.355   1.571  16.845  0.3271  0.7089  0.5035
14702TIP3    H165521   5.410   1.584  16.923 -1.2470 -1.5929  2.1041
14702TIP3    H265522   5.267   1.597  16.873 -0.0205  1.1225 -0.9386
14703TIP3   OH265523   0.903   2.027  11.905 -0.0751 -0.0819 -0.4415
14703TIP3    H165524   0.870   2.033  11.995  0.6331 -0.8459 -0.1301
14703TIP3    H265525   0.836   1.976  11.859 -1.7725  2.5231 -1.0128
14704TIP3   OH265526   1.951   0.140  12.281 -0.3774 -0.4113  0.0506
14704TIP3    H165527   2.015   0.109  12.216  1.2809  1.6476  0.6425
14704TIP3    H265528   1.878   0.173  12.229  2.2183  4.0469 -0.9891
14705TIP3   OH265529   4.622   6.128   4.119 -0.4990 -0.0427  0.3573
14705TIP3    H165530   4.555   6.175   4.070 -0.0317  0.1708 -0.0787
14705TIP3    H265531   4.597   6.036   4.111 -0.9951  0.0693  0.5893
14706TIP3   OH265532   6.490   3.634  13.862  0.2295 -0.1519  0.0738
14706TIP3    H165533   6.487   3.678  13.947 -1.8241 -1.7320  0.8886
14706TIP3    H265534   6.449   3.697  13.801  0.2193  0.3356  0.5785
14707TIP3   OH265535   5.794   1.786   3.463 -0.1957 -0.1345  0.1438
14707TIP3    H165536   5.795   1.725   3.389  0.6369  0.8559 -0.6776
14707TIP3    H265537   5.886   1.794   3.488 -0.1190  1.7896 -0.6239
14708TIP3   OH265538   2.390   5.828   1.471  0.1261  0.1907  0.1191
14708TIP3    H165539   2.471   5.879   1.469 -0.3861  1.0046 -0.2997
14708TIP3    H265540   2.408   5.756   1.531  1.5323 -0.2654 -0.8306
14709TIP3   OH265541   3.794   3.857  11.631  0.0721 -0.6043  0.3449
14709TIP3    H165542   3.816   3.949  11.648  2.2862 -1.3322  1.5425
14709TIP3    H265543   3.875   3.818  11.599 -0.9646 -2.0697 -0.5802
14710TIP3   OH265544   4.380   0.364   3.266 -0.6928 -0.0955 -0.0246
14710TIP3    H165545   4.408   0.311   3.191  0.1111  1.1189 -0.6010
14710TIP3    H265546   4.366   0.452   3.230  1.2168  0.8822  1.5263
14711TIP3   OH265547   6.040   2.657   4.509  0.3655 -0.2033 -0.0931
14711TIP3    H165548   5.981   2.595   4.551  1.0824  0.0218  1.2787
14711TIP3    H265549   6.000   2.676   4.424 -1.6154  0.0993  0.8936
14712TIP3   OH265550   0.473   4.349  12.884 -0.1340  0.0858  0.0423
14712TIP3    H165551   0.395   4.327  12.832 -2.1250  2.4478  1.9017
14712TIP3    H265552   0.459   4.306  12.968  0.8646  0.0175  0.1795
14713TIP3   OH265553   3.032   2.514   1.793 -0.0222  0.3445  0.0270
14713TIP3    H165554   3.052   2.455   1.866  1.9096  0.3956 -0.4341
14713TIP3    H265555   3.031   2.457   1.716  0.6774  0.7142 -0.2609
14714TIP3   OH265556   4.546   5.706   2.471  0.1783  0.8462  0.1878
14714TIP3    H165557   4.493   5.628   2.450 -0.8308  1.4013  0.6298
14714TIP3    H265558   4.635   5.672   2.479  0.1167  0.1053 -1.8799
14715TIP3   OH265559   3.267   3.549  13.245  0.9554 -0.4982  0.4131
14715TIP3    H165560   3.245   3.473  13.298 -0.1026  1.3752  2.7782
14715TIP3    H265561   3.183   3.580  13.211  1.5459 -1.2446 -1.8135
14716TIP3   OH265562   3.195   4.178   0.335  0.1111  0.1646  0.3887
14716TIP3    H165563   3.150   4.132   0.264  2.6294 -0.8097 -0.6120
14716TIP3    H265564   3.159   4.140   0.415 -1.7772  0.3396 -0.3565
14717TIP3   OH265565   2.943   6.572  13.809  0.0693 -0.0021  0.7458
14717TIP3    H165566   2.881   6.522  13.756  1.5881 -1.1233  0.0134
14717TIP3    H265567   3.028   6.557  13.769  0.7277  2.2693  1.1892
14718TIP3   OH265568   2.043   1.791   0.903 -0.4346 -0.4965  0.3962
14718TIP3    H165569   2.113   1.759   0.959 -0.6506  1.0419  1.5790
14718TIP3    H265570   2.089   1.829   0.827  0.1042  1.5046  1.6804
14719TIP3   OH265571   5.402   1.391  14.619  0.2382  0.7842  0.7942
14719TIP3    H165572   5.452   1.316  14.587  0.7881  1.3454  0.3191
14719TIP3    H265573   5.353   1.421  14.543 -2.1157 -0.7558  1.6347
14720TIP3   OH265574   5.133   0.991   5.349 -0.3238 -0.1813 -0.0696
14720TIP3    H165575   5.104   0.902   5.329  0.2678 -0.4388  0.1827
14720TIP3    H265576   5.068   1.048   5.309 -0.8147 -0.7358 -0.0560
14721TIP3   OH265577   4.623   2.510   5.623 -0.2598  0.0476  0.0167
14721TIP3    H165578   4.694   2.466   5.578 -1.6336 -1.6945 -0.4806
14721TIP3    H265579   4.570   2.440   5.661 -2.9676  1.1537 -1.5257
14722TIP3   OH265580   5.947   4.269   0.702  0.0221  0.0875 -0.3393
14722TIP3    H165581   5.967   4.346   0.649  0.1764  1.1908  1.2719
14722TIP3    H265582   5.886   4.219   0.649  0.4685  0.9609 -1.7161
14723TIP3   OH265583   2.000   5.483  16.407 -0.5744  0.5922  0.4192
14723TIP3    H165584   2.024   5.568  16.371 -0.9316  1.3673  1.9579
14723TIP3    H265585   1.907   5.475  16.388 -0.2976  0.0183 -0.7394
14724TIP3   OH265586   4.852   6.707   3.855 -0.0044  0.4493  0.5855
14724TIP3    H165587   4.920   6.770   3.832 -1.5366  1.4251 -1.4372
14724TIP3    H265588   4.900   6.627   3.876  1.7485  0.7935 -1.8654
14725TIP3   OH265589   5.426   1.389  15.388 -0.2570 -0.0945 -0.8002
14725TIP3    H165590   5.443   1.430  15.303 -1.2745  2.2163  0.0604
14725TIP3    H265591   5.467   1.447  15.451  1.0492 -2.1526  0.2756
14726TIP3   OH265592   6.760   4.557  13.059 -0.1160 -0.1687 -0.0534
14726TIP3    H165593   6.724   4.501  12.991 -0.8357 -1.8898  1.7326
14726TIP3    H265594   6.684   4.593  13.104  0.3590  0.0465  0.5874
14727TIP3   OH265595   5.257   4.253   0.343 -0.4523  0.3031  0.5375
14727TIP3    H165596   5.177   4.203   0.355 -0.6328  0.5136  0.2175
14727TIP3    H265597   5.286   4.274   0.432 -0.2891 -0.4975  0.6749
14728TIP3   OH265598   5.101   1.866   2.581  0.4593  0.4802  0.3232
14728TIP3    H165599   5.108   1.903   2.493  2.1455  1.1061  0.7057
14728TIP3    H265600   5.167   1.797   2.584  0.9913  1.0191  1.3576
14729TIP3   OH265601   1.932   5.840   1.969  1.1523 -0.3012 -0.8702
14729TIP3    H165602   2.024   5.867   1.966  0.5023  2.3242  0.6632
14729TIP3    H265603   1.894   5.895   2.038 -2.0589  0.2317 -2.9600
14730TIP3   OH265604   2.741   0.759  16.076 -0.1266  0.3380  0.2703
14730TIP3    H165605   2.684   0.830  16.045  1.1605  0.9034 -0.9054
14730TIP3    H265606   2.767   0.713  15.996  1.0111  0.0631  0.7919
14731TIP3   OH265607   4.807   6.378   2.711  0.0503 -0.0962 -0.4610
14731TIP3    H165608   4.786   6.292   2.676 -0.2827 -0.2658  0.1446
14731TIP3    H265609   4.745   6.438   2.667  0.9733 -0.0040 -1.6581
14732TIP3   OH265610   0.936   6.738   2.030 -0.1874 -0.1086  0.3309
14732TIP3    H165611   0.968   6.681   2.099  0.8644 -1.3706 -1.1780
14732TIP3    H265612   0.912   6.679   1.959  0.8221  1.2996 -1.2112
14733TIP3   OH265613   2.859   1.467   4.199 -0.0295 -0.7274 -0.3480
14733TIP3    H165614   2.902   1.434   4.120 -0.9356 -0.9298 -0.7665
14733TIP3    H265615   2.904   1.550   4.218 -0.1244 -0.4331 -1.3641
14734TIP3   OH265616   2.982   2.186   2.126  0.3442 -0.1299  0.1925
14734TIP3    H165617   2.924   2.231   2.189 -0.5767  0.0320 -0.7589
14734TIP3    H265618   3.025   2.118   2.178  0.3083  0.6166  1.2155
14735TIP3   OH265619   4.159   0.891  14.313  0.6404 -0.1239 -0.3270
14735TIP3    H165620   4.135   0.983  14.324 -1.7438 -0.5693 -1.3958
14735TIP3    H265621   4.112   0.863  14.234  1.4275 -2.2140 -0.0910
14736TIP3   OH265622   5.176   3.141   2.355 -0.6164  0.7096  0.6828
14736TIP3    H165623   5.197   3.157   2.447 -0.6599  0.2099  0.7804
14736TIP3    H265624   5.218   3.214   2.308 -1.0144  1.2368  1.1429
14737TIP3   OH265625   1.300   0.974  13.885  0.4738 -0.0371 -0.5455
14737TIP3    H165626   1.287   0.916  13.809  0.5666  0.0346 -0.6172
14737TIP3    H265627   1.259   0.928  13.958  1.2420 -0.5591 -0.4388
14738TIP3   OH265628   5.518   1.784   0.867  0.3291 -0.2250  0.3016
14738TIP3    H165629   5.452   1.715   0.865  0.9439 -0.7945 -1.6783
14738TIP3    H265630   5.581   1.756   0.933  0.6136 -1.6349 -0.5440
14739TIP3   OH265631   4.807   2.066  15.158  0.3559  0.6088 -0.0544
14739TIP3    H165632   4.790   2.002  15.227 -1.1616  0.7773 -0.2520
14739TIP3    H265633   4.891   2.106  15.183  0.5585 -0.3716  0.8816
14740TIP3   OH265634   3.171   2.733  16.639 -0.2527  0.4561 -0.2078
14740TIP3    H165635   3.107   2.755  16.572 -1.4598 -0.0580  0.7507
14740TIP3    H265636   3.136   2.655  16.681  1.5198 -0.4348 -0.3288
14741TIP3   OH265637   2.659   3.040  16.669  0.2186 -0.0786 -0.4659
14741TIP3    H165638   2.602   2.964  16.676 -0.4467  0.4178 -0.4858
14741TIP3    H265639   2.623   3.103  16.731 -0.2153  0.8527 -1.6552
14742TIP3   OH265640   1.695   5.292  11.436 -0.2097  0.1438  0.6289
14742TIP3    H165641   1.622   5.354  11.438  0.5749  1.2652 -2.5420
14742TIP3    H265642   1.653   5.206  11.434 -1.6940  0.8175 -4.3091
14743TIP3   OH265643   5.387   2.978   2.270  0.1189  0.0250  0.5029
14743TIP3    H165644   5.318   3.043   2.286 -0.0835 -0.1306  0.2709
14743TIP3    H265645   5.352   2.897   2.307 -0.0173 -0.1579 -0.0231
14744TIP3   OH265646   4.040   4.524  15.985 -0.2110  0.5808  0.3839
14744TIP3    H165647   4.061   4.508  15.893 -2.0422 -0.0221  0.0369
14744TIP3    H265648   4.117   4.567  16.020  1.2194 -0.7647 -1.0044
14745TIP3   OH265649   2.727   5.865   4.053  0.5883  0.7916  0.1964
14745TIP3    H165650   2.757   5.901   4.137 -0.7719  1.1915  0.5135
14745TIP3    H265651   2.750   5.933   3.989 -0.6475  1.5916  0.5936
14746TIP3   OH265652   6.614   1.898  17.136 -0.0339 -0.0836  0.2979
14746TIP3    H165653   6.592   1.919  17.045  2.2433  1.7793  0.1296
14746TIP3    H265654   6.584   1.973  17.186 -1.1517 -1.0450  1.1039
14747TIP3   OH265655   0.576   1.240   4.412 -0.2967 -0.5678  0.2201
14747TIP3    H165656   0.650   1.205   4.363  0.4551 -0.2020  1.0990
14747TIP3    H265657   0.517   1.275   4.344  0.5349 -0.4566 -0.4462
14748TIP3   OH265658   6.212   3.917   3.696  0.1304  0.6417  0.1297
14748TIP3    H165659   6.256   3.840   3.733  0.6313 -0.1276 -1.9760
14748TIP3    H265660   6.149   3.880   3.634  0.7221  1.9179 -1.2756
14749TIP3   OH265661   2.691   0.379   2.123 -0.2111 -0.3065 -0.3060
14749TIP3    H165662   2.704   0.437   2.198 -1.8618  0.3392 -0.5067
14749TIP3    H265663   2.658   0.298   2.162 -1.5633  0.2061 -0.3786
14750TIP3   OH265664   4.422   1.103  12.615  0.4841  0.1027 -0.0248
14750TIP3    H165665   4.443   1.081  12.705  0.4383 -1.9054 -0.4926
14750TIP3    H265666   4.444   1.196  12.608  0.6311  0.2449  1.9979
14751TIP3   OH265667   4.038   1.638  12.649  0.1010  0.2334 -0.2396
14751TIP3    H165668   4.115   1.687  12.678  0.3642 -0.3661  0.1089
14751TIP3    H265669   3.987   1.700  12.597 -0.3163  1.3153  1.4085
14752TIP3   OH265670   2.899   5.615  15.000 -0.2228 -0.4406 -0.0173
14752TIP3    H165671   2.990   5.630  15.024 -0.1705  0.3004 -0.6717
14752TIP3    H265672   2.902   5.595  14.906 -0.4599 -2.9707  0.4817
14753TIP3   OH265673   5.058   4.027  15.203  0.4261  0.1738 -0.3026
14753TIP3    H165674   5.150   4.046  15.187  0.7287 -1.1671 -0.2037
14753TIP3    H265675   5.059   3.950  15.260 -0.7361  0.7536  0.5232
14754TIP3   OH265676   4.210   2.914  12.284 -0.1794  0.0233  0.0601
14754TIP3    H165677   4.290   2.873  12.251  0.2329 -0.0796  1.1614
14754TIP3    H265678   4.139   2.856  12.254  0.5387 -2.9215  3.5985
14755TIP3   OH265679   5.288   4.003   1.324  0.3543 -0.1367  0.1990
14755TIP3    H165680   5.193   4.012   1.310  0.4118  0.0078 -0.0916
14755TIP3    H265681   5.296   3.987   1.418  0.0585  0.0909  0.2649
14756TIP3   OH265682   5.284   1.911   4.281 -0.1561 -0.1703  0.0204
14756TIP3    H165683   5.342   1.836   4.296 -0.3325 -0.1033  1.0884
14756TIP3    H265684   5.292   1.929   4.187 -1.3114 -2.5176 -0.5538
14757TIP3   OH265685   1.433   6.085   0.673  0.5750 -0.0508 -0.7721
14757TIP3    H165686   1.518   6.127   0.662  1.0850 -0.9409 -0.3069
14757TIP3    H265687   1.452   6.007   0.725 -0.6956  0.3270  0.2804
14758TIP3   OH265688   3.062   4.744   1.413  0.1828  0.2358  0.1166
14758TIP3    H165689   3.141   4.795   1.397  0.2795  0.3387  0.8786
14758TIP3    H265690   3.000   4.808   1.450  0.0799 -0.0511  0.4435
14759TIP3   OH265691   4.588   3.020   2.381 -0.7504 -0.1139  0.1361
14759TIP3    H165692   4.593   2.977   2.296 -0.7422  2.5946 -1.2905
14759TIP3    H265693   4.505   2.991   2.419 -0.8364 -1.1868 -0.8740
14760TIP3   OH265694   6.191   6.115  13.710  0.2398 -0.1167  0.0586
14760TIP3    H165695   6.130   6.088  13.779 -0.5847  2.2040  0.2747
14760TIP3    H265696   6.162   6.066  13.633 -0.7165 -0.4500  0.6134
14761TIP3   OH265697   2.508   1.346   0.573 -0.1509  0.2089 -0.4854
14761TIP3    H165698   2.535   1.357   0.664  0.1505 -1.3993 -0.3676
14761TIP3    H265699   2.530   1.429   0.531  0.8818  0.5009  0.6218
14762TIP3   OH265700   0.971   2.664  12.425 -0.9979 -0.2046  0.4629
14762TIP3    H165701   0.895   2.626  12.381  0.2263 -2.9044  0.5495
14762TIP3    H265702   1.045   2.641  12.369 -0.0145  0.7165  1.3618
14763TIP3   OH265703   4.481   2.773   3.240 -0.4526 -0.1677  0.0037
14763TIP3    H165704   4.483   2.845   3.177 -3.3041 -2.0183 -2.3479
14763TIP3    H265705   4.573   2.747   3.249  0.3775  2.3073 -0.7849
14764TIP3   OH265706   4.549   1.711  14.698  0.2263  0.0767  0.3148
14764TIP3    H165707   4.519   1.623  14.721 -1.6178 -0.0802 -2.4775
14764TIP3    H265708   4.475   1.768  14.717 -0.6277  0.2131 -3.0224
14765TIP3   OH265709   0.257   4.303   4.294  0.0044  0.2276 -0.0385
14765TIP3    H165710   0.230   4.295   4.386 -1.0959  3.1250 -0.0522
14765TIP3    H265711   0.181   4.273   4.244  1.1330 -2.7784 -0.0533
14766TIP3   OH265712   5.552   0.955  12.452  0.3024 -0.2897 -0.2822
14766TIP3    H165713   5.458   0.953  12.468  0.5522 -1.0468  1.1947
14766TIP3    H265714   5.564   0.899  12.375 -0.6616  1.4685 -1.7550
14767TIP3   OH265715   5.610   4.343  15.597  0.0615 -1.3040 -0.0281
14767TIP3    H165716   5.520   4.311  15.600 -0.1447 -1.0602 -2.4937
14767TIP3    H265717   5.605   4.431  15.636 -0.6977 -1.4492  0.2170
14768TIP3   OH265718   4.597   1.751   0.905  0.3916 -0.4431  0.3001
14768TIP3    H165719   4.609   1.663   0.870  1.9552 -0.2888  0.4239
14768TIP3    H265720   4.588   1.738   1.000 -0.8238 -0.5868  0.1747
14769TIP3   OH265721   1.604   1.720   5.897  0.1971  0.8386  0.7134
14769TIP3    H165722   1.562   1.637   5.874 -0.2091  1.0963  0.5167
14769TIP3    H265723   1.534   1.772   5.936  0.1508  1.5492 -0.3075
14770TIP3   OH265724   3.339   3.681  14.755  0.0214  0.2047 -0.9919
14770TIP3    H165725   3.415   3.650  14.707 -0.7853  1.5601 -3.2363
14770TIP3    H265726   3.364   3.768  14.787 -0.1289  0.1098 -0.6076
14771TIP3   OH265727   4.862   5.418   2.620 -0.1650 -0.3361  0.0787
14771TIP3    H165728   4.781   5.425   2.568  0.5668 -0.0024 -1.0523
14771TIP3    H265729   4.919   5.362   2.567  1.3998  1.7970 -0.5389
14772TIP3   OH265730   2.752   5.520   0.832  0.4801  0.1296  0.1186
14772TIP3    H165731   2.828   5.532   0.890 -1.5020  1.8757  2.4926
14772TIP3    H265732   2.730   5.428   0.840  2.0240 -0.2766 -0.1849
14773TIP3   OH265733   0.661   0.218  12.008  0.7290 -0.1490 -0.4506
14773TIP3    H165734   0.576   0.263  12.012  0.5107 -0.4549 -1.5638
14773TIP3    H265735   0.699   0.245  11.924  1.4392 -0.5441 -0.2626
14774TIP3   OH265736   5.417   4.810  15.164  0.4831 -0.2000  0.9241
14774TIP3    H165737   5.423   4.837  15.072 -1.6804 -1.2061  0.4546
14774TIP3    H265738   5.503   4.829  15.200  1.4148  0.0733 -1.3532
14775TIP3   OH265739   1.216   4.103  16.492  0.0792  0.0827  0.6381
14775TIP3    H165740   1.267   4.025  16.472  2.1810  1.5298  0.1109
14775TIP3    H265741   1.201   4.099  16.586 -0.2397 -1.1739  0.5413
14776TIP3   OH265742   4.835   5.421  15.511  0.6686  0.0611  0.3111
14776TIP3    H165743   4.799   5.420  15.600  0.0917 -0.8579  0.0769
14776TIP3    H265744   4.767   5.379  15.457  1.8966 -1.3156 -0.2090
14777TIP3   OH265745   0.851   2.665  16.973 -0.0090  0.0551 -0.1311
14777TIP3    H165746   0.791   2.711  16.914  0.2084 -0.6625 -0.9215
14777TIP3    H265747   0.874   2.730  17.040 -0.8145  0.6570 -0.4335
14778TIP3   OH265748   5.283   6.362  16.030 -0.4170  0.9139  0.1125
14778TIP3    H165749   5.358   6.314  16.065 -0.8990  0.7436  0.9123
14778TIP3    H265750   5.240   6.399  16.107 -0.8955  1.4032 -0.3846
14779TIP3   OH265751   1.301   0.051   0.397  0.1690  0.3961  0.7676
14779TIP3    H165752   1.229   0.041   0.334 -0.3219 -0.5654  1.4698
14779TIP3    H265753   1.375   0.008   0.355  0.4785  1.7785 -0.1571
14780TIP3   OH265754   1.598   1.752  15.911  0.4556 -0.8417  0.2934
14780TIP3    H165755   1.559   1.789  15.832  0.3980 -1.0683  0.2124
14780TIP3    H265756   1.627   1.827  15.962  2.0665 -0.7320 -0.7323
14781TIP3   OH265757   2.526   4.049   4.821  0.0390  0.5923  0.2101
14781TIP3    H165758   2.549   4.141   4.806  0.7975  0.1861 -1.2711
14781TIP3    H265759   2.431   4.045   4.808  0.0395  1.1183  0.0420
14782TIP3   OH265760   2.477   2.359  14.386 -0.3968 -0.0008  0.2735
14782TIP3    H165761   2.489   2.323  14.474 -0.0455 -1.1503 -0.2335
14782TIP3    H265762   2.542   2.314  14.333  0.1420  1.4855 -0.3702
14783TIP3   OH265763   4.634   6.012  11.494 -0.5920  0.6749 -0.5190
14783TIP3    H165764   4.712   6.036  11.544 -0.8544 -0.1602  0.2911
14783TIP3    H265765   4.653   6.042  11.405  0.4032  1.0127 -0.1996
14784TIP3   OH265766   1.679   2.127  16.354  0.0408 -0.0031  0.1017
14784TIP3    H165767   1.615   2.198  16.353 -0.8740 -0.8214 -1.5320
14784TIP3    H265768   1.724   2.134  16.270  1.3694 -0.0883  0.7968
14785TIP3   OH265769   3.247   4.368  10.427 -0.4574 -0.1804  0.9987
14785TIP3    H165770   3.179   4.323  10.478  0.2168 -1.4037  0.8162
14785TIP3    H265771   3.327   4.318  10.443  0.1538  0.5376  0.2315
14786TIP3   OH265772   3.717   2.159  16.938 -0.0708 -0.0697 -0.4725
14786TIP3    H165773   3.696   2.159  16.844  0.9371  0.5971 -0.7018
14786TIP3    H265774   3.671   2.235  16.973  0.9141  0.6358 -0.7278
14787TIP3   OH265775   6.658   2.379   4.335  0.3238  0.5080  0.0194
14787TIP3    H165776   6.623   2.292   4.317  0.3154  0.7305 -1.1051
14787TIP3    H265777   6.625   2.433   4.263  0.1791  1.4771  0.8078
14788TIP3   OH265778   6.641   6.524   1.568 -0.2259  0.2189 -0.3204
14788TIP3    H165779   6.664   6.585   1.638 -2.3906 -0.2277  0.8197
14788TIP3    H265780   6.716   6.527   1.508  0.3836  2.8034  0.5077
14789TIP3   OH265781   0.240   2.625  14.727  0.5832 -0.1539 -0.0638
14789TIP3    H165782   0.330   2.597  14.745  1.5059 -0.4931 -4.4659
14789TIP3    H265783   0.250   2.714  14.692 -1.0670  0.7072  1.5878
14790TIP3   OH265784   0.677   0.529   4.231  0.7846  0.2889  0.3478
14790TIP3    H165785   0.648   0.613   4.267  0.0328 -0.3911  1.3353
14790TIP3    H265786   0.607   0.502   4.172  0.5862 -0.1037  0.7592
14791TIP3   OH265787   5.821   4.127  16.837  0.1940 -0.2895 -0.1011
14791TIP3    H165788   5.784   4.185  16.903  1.1305  0.2487 -0.0371
14791TIP3    H265789   5.838   4.045  16.883  0.1575 -0.1573  0.1473
14792TIP3   OH265790   4.288   3.115  12.883  0.3322 -0.3260 -0.0924
14792TIP3    H165791   4.347   3.162  12.823 -0.3477  0.8093  0.1081
14792TIP3    H265792   4.208   3.102  12.832  0.4364 -1.0606 -0.0662
14793TIP3   OH265793   6.063   5.906   2.405 -0.1405 -0.1928  1.0790
14793TIP3    H165794   6.072   5.935   2.314  0.9885  0.4171  1.3771
14793TIP3    H265795   6.076   5.812   2.401 -1.4405 -0.3651  0.4346
14794TIP3   OH265796   0.004   1.840   3.770  0.1490  0.0770  0.2757
14794TIP3    H165797   0.008   1.746   3.756 -0.6425 -0.3100  2.5443
14794TIP3    H265798   0.074   1.859   3.832  1.0199  1.1640 -1.0139
14795TIP3   OH265799   1.392   2.604  16.188  0.0335 -0.3308 -0.1570
14795TIP3    H165800   1.469   2.603  16.132  0.8873 -0.3746  0.9931
14795TIP3    H265801   1.356   2.692  16.178 -0.3503 -0.6258 -1.4570
14796TIP3   OH265802   1.110   3.684   3.885  0.1142 -0.4755  0.0121
14796TIP3    H165803   1.032   3.685   3.829  1.5624 -0.2851 -2.0435
14796TIP3    H265804   1.112   3.772   3.924 -1.5942 -1.0168  1.3807
14797TIP3   OH265805   2.491   3.135   5.989 -0.4094  0.2860  0.2010
14797TIP3    H165806   2.457   3.059   5.941 -0.8401  1.4766 -1.4108
14797TIP3    H265807   2.419   3.164   6.044 -0.9536  0.8136 -0.7785
14798TIP3   OH265808   5.766   3.064   5.256  0.1276  0.0782 -0.2315
14798TIP3    H165809   5.670   3.069   5.249  0.1572 -0.3634 -1.0209
14798TIP3    H265810   5.794   3.156   5.253 -0.2650  0.2100 -0.0226
14799TIP3   OH265811   3.237   4.131   2.277 -0.0582 -0.8546 -0.1283
14799TIP3    H165812   3.275   4.069   2.215 -1.9762 -0.0881 -2.1084
14799TIP3    H265813   3.189   4.193   2.223 -0.5594  0.6977  2.0348
14800TIP3   OH265814   3.507   3.484  14.332 -0.6192 -0.1287 -0.0439
14800TIP3    H165815   3.532   3.539  14.257 -1.3463  0.4762  0.1513
14800TIP3    H265816   3.518   3.394  14.300  0.2215  0.1314 -0.4888
14801TIP3   OH265817   4.348   6.173  15.021  0.0403 -0.0472  0.0017
14801TIP3    H165818   4.380   6.165  14.931  2.2550  1.3115  0.6160
14801TIP3    H265819   4.396   6.247  15.057 -0.9421 -0.4582  2.2591
14802TIP3   OH265820   2.106   0.246   3.963 -0.2983  0.4743 -0.0351
14802TIP3    H165821   2.109   0.339   3.984 -1.0838  0.3902  0.4607
14802TIP3    H265822   2.020   0.233   3.925 -0.4570 -0.1825  0.5346
14803TIP3   OH265823   3.083   1.729  12.181 -0.6964  0.4148 -0.2887
14803TIP3    H165824   3.033   1.735  12.262 -0.0689 -1.5795  0.2696
14803TIP3    H265825   3.062   1.810  12.134 -0.1376  2.1974  2.3611
14804TIP3   OH265826   5.672   3.305   3.145  0.2489 -0.8157 -0.3609
14804TIP3    H165827   5.640   3.269   3.063  1.3104 -1.2911 -0.5822
14804TIP3    H265828   5.676   3.230   3.205  2.4078 -1.1028 -0.8056
14805TIP3   OH265829   2.729   6.638   5.009 -0.2621  0.0312 -0.5699
14805TIP3    H165830   2.784   6.656   4.933 -1.4921  0.0878 -1.4655
14805TIP3    H265831   2.670   6.569   4.979  0.9898 -1.8546  1.1768
14806TIP3   OH265832   3.405   4.343  12.484  0.1760  0.0195 -0.6163
14806TIP3    H165833   3.310   4.348  12.496 -0.0043 -1.9346 -0.9930
14806TIP3    H265834   3.441   4.389  12.560 -1.0675  2.8233 -1.6889
14807TIP3   OH265835   1.772   1.458   3.903 -0.0387 -0.4281  0.1724
14807TIP3    H165836   1.785   1.371   3.939 -1.8376 -0.5899  0.4723
14807TIP3    H265837   1.717   1.503   3.967  0.8559  0.9351  0.0129
14808TIP3   OH265838   4.975   1.548   3.288  0.8724  0.0081 -0.4196
14808TIP3    H165839   4.904   1.522   3.229  1.1732 -3.1141  0.4767
14808TIP3    H265840   4.966   1.643   3.297 -0.7875  0.1835 -3.3740
14809TIP3   OH265841   1.430   5.171   0.645  0.5639 -0.3933 -0.4088
14809TIP3    H165842   1.414   5.195   0.736  0.5361  1.6031 -0.9099
14809TIP3    H265843   1.343   5.176   0.603  0.6511 -0.8363 -0.6464
14810TIP3   OH265844   4.646   3.768  16.875 -0.4666 -0.2898 -0.1010
14810TIP3    H165845   4.741   3.782  16.879 -0.5137 -0.1505  0.5193
14810TIP3    H265846   4.623   3.789  16.785  0.1809 -0.8496 -0.4036
14811TIP3   OH265847   5.845   1.702  16.094 -0.1671  0.3360  0.5567
14811TIP3    H165848   5.783   1.648  16.045  1.3734  0.8592 -2.0699
14811TIP3    H265849   5.860   1.779  16.039  0.0367  1.9945  2.8177
14812TIP3   OH265850   1.594   2.721  15.807 -0.2149 -0.2361 -0.0132
14812TIP3    H165851   1.586   2.700  15.900  0.4650  2.7687  0.7749
14812TIP3    H265852   1.511   2.694  15.769 -0.0636 -2.5680  1.2243
14813TIP3   OH265853   6.179   3.205  17.149  0.5810  0.4932 -0.8780
14813TIP3    H165854   6.165   3.252  17.231  1.3330 -0.3193 -0.2719
14813TIP3    H265855   6.259   3.243  17.113  0.8265  0.1427 -0.7113
14814TIP3   OH265856   2.154   3.592   4.701 -0.2943  0.2751 -0.0150
14814TIP3    H165857   2.103   3.512   4.710 -2.2814  1.6212  1.0431
14814TIP3    H265858   2.172   3.598   4.607 -0.7060 -1.0453 -0.1947
14815TIP3   OH265859   4.976   4.597   0.137 -0.3281 -1.2039  0.9077
14815TIP3    H165860   5.044   4.628   0.198 -1.8579 -0.4751  2.2866
14815TIP3    H265861   5.004   4.629   0.052  0.1424  0.6279  1.7326
14816TIP3   OH265862   1.488   0.227   4.766 -0.4440 -0.0073  0.5473
14816TIP3    H165863   1.564   0.278   4.739 -0.0531  0.0731  1.7787
14816TIP3    H265864   1.487   0.152   4.706 -1.3305  1.6655 -1.6054
14817TIP3   OH265865   2.116   1.695   1.966  0.0466 -0.4357 -0.0042
14817TIP3    H165866   2.149   1.759   1.903  0.3095 -1.2834 -0.7280
14817TIP3    H265867   2.039   1.738   2.005  0.6895  0.6420  0.0973
14818TIP3   OH265868   0.252   1.095  10.960 -0.3060  0.2676  0.5634
14818TIP3    H165869   0.171   1.064  11.001  0.5520 -0.6979  1.5597
14818TIP3    H265870   0.224   1.134  10.877 -1.4274 -3.6240 -1.0277
14819TIP3   OH265871   2.142   4.801  15.334 -0.6556 -0.6691  1.1186
14819TIP3    H165872   2.154   4.721  15.386 -2.2545 -1.6795 -0.0323
14819TIP3    H265873   2.146   4.772  15.243  0.9793  0.9149  0.6445
14820TIP3   OH265874   2.074   2.802   3.131 -0.1205 -0.1520  0.4876
14820TIP3    H165875   2.132   2.867   3.091  0.4261 -1.7874 -1.4590
14820TIP3    H265876   1.997   2.800   3.075 -0.7610 -0.1438  1.3610
14821TIP3   OH265877   2.738   4.335   5.335  0.3272  0.5335  0.1129
14821TIP3    H165878   2.765   4.290   5.416  1.4087  0.4553 -0.2849
14821TIP3    H265879   2.747   4.428   5.355  1.0215  0.5021 -0.0701
14822TIP3   OH265880   3.661   5.074   0.456  0.0459 -0.0576 -0.7626
14822TIP3    H165881   3.586   5.074   0.396  0.1934 -0.8620 -0.9577
14822TIP3    H265882   3.622   5.085   0.543 -0.0658  2.6043 -1.0958
14823TIP3   OH265883   5.980   2.713  14.282 -0.3354 -0.1315  0.2241
14823TIP3    H165884   6.002   2.787  14.338  0.3383 -0.0329 -0.1740
14823TIP3    H265885   6.064   2.682  14.248 -0.6241 -1.0002  0.2894
14824TIP3   OH265886   5.646   2.470  14.176 -0.1688  0.1396  0.0317
14824TIP3    H165887   5.561   2.432  14.196 -0.0171 -0.9451 -1.3368
14824TIP3    H265888   5.632   2.520  14.096  0.5589 -0.3375 -0.3960
14825TIP3   OH265889   4.527   2.003   1.751  0.4612  0.1879  0.8157
14825TIP3    H165890   4.435   1.988   1.728  0.3559  0.6857  0.9049
14825TIP3    H265891   4.535   2.099   1.754  0.2175  0.1537  3.8482
14826TIP3   OH265892   5.012   2.924   5.200 -0.3653 -0.5823  0.3594
14826TIP3    H165893   4.975   2.839   5.175  0.6056 -0.9879  0.2508
14826TIP3    H265894   4.964   2.949   5.279 -0.9337 -1.0476  0.1675
14827TIP3   OH265895   2.504   3.085   6.825 -0.1223 -0.6806  0.4034
14827TIP3    H165896   2.494   2.995   6.858 -1.7740 -0.6143  0.1474
14827TIP3    H265897   2.415   3.111   6.800  0.2843  1.1267  0.7358
14828TIP3   OH265898   0.411   2.047  15.050 -0.0101 -0.1505 -0.8511
14828TIP3    H165899   0.448   1.998  15.123 -1.1532 -0.8502 -0.7302
14828TIP3    H265900   0.443   2.002  14.972  1.5058  0.8124 -0.8017
14829TIP3   OH265901   2.419   2.538   5.779 -0.2784  0.2169  0.3318
14829TIP3    H165902   2.399   2.509   5.690  2.1391 -1.9611  0.4399
14829TIP3    H265903   2.470   2.618   5.768  1.4794 -0.9603 -0.3549
14830TIP3   OH265904   6.560   3.387   2.922 -0.2045 -0.5203 -0.0887
14830TIP3    H165905   6.626   3.402   2.854 -0.4825  0.5575 -0.1260
14830TIP3    H265906   6.602   3.414   3.003 -0.4631 -0.1802 -0.0639
14831TIP3   OH265907   5.409   1.657   6.394  0.5304 -0.2430  0.3427
14831TIP3    H165908   5.447   1.576   6.429  0.8928 -0.1069  0.2618
14831TIP3    H265909   5.403   1.715   6.470  1.2217  0.0157  0.2054
14832TIP3   OH265910   2.062   3.696  16.630  0.0415 -0.6556  0.5671
14832TIP3    H165911   2.050   3.694  16.535 -0.3781  0.2135  0.5927
14832TIP3    H265912   1.991   3.753  16.661  0.1316 -1.0028  1.4046
14833TIP3   OH265913   6.331   3.544  12.387 -0.0230  0.0990 -0.2316
14833TIP3    H165914   6.337   3.488  12.464  2.1836  1.4127  0.5517
14833TIP3    H265915   6.381   3.497  12.320 -2.1028 -1.1398 -0.9716
14834TIP3   OH265916   5.673   6.623   4.449 -0.2730  0.1739 -0.4402
14834TIP3    H165917   5.622   6.690   4.403 -0.7419  0.0420 -0.1268
14834TIP3    H265918   5.756   6.666   4.470 -1.2205  1.2477  1.2727
14835TIP3   OH265919   1.676   4.031  14.158  0.5139  0.6551  0.5120
14835TIP3    H165920   1.769   4.037  14.183  0.7413  0.3425 -0.2408
14835TIP3    H265921   1.676   4.045  14.064 -0.4344  2.7740  0.7935
14836TIP3   OH265922   3.426   3.513   6.002  0.5592 -0.1108 -0.1502
14836TIP3    H165923   3.383   3.588   6.044  0.3665  0.9056 -2.1182
14836TIP3    H265924   3.470   3.468   6.074  1.6896  2.5732  0.9407
14837TIP3   OH265925   3.157   2.462  12.090  0.2874 -0.8094  0.3047
14837TIP3    H165926   3.117   2.549  12.101  0.9204 -0.5365  0.4278
14837TIP3    H265927   3.220   2.474  12.019 -0.5435 -1.4794 -0.5497
14838TIP3   OH265928   5.431   1.427   1.322  0.6435  0.1813  0.0598
14838TIP3    H165929   5.410   1.333   1.324 -0.0240  0.3325  0.4190
14838TIP3    H265930   5.515   1.434   1.367  0.3627 -0.1659  0.6482
14839TIP3   OH265931   5.427   0.468  15.509  0.1311  0.2330 -0.5258
14839TIP3    H165932   5.352   0.519  15.476 -0.1445  0.2853  0.1843
14839TIP3    H265933   5.491   0.472  15.438  0.1044  1.5529 -0.4943
14840TIP3   OH265934   1.938   4.793   3.003 -0.0755  0.4197 -0.6723
14840TIP3    H165935   2.033   4.790   2.995 -0.1856 -1.3757 -1.6466
14840TIP3    H265936   1.916   4.715   3.053 -1.1286  0.0430 -1.6876
14841TIP3   OH265937   6.055   5.362   0.296  0.1196 -0.1931 -0.3833
14841TIP3    H165938   6.051   5.449   0.256  0.2268 -0.5869 -1.2682
14841TIP3    H265939   6.059   5.301   0.222 -3.7270 -1.1820  0.0859
14842TIP3   OH265940   5.799   3.272  12.122  0.0603  0.0289  0.8744
14842TIP3    H165941   5.855   3.334  12.075 -1.0881  1.1971  1.0292
14842TIP3    H265942   5.814   3.291  12.214 -0.5970  0.3617  0.9159
14843TIP3   OH265943   5.137   4.956  13.093  0.2221 -0.2345 -0.1360
14843TIP3    H165944   5.148   4.980  13.001  0.1129  3.1471  0.6609
14843TIP3    H265945   5.224   4.962  13.131  0.2859 -1.7346 -0.0113
14844TIP3   OH265946   4.307   3.552   1.757 -0.4572 -0.0271 -0.1921
14844TIP3    H165947   4.258   3.515   1.830  1.5075 -3.3648 -0.4674
14844TIP3    H265948   4.293   3.491   1.685  0.9697  1.0001 -1.3868
14845TIP3   OH265949   3.014   3.991  14.114 -0.8164 -0.0141  0.4159
14845TIP3    H165950   3.025   4.086  14.115 -0.1300 -0.0909  0.8708
14845TIP3    H265951   2.976   3.971  14.200 -1.6670 -0.0747  0.0286
14846TIP3   OH265952   2.095   2.074   3.264 -0.2514 -0.1354 -0.2485
14846TIP3    H165953   2.184   2.080   3.298  0.8058 -0.5004 -2.8304
14846TIP3    H265954   2.090   2.143   3.198 -2.6165  1.2975  1.3657
14847TIP3   OH265955   0.971   2.536   1.154 -0.4701 -0.4679 -0.1057
14847TIP3    H165956   1.047   2.590   1.130 -0.7754  0.0166  0.0143
14847TIP3    H265957   0.928   2.518   1.070 -0.1274 -0.8924 -0.1942
14848TIP3   OH265958   0.037   5.422  11.312 -0.1747  0.0158  0.8177
14848TIP3    H165959  -0.031   5.357  11.325  0.9669 -1.0171  1.7236
14848TIP3    H265960   0.094   5.385  11.245 -0.1125  0.5525  0.5695
14849TIP3   OH265961   4.973   0.410   1.946  0.1140  0.5549 -0.1765
14849TIP3    H165962   4.904   0.440   1.886  0.2148 -0.2008 -0.6752
14849TIP3    H265963   5.055   0.426   1.898  0.4435  3.2161  1.1533
14850TIP3   OH265964   3.741   0.613  11.790 -0.6102  0.1480 -0.3751
14850TIP3    H165965   3.659   0.662  11.799 -0.0781  0.7547  1.2784
14850TIP3    H265966   3.720   0.526  11.826 -0.8312 -0.0380 -0.9504
14851TIP3   OH265967   3.078   0.669  14.081  0.7014  0.3153 -0.1056
14851TIP3    H165968   3.073   0.760  14.054  0.6279 -0.3126 -2.3348
14851TIP3    H265969   3.164   0.659  14.120  1.0427  1.1428 -0.6437
14852TIP3   OH265970   3.417   0.371  13.725  0.4337 -0.6028 -0.2804
14852TIP3    H165971   3.444   0.289  13.768  0.3935 -1.1416 -1.2638
14852TIP3    H265972   3.461   0.440  13.776  2.6576 -1.3814 -1.0745
14853TIP3   OH265973   4.788   2.198  13.105 -0.1232 -0.2225 -0.9310
14853TIP3    H165974   4.790   2.164  13.194  0.4578 -1.4763 -1.4058
14853TIP3    H265975   4.701   2.173  13.072 -0.3390  0.2435 -0.7154
14854TIP3   OH265976   0.374   2.706  16.827 -0.0630  0.0256  0.0241
14854TIP3    H165977   0.426   2.749  16.895 -0.9629 -0.4514  1.0188
14854TIP3    H265978   0.321   2.777  16.789 -0.3533  0.0951  0.5545
14855TIP3   OH265979   3.311   5.295  15.921  0.3197  0.0196  0.2941
14855TIP3    H165980   3.222   5.282  15.888  1.3006  0.3384 -2.6472
14855TIP3    H265981   3.299   5.338  16.005 -2.3028  0.4756 -0.2459
14856TIP3   OH265982   5.871   4.311   3.467 -0.7003 -0.1046  0.0686
14856TIP3    H165983   5.958   4.300   3.506 -0.6789  1.2819  0.4389
14856TIP3    H265984   5.811   4.308   3.541 -0.8537  0.2785 -0.0396
14857TIP3   OH265985   0.470   0.241  12.530 -0.2911 -0.8626  0.3436
14857TIP3    H165986   0.543   0.261  12.587 -0.7835  1.8569  0.0541
14857TIP3    H265987   0.498   0.269  12.443 -1.4135 -0.4587  0.1009
14858TIP3   OH265988   2.469   1.268   2.398 -0.6831  0.2132  0.1815
14858TIP3    H165989   2.439   1.351   2.361  0.9905  0.7573 -0.0318
14858TIP3    H265990   2.481   1.211   2.322 -0.1514  0.3509  0.1593
14859TIP3   OH265991   1.984   5.745  16.268 -0.4441 -0.4831  0.5828
14859TIP3    H165992   1.938   5.821  16.233  0.6398  0.3430  0.9208
14859TIP3    H265993   2.053   5.727  16.205 -0.5006 -0.9912  0.6609
14860TIP3   OH265994   6.607   0.649   1.660 -0.0581 -0.0812 -0.0851
14860TIP3    H165995   6.602   0.558   1.689 -1.1427 -0.4606 -1.4378
14860TIP3    H265996   6.522   0.687   1.685 -0.1636  0.1665 -0.8129
14861TIP3   OH265997   3.139   3.500  12.018 -0.0674 -0.1702 -0.6619
14861TIP3    H165998   3.088   3.572  11.980  1.2284  0.8256 -0.5524
14861TIP3    H265999   3.229   3.521  11.996  0.4546 -0.9664  0.7116
14862TIP3   OH266000   5.285   2.871   5.008  0.9229  0.5045  0.3544
14862TIP3    H166001   5.339   2.792   5.013  1.0636  0.6173  0.6224
14862TIP3    H266002   5.296   2.914   5.093  1.9502  1.5323 -0.2717
14863TIP3   OH266003   4.117   4.604  11.357 -0.9508  0.1021  0.2146
14863TIP3    H166004   4.188   4.566  11.409 -0.8986 -2.8418 -1.9138
14863TIP3    H266005   4.163   4.651  11.287 -1.0915  1.7026  1.1471
14864TIP3   OH266006   0.786   1.746  14.756 -0.4727  0.1917 -0.2131
14864TIP3    H166007   0.836   1.794  14.690 -1.3119  0.8424 -0.3908
14864TIP3    H266008   0.787   1.655  14.725  2.8160 -0.2900  1.1845
14865TIP3   OH266009   6.482   0.916   2.284 -0.0712 -0.3032  0.3124
14865TIP3    H166010   6.477   0.976   2.358 -1.4505  0.8696 -0.7267
14865TIP3    H266011   6.551   0.952   2.229 -0.7346  0.2032 -0.1918
14866TIP3   OH266012   0.600   1.203  12.481  0.3350 -0.1462  0.0997
14866TIP3    H166013   0.529   1.225  12.542 -0.7846 -0.2710 -1.1435
14866TIP3    H266014   0.556   1.179  12.400  1.9197  2.5648 -1.6158
14867TIP3   OH266015   1.954   2.723  14.874  0.2679 -0.4995 -0.3667
14867TIP3    H166016   1.860   2.721  14.891  0.5618  0.5071  1.4377
14867TIP3    H266017   1.974   2.815  14.860  1.4240 -0.3574  1.9317
14868TIP3   OH266018   1.458   5.126   3.869  0.4411  0.1233 -0.2411
14868TIP3    H166019   1.469   5.161   3.780 -1.5857  1.3878 -0.0141
14868TIP3    H266020   1.412   5.043   3.857  2.1866 -0.8365 -0.5145
14869TIP3   OH266021   0.772   3.654  12.784  0.0736 -0.6693  0.2629
14869TIP3    H166022   0.745   3.564  12.801  1.1412 -1.0268  0.1322
14869TIP3    H266023   0.855   3.646  12.736  0.8270  0.3880  1.3445
14870TIP3   OH266024   4.398   5.921  16.369  0.6064  0.3268 -0.4972
14870TIP3    H166025   4.494   5.924  16.365  0.7191 -2.7588 -1.6351
14870TIP3    H266026   4.378   5.928  16.462  1.9398  0.7554 -0.2214
14871TIP3   OH266027   5.261   1.123   4.383  0.2171 -0.9040  0.0134
14871TIP3    H166028   5.343   1.141   4.336  0.7925 -0.6604  1.0764
14871TIP3    H266029   5.212   1.065   4.325  0.2291  0.6111 -1.5652
14872TIP3   OH266030   6.255   0.326  16.054  0.1342  0.7303 -0.4138
14872TIP3    H166031   6.258   0.324  15.958 -0.0090 -1.2959 -0.3931
14872TIP3    H266032   6.342   0.356  16.079 -0.3508  2.8480 -1.2043
14873TIP3   OH266033   0.003   3.065   0.107 -0.3427  0.5608  0.7638
14873TIP3    H166034  -0.036   3.096   0.025 -1.5464  0.4113  1.2675
14873TIP3    H266035  -0.032   2.976   0.117  2.1672 -0.5503 -0.0827
14874TIP3   OH266036   0.287   5.036   3.299 -0.4839 -0.0880 -0.3906
14874TIP3    H166037   0.363   4.991   3.337 -1.6534  0.4723  2.7499
14874TIP3    H266038   0.222   4.966   3.286 -0.6528 -0.0391  0.1732
14875TIP3   OH266039   1.248   1.196  12.444 -0.9407 -0.6948  0.6673
14875TIP3    H166040   1.319   1.145  12.483 -0.7666  1.3675  3.1554
14875TIP3    H266041   1.172   1.178  12.498 -1.4772 -0.2171  0.0886
14876TIP3   OH266042   5.547   2.416  13.127  0.1642  0.6712  0.1872
14876TIP3    H166043   5.576   2.440  13.215  0.8530 -1.2450  0.5058
14876TIP3    H266044   5.615   2.358  13.095 -0.5553  0.6221 -1.2639
14877TIP3   OH266045   2.078   6.321   2.781  0.1678  0.3339  1.0429
14877TIP3    H166046   2.153   6.327   2.723  0.4920  0.3937  1.4637
14877TIP3    H266047   2.014   6.267   2.734  0.9482 -0.7295  1.1912
14878TIP3   OH266048   2.277   6.443  10.581  0.4573 -0.0483 -0.7852
14878TIP3    H166049   2.220   6.371  10.609 -0.6560  0.2404 -2.2503
14878TIP3    H266050   2.356   6.434  10.635 -0.2733 -1.4926  0.0548
14879TIP3   OH266051   4.982   4.496  13.114 -0.4077  0.5089 -0.3395
14879TIP3    H166052   4.950   4.406  13.118 -2.3100  1.1578 -0.4546
14879TIP3    H266053   5.005   4.517  13.205  2.0791 -0.7692 -0.6204
14880TIP3   OH266054   1.455   6.605  14.533  0.3908  0.1919 -0.5948
14880TIP3    H166055   1.455   6.511  14.512  1.2873  0.1256 -0.3073
14880TIP3    H266056   1.363   6.625  14.550  0.2164 -0.6861 -0.4536
14881TIP3   OH266057   0.433   4.360   5.135 -0.6283 -0.2721 -0.0824
14881TIP3    H166058   0.380   4.398   5.066  0.0829  2.1695  0.6707
14881TIP3    H266059   0.510   4.417   5.140  0.6009 -1.9693  0.9212
14882TIP3   OH266060   1.387   4.860  15.490  0.1261  0.5739  0.0212
14882TIP3    H166061   1.412   4.875  15.399  0.5498  1.1888  0.2367
14882TIP3    H266062   1.354   4.945  15.520  0.0883  0.3992  0.4755
14883TIP3   OH266063   2.956   1.794  12.399  0.0747 -0.0056 -0.3231
14883TIP3    H166064   3.001   1.877  12.381  1.4752 -0.6088  0.3275
14883TIP3    H266065   2.942   1.795  12.493 -3.0831  1.0614 -0.7712
14884TIP3   OH266066   0.451   1.767   1.453  0.5807 -0.1936 -0.1925
14884TIP3    H166067   0.397   1.830   1.502 -0.1179 -0.7846 -0.1825
14884TIP3    H266068   0.406   1.758   1.369 -0.1763 -1.8118  0.3691
14885TIP3   OH266069   4.863   2.965  10.655  0.6995  0.4073 -0.0829
14885TIP3    H166070   4.779   2.958  10.610  0.8114 -0.1086 -0.2160
14885TIP3    H266071   4.843   3.011  10.737  0.5902  1.8690 -0.9084
14886TIP3   OH266072   5.560   2.445  11.573  0.4151 -0.5207  0.3902
14886TIP3    H166073   5.518   2.379  11.517 -0.3440  1.6192 -1.6087
14886TIP3    H266074   5.510   2.441  11.655 -0.6689 -1.3069 -0.2903
14887TIP3   OH266075   6.783   6.040   4.291  0.5532 -0.1120 -0.4679
14887TIP3    H166076   6.828   5.991   4.360  0.7684 -0.3239 -0.7539
14887TIP3    H266077   6.690   6.032   4.313  0.7128  1.2711  0.7402
14888TIP3   OH266078   5.919   3.187  12.981 -0.1086  0.2760  0.1389
14888TIP3    H166079   5.862   3.216  12.910 -1.8809 -1.7812  0.6937
14888TIP3    H266080   6.004   3.174  12.939 -1.4892 -2.4239 -1.9977
14889TIP3   OH266081   2.076   2.634  15.112 -0.0269  0.6489  0.2300
14889TIP3    H166082   2.037   2.668  15.031  0.3112  1.6688  0.4842
14889TIP3    H266083   2.014   2.569  15.143 -0.9314  1.3666 -0.0288
14890TIP3   OH266084   1.744   5.054  11.175  0.2548 -0.2904  0.0572
14890TIP3    H166085   1.837   5.058  11.195  0.4715  2.4616 -1.2458
14890TIP3    H266086   1.731   4.966  11.139  2.5274 -0.4105 -0.5737
14891TIP3   OH266087   6.699   6.174  14.307  0.3385 -0.2496  0.3385
14891TIP3    H166088   6.771   6.115  14.286 -1.9114 -2.4856 -1.3549
14891TIP3    H266089   6.640   6.168  14.232 -2.9621 -0.5723  2.8140
14892TIP3   OH266090   4.923   2.928  15.001 -0.2703  0.2718  0.1047
14892TIP3    H166091   5.005   2.905  15.045  0.6831  1.0626 -1.2171
14892TIP3    H266092   4.862   2.858  15.025  1.0409 -0.7808  0.4050
14893TIP3   OH266093   6.332   1.941  16.018  0.1660  0.8261 -0.1286
14893TIP3    H166094   6.404   1.935  16.081  0.4638 -0.1096 -0.5470
14893TIP3    H266095   6.266   1.993  16.063 -0.0944 -0.7990  1.4149
14894TIP3   OH266096   2.923   1.288   1.903  0.0192  0.1230  0.6904
14894TIP3    H166097   2.914   1.268   1.997 -0.3088  0.3136  0.6995
14894TIP3    H266098   2.865   1.225   1.860 -1.2000  1.1922  0.7335
14895TIP3   OH266099   2.809   5.645   3.789 -0.1438  0.6036  0.0622
14895TIP3    H166100   2.894   5.677   3.819 -0.3381  2.0257 -0.8372
14895TIP3    H266101   2.827   5.558   3.752  1.2003  1.5243 -1.5160
14896TIP3   OH266102   1.045   1.336   4.956 -0.3078 -0.0764 -0.1997
14896TIP3    H166103   1.027   1.419   5.001  0.9522  0.9584 -1.5362
14896TIP3    H266104   0.968   1.282   4.973 -1.9341  1.9952 -0.7521
14897TIP3   OH266105   2.508   5.501  11.041  0.0598 -0.1002  0.4413
14897TIP3    H166106   2.562   5.422  11.045  1.4143  0.6996 -1.1879
14897TIP3    H266107   2.548   5.560  11.105  1.0479  0.4213 -0.6299
14898TIP3   OH266108   6.378   0.417  11.895  0.2559 -0.3029  0.2732
14898TIP3    H166109   6.338   0.374  11.970 -0.9710  0.5890  0.1327
14898TIP3    H266110   6.399   0.345  11.835  0.0710 -0.8925  0.9074
14899TIP3   OH266111   3.951   2.823   0.774  0.2602 -0.0805  0.1607
14899TIP3    H166112   3.959   2.860   0.686 -0.9709  2.3262  1.0143
14899TIP3    H266113   3.988   2.735   0.767  3.2791  1.2790 -1.9885
14900TIP3   OH266114   3.953   5.254   3.761 -0.4037  0.0790 -0.4537
14900TIP3    H166115   3.980   5.166   3.732  0.4586 -0.2996  1.3836
14900TIP3    H266116   4.032   5.307   3.753  0.4163 -0.5148  2.9668
14901TIP3   OH266117   3.801   2.077   3.536  0.1013 -0.1345 -0.5338
14901TIP3    H166118   3.772   2.079   3.444 -0.6999  2.8932 -0.2822
14901TIP3    H266119   3.725   2.044   3.584 -0.0707 -0.1116 -0.7869
14902TIP3   OH266120   2.545   4.173   1.948 -0.4973 -0.2614  0.5097
14902TIP3    H166121   2.467   4.124   1.922  0.6481 -0.8408 -1.9948
14902TIP3    H266122   2.604   4.107   1.983 -0.8892  0.1009  1.8900
14903TIP3   OH266123   6.120   2.029   0.717 -0.0137  0.2630 -0.4512
14903TIP3    H166124   6.183   2.023   0.789  0.7688  0.1369 -1.1340
14903TIP3    H266125   6.048   1.973   0.743  1.5283 -2.0662 -1.0048
14904TIP3   OH266126   3.000   2.439   2.260  0.3026  0.5963  0.5313
14904TIP3    H166127   3.005   2.382   2.336  2.6934 -1.1884 -0.8844
14904TIP3    H266128   3.068   2.406   2.201 -1.1619  2.2296 -2.1647
14905TIP3   OH266129   2.825   4.330   3.961  0.0765 -0.5273 -0.4285
14905TIP3    H166130   2.789   4.348   4.048 -3.5318  0.0727 -1.9633
14905TIP3    H266131   2.776   4.254   3.930  2.5992 -1.8599 -1.2482
14906TIP3   OH266132   5.840   2.757   1.922  0.1319 -0.5109  0.2690
14906TIP3    H166133   5.935   2.755   1.928  0.2757  2.3517 -0.2849
14906TIP3    H266134   5.818   2.684   1.863  2.0496 -0.4664 -0.5481
14907TIP3   OH266135   2.813   4.709  12.638  0.4574  0.1086 -0.3691
14907TIP3    H166136   2.800   4.716  12.544 -1.0960 -0.5891 -0.2227
14907TIP3    H266137   2.767   4.785  12.674 -1.1587 -1.0309 -0.0036
14908TIP3   OH266138   6.275   5.272   4.175 -0.0217  0.2685  0.1792
14908TIP3    H166139   6.304   5.182   4.182  0.1578  0.3974  1.1133
14908TIP3    H266140   6.183   5.271   4.204 -0.1842  0.2923 -0.3305
14909TIP3   OH266141   1.437   0.872   2.409  0.0907 -0.0812 -0.4671
14909TIP3    H166142   1.341   0.863   2.403 -0.1425  1.2956  0.8955
14909TIP3    H266143   1.470   0.784   2.391 -1.3465 -0.2132 -2.5604
14910TIP3   OH266144   0.902   4.701   2.725  0.0641 -0.6322  0.0216
14910TIP3    H166145   0.873   4.756   2.798 -0.6980 -0.4327 -0.4341
14910TIP3    H266146   0.952   4.760   2.669 -0.4194 -0.4907 -0.2641
14911TIP3   OH266147   3.966   6.196  10.672  0.1069 -0.2271  0.3115
14911TIP3    H166148   4.051   6.189  10.716  0.4366  2.0627  0.0734
14911TIP3    H266149   3.979   6.151  10.589  0.7967 -0.6920  0.6603
14912TIP3   OH266150   6.704   2.660  14.056  0.2564  0.3402  0.4747
14912TIP3    H166151   6.724   2.724  13.988 -0.5347  0.4567  0.3527
14912TIP3    H266152   6.620   2.688  14.092 -0.7406 -1.3846 -0.4592
14913TIP3   OH266153   6.178   3.238   4.067 -0.0018 -0.3494 -0.2039
14913TIP3    H166154   6.146   3.270   4.151 -0.1271 -0.4098 -0.2282
14913TIP3    H266155   6.107   3.256   4.006 -0.8994 -2.4922  0.1595
14914TIP3   OH266156   1.175   4.551  14.604 -0.5659 -0.1700  0.1133
14914TIP3    H166157   1.106   4.616  14.590  0.4817  0.6036 -1.5352
14914TIP3    H266158   1.227   4.553  14.524 -0.0615 -2.5051  0.3409
14915TIP3   OH266159   0.984   4.959  11.837  0.1349 -0.3206  0.1461
14915TIP3    H166160   1.036   4.992  11.764 -1.3755 -0.8684 -1.2106
14915TIP3    H266161   0.895   4.953  11.803 -0.3587 -1.9067  1.5981
14916TIP3   OH266162   4.639   6.776   0.833 -0.1869 -0.4101 -0.7980
14916TIP3    H166163   4.684   6.800   0.752  1.0671 -1.3335 -0.4075
14916TIP3    H266164   4.577   6.709   0.807 -0.7279  0.2434 -1.2056
14917TIP3   OH266165   3.211   0.460  14.430  0.5156 -0.7961  0.1789
14917TIP3    H166166   3.254   0.524  14.374  0.1282 -1.2796 -0.6738
14917TIP3    H266167   3.261   0.379  14.417 -1.1445 -1.5780 -1.4573
14918TIP3   OH266168   3.832   5.033  10.755 -0.1307  0.0267  0.5312
14918TIP3    H166169   3.828   5.126  10.779 -0.2614  0.1361  0.0944
14918TIP3    H266170   3.755   4.994  10.796 -0.6502  0.3157 -0.1529
14919TIP3   OH266171   0.225   1.298   0.235  0.3386  0.1530  0.0830
14919TIP3    H166172   0.224   1.217   0.286 -1.3702  0.4792  0.6038
14919TIP3    H266173   0.155   1.287   0.171  0.4284  1.0135 -0.1750
14920TIP3   OH266174   4.272   0.983  13.380  0.2080  0.2640 -0.3067
14920TIP3    H166175   4.193   0.945  13.342  0.3959 -1.3967  0.9095
14920TIP3    H266176   4.241   1.032  13.456  0.4280 -1.2046  0.7494
14921TIP3   OH266177   3.025   6.747  12.533  0.3173  0.3039 -0.5598
14921TIP3    H166178   3.064   6.692  12.465 -2.0701  0.3458 -2.0135
14921TIP3    H266179   2.964   6.689  12.578  0.9309  0.6330  0.7018
14922TIP3   OH266180   2.874   5.396   1.880  0.2298 -0.7859  0.5896
14922TIP3    H166181   2.876   5.466   1.945 -1.3734  0.8682 -1.0925
14922TIP3    H266182   2.854   5.317   1.931  0.3395  0.2364  2.2765
14923TIP3   OH266183   0.448   1.666   3.133 -0.1242 -0.1706  0.0387
14923TIP3    H166184   0.445   1.587   3.079 -1.6264  0.3861 -0.6981
14923TIP3    H266185   0.412   1.735   3.078 -1.4451  0.4705  1.6476
14924TIP3   OH266186   0.067   2.565  11.413  0.0638 -0.1946  0.0099
14924TIP3    H166187   0.098   2.651  11.385 -0.3029  0.0398  0.3188
14924TIP3    H266188  -0.029   2.571  11.405  0.0207 -0.4748  0.3251
14925TIP3   OH266189   6.144   1.052   1.150 -0.1727  0.0859 -0.1029
14925TIP3    H166190   6.098   0.972   1.173  0.2588  0.0971  0.8171
14925TIP3    H266191   6.158   1.097   1.234  0.6950  0.5236 -0.4751
14926TIP3   OH266192   0.182   0.707   3.772 -0.1243 -0.2253 -0.3497
14926TIP3    H166193   0.179   0.666   3.858  1.0090  1.0684  0.3339
14926TIP3    H266194   0.265   0.677   3.734 -0.2881 -0.2307 -0.7126
14927TIP3   OH266195   4.513   3.399  11.275  0.0946  0.1981  0.4947
14927TIP3    H166196   4.462   3.340  11.218  0.1473 -0.2493  0.9139
14927TIP3    H266197   4.592   3.417  11.225 -1.2863  2.4106 -0.9995
14928TIP3   OH266198   3.067   5.879  14.799 -0.2087  0.7230 -0.2856
14928TIP3    H166199   2.997   5.816  14.782  0.8999 -0.7883  0.6983
14928TIP3    H266200   3.116   5.884  14.717  0.3014 -0.4613 -0.0570
14929TIP3   OH266201   5.609   1.210  15.428 -0.3543 -0.2259  0.4530
14929TIP3    H166202   5.573   1.298  15.413  0.6480  0.1298  0.1366
14929TIP3    H266203   5.565   1.155  15.363 -0.2879  0.2229  0.0294
14930TIP3   OH266204   2.967   0.590  16.806 -0.2609 -0.3645 -0.3902
14930TIP3    H166205   2.883   0.570  16.848  0.1235 -1.3222 -0.0422
14930TIP3    H266206   2.947   0.657  16.741 -1.5088 -1.4074 -1.1120
14931TIP3   OH266207   5.680   3.409   5.145  0.1658  0.3351  0.1713
14931TIP3    H166208   5.647   3.473   5.208  1.6539  0.7168  0.5861
14931TIP3    H266209   5.763   3.380   5.181  1.7112  1.5500 -2.2518
14932TIP3   OH266210   0.275   1.189   5.181 -0.4463 -0.2050 -0.5816
14932TIP3    H166211   0.336   1.228   5.120  1.5670  1.0970  2.1635
14932TIP3    H266212   0.273   1.096   5.158  1.2862  0.0409 -1.7804
14933TIP3   OH266213   1.478   6.289   0.390  0.1444  0.2051  0.1470
14933TIP3    H166214   1.478   6.194   0.383  0.4198  0.2487 -0.4686
14933TIP3    H266215   1.480   6.320   0.300  0.9252  0.7858  0.3520
14934TIP3   OH266216   2.986   0.386  16.176  0.1506  0.0971 -0.2883
14934TIP3    H166217   2.897   0.415  16.157 -0.0098 -0.0074  0.2990
14934TIP3    H266218   3.041   0.461  16.154 -0.0906  0.1802 -0.6010
14935TIP3   OH266219   1.565   0.251   4.331 -0.5381  0.5559  0.0417
14935TIP3    H166220   1.516   0.219   4.407 -1.0632  0.4212 -0.3538
14935TIP3    H266221   1.641   0.296   4.369 -1.1705  1.1053  0.6642
14936TIP3   OH266222   6.329   1.548  15.417 -0.7064 -0.4175  0.5213
14936TIP3    H166223   6.247   1.506  15.390 -1.0356  0.0496  0.7865
14936TIP3    H266224   6.370   1.576  15.336  1.6421 -5.0968 -0.0911
14937TIP3   OH266225   0.306   5.526   5.911  0.3851 -0.4957 -0.7480
14937TIP3    H166226   0.328   5.574   5.990 -0.6979  0.3076 -0.9289
14937TIP3    H266227   0.314   5.434   5.936 -0.6164 -0.2613  0.4966
14938TIP3   OH266228   3.672   5.033  13.103 -0.8134 -1.2961  0.7263
14938TIP3    H166229   3.752   4.985  13.085 -0.4439  0.2572 -1.9662
14938TIP3    H266230   3.602   4.979  13.066 -0.7241 -1.3101  0.5790
14939TIP3   OH266231   2.052   6.346  16.085 -0.5877  0.2978 -0.2209
14939TIP3    H166232   2.118   6.360  16.153 -2.1385 -0.2971  1.4494
14939TIP3    H266233   2.098   6.363  16.003  1.2378  1.3513  0.9907
14940TIP3   OH266234   5.017   0.996   6.172  0.4720 -0.0274 -0.3885
14940TIP3    H166235   4.937   0.976   6.122  0.6016 -1.8360  0.1221
14940TIP3    H266236   5.028   1.091   6.161 -0.4228 -0.1344 -2.4169
14941TIP3   OH266237   1.020   4.217  12.527  0.4636 -0.0423 -0.2530
14941TIP3    H166238   0.954   4.153  12.551  1.9103 -1.0169  1.2433
14941TIP3    H266239   1.020   4.279  12.600  0.7731  0.2947 -0.5387
14942TIP3   OH266240   4.091   1.977  14.859  0.5667  0.5500 -0.0021
14942TIP3    H166241   4.103   2.071  14.846 -1.2271  0.7435 -0.3975
14942TIP3    H266242   4.179   1.941  14.857  1.2492  2.1969 -0.1002
14943TIP3   OH266243   1.551   6.605  14.857  0.3408 -0.2274 -0.2008
14943TIP3    H166244   1.577   6.548  14.784  0.7610  1.2991 -1.2614
14943TIP3    H266245   1.460   6.628  14.838  0.6017  0.5636 -0.5051
14944TIP3   OH266246   3.856   6.740   3.407  0.1558  0.1790 -0.6981
14944TIP3    H166247   3.775   6.692   3.422  1.1558 -1.3405  0.0912
14944TIP3    H266248   3.854   6.812   3.470 -0.8646  0.5180 -1.1187
14945TIP3   OH266249   2.147   6.595  15.485  0.3009  0.2159  0.0211
14945TIP3    H166250   2.075   6.549  15.527 -0.2768  0.7500 -0.3659
14945TIP3    H266251   2.109   6.679  15.458  1.3724  0.9834  0.8581
14946TIP3   OH266252   3.487   2.776  11.305 -0.8135 -1.2753 -0.3089
14946TIP3    H166253   3.392   2.781  11.296 -0.7080  2.1478 -0.1260
14946TIP3    H266254   3.521   2.818  11.226  0.5066 -0.7092  0.5459
14947TIP3   OH266255   0.344   2.019   3.254 -0.2043  0.7360 -0.3074
14947TIP3    H166256   0.359   1.989   3.343  1.5032  1.0828 -0.4694
14947TIP3    H266257   0.315   2.110   3.264 -0.7732  0.5345 -0.0788
14948TIP3   OH266258   1.237   3.505   0.843  0.4336 -0.0477  0.4670
14948TIP3    H166259   1.162   3.451   0.866  0.2761 -0.6389 -1.3409
14948TIP3    H266260   1.199   3.581   0.799  0.7203  1.0810  2.1084
14949TIP3   OH266261   1.314   2.947  17.166  0.4587  0.2033  0.2590
14949TIP3    H166262   1.257   2.949  17.089  0.2827 -1.5352  0.3158
14949TIP3    H266263   1.323   3.038  17.192 -1.4063  0.6106 -0.4187
14950TIP3   OH266264   0.982   4.441  13.640  0.2639  0.3136  0.3287
14950TIP3    H166265   0.939   4.449  13.555 -0.6938 -0.3058  0.7454
14950TIP3    H266266   1.024   4.355  13.638  0.9434  0.6453  0.1708
14951TIP3   OH266267   2.572   5.583   1.118  0.1077  0.3145  0.5043
14951TIP3    H166268   2.540   5.514   1.059  1.5702 -0.0846  0.1677
14951TIP3    H266269   2.646   5.543   1.163  1.3035  1.8411 -0.0794
14952TIP3   OH266270   3.537   4.455  16.337 -0.6041  0.3124 -0.2034
14952TIP3    H166271   3.558   4.526  16.276  0.8746 -0.6756 -0.8657
14952TIP3    H266272   3.614   4.398  16.334  0.3073  1.2023  3.9898
14953TIP3   OH266273   5.091   5.831   5.489  0.3426  0.1403  0.1845
14953TIP3    H166274   5.058   5.769   5.425  0.1135  0.5588 -0.1062
14953TIP3    H266275   5.175   5.794   5.518 -1.2396 -1.9274  2.3708
14954TIP3   OH266276   4.241   5.297   3.743 -0.0640  0.3623 -0.2864
14954TIP3    H166277   4.211   5.368   3.686  1.3078  0.1679 -1.2757
14954TIP3    H266278   4.319   5.262   3.699 -1.9394 -3.2094 -1.0083
14955TIP3   OH266279   2.825   5.975  16.832  0.5502 -0.2019  0.9119
14955TIP3    H166280   2.864   5.953  16.747  0.7852 -0.7002  1.1486
14955TIP3    H266281   2.818   5.891  16.877  1.7653  0.2442  1.9595
14956TIP3   OH266282   0.184   3.224   6.320  0.6522 -0.6070 -0.5804
14956TIP3    H166283   0.180   3.303   6.266  0.6168 -1.0115 -1.1733
14956TIP3    H266284   0.275   3.220   6.349  0.4886  0.0420  0.0464
14957TIP3   OH266285   5.925   2.029   6.163  0.6748  0.3678 -0.5097
14957TIP3    H166286   5.959   2.100   6.217  0.1991 -0.0174  0.3126
14957TIP3    H266287   5.980   2.028   6.085  0.2306  2.1038 -0.8602
14958TIP3   OH266288   2.120   1.790   6.717 -0.4109 -0.3970 -0.6237
14958TIP3    H166289   2.060   1.770   6.788  1.4339 -1.2145  0.7621
14958TIP3    H266290   2.140   1.704   6.678  0.3388 -0.2203 -0.6419
14959TIP3   OH266291   3.196   6.094  16.748 -0.1634  0.4292  0.2680
14959TIP3    H166292   3.262   6.162  16.733  0.6487 -0.8072 -1.9436
14959TIP3    H266293   3.126   6.114  16.686 -1.0386  0.6439  1.3117
14960TIP3   OH266294   3.736   2.835   4.308 -0.5395  0.2382 -0.2188
14960TIP3    H166295   3.723   2.871   4.220 -1.4727 -1.3730 -0.7471
14960TIP3    H266296   3.764   2.911   4.360 -0.6437  1.3498 -1.7297
14961TIP3   OH266297   1.339   4.638   4.181 -0.2074  0.2284 -0.0050
14961TIP3    H166298   1.303   4.573   4.121 -1.2887  0.3739  0.4845
14961TIP3    H266299   1.345   4.593   4.265  0.6155  0.2532 -0.0450
14962TIP3   OH266300   3.998   2.805  11.632 -0.4715 -0.7328 -0.2799
14962TIP3    H166301   3.965   2.775  11.717 -2.4828  0.7340 -0.4928
14962TIP3    H266302   3.966   2.740  11.569 -1.0475 -0.5360 -0.1952
14963TIP3   OH266303   1.579   6.295  14.362  0.1724 -0.1789  0.2917
14963TIP3    H166304   1.509   6.237  14.393  0.8915 -1.6204 -0.7398
14963TIP3    H266305   1.660   6.246  14.378  1.1198  2.0354  2.7965
14964TIP3   OH266306   5.276   4.701   5.664  0.0492  0.1407  0.2805
14964TIP3    H166307   5.266   4.606   5.655  2.3658 -0.1609  0.4878
14964TIP3    H266308   5.251   4.736   5.578 -1.0027 -0.6175  0.2634
14965TIP3   OH266309   5.778   4.242  13.990 -0.2717 -0.1259 -0.0887
14965TIP3    H166310   5.787   4.316  13.930  1.9513 -0.7371 -0.5799
14965TIP3    H266311   5.810   4.167  13.939  0.2320 -0.9047  1.3645
14966TIP3   OH266312   5.765   3.407   4.200 -0.0117  0.0272  0.4484
14966TIP3    H166313   5.774   3.497   4.229 -3.2990  0.3152  0.7202
14966TIP3    H266314   5.698   3.410   4.132  0.7321 -2.0392 -0.4161
14967TIP3   OH266315   3.088   3.054   4.820  0.1950  1.4441  0.4802
14967TIP3    H166316   3.125   3.078   4.905  0.4950 -1.6466  1.2642
14967TIP3    H266317   2.996   3.035   4.839  0.2208  0.9080  0.0570
14968TIP3   OH266318   3.514   5.512   0.661 -0.0486  0.0184  0.1242
14968TIP3    H166319   3.542   5.580   0.600  0.9081 -2.3216 -2.1481
14968TIP3    H266320   3.419   5.516   0.659 -0.0070  0.9349 -0.3914
14969TIP3   OH266321   0.195   3.626  15.680 -0.4357 -0.3827  0.2904
14969TIP3    H166322   0.144   3.623  15.761 -2.1303  0.5127 -0.7158
14969TIP3    H266323   0.282   3.655  15.708 -0.0257 -3.2772  2.2178
14970TIP3   OH266324   6.368   5.011   4.226  0.2941  0.1432 -0.1992
14970TIP3    H166325   6.442   4.954   4.204  0.3579 -0.1873  0.8269
14970TIP3    H266326   6.377   5.027   4.320 -1.5733 -0.8163  0.1743
14971TIP3   OH266327   5.489   0.507   3.209  0.4736 -0.2438 -0.0206
14971TIP3    H166328   5.549   0.524   3.282  0.1879  0.2330  0.1031
14971TIP3    H266329   5.403   0.495   3.251  0.3102  0.0327 -0.2805
14972TIP3   OH266330   2.918   5.035  11.150 -0.7380 -0.0046  0.2909
14972TIP3    H166331   2.874   5.086  11.218 -1.1350  0.4084 -0.2741
14972TIP3    H266332   2.926   5.096  11.076 -0.9912 -0.6887 -0.3023
14973TIP3   OH266333   2.334   2.062   1.459  0.2428 -0.0583 -0.4197
14973TIP3    H166334   2.270   2.105   1.514  0.6013 -1.0413  0.7886
14973TIP3    H266335   2.296   1.976   1.440  0.0750  0.3099 -1.7880
14974TIP3   OH266336   5.076   0.350  13.909  0.1706 -0.6096 -0.5251
14974TIP3    H166337   5.044   0.315  13.826 -0.1366  0.0377 -0.6764
14974TIP3    H266338   5.156   0.300  13.927  1.5312  0.8438 -2.3561
14975TIP3   OH266339   2.106   2.947   6.417 -0.4478  0.5262  0.2331
14975TIP3    H166340   2.046   2.873   6.427 -1.5924  1.6061  1.7475
14975TIP3    H266341   2.161   2.944   6.496  0.2267  0.6485 -0.2283
14976TIP3   OH266342   6.274   3.797   5.134 -0.5171 -0.1692 -0.0422
14976TIP3    H166343   6.256   3.727   5.070 -0.5747  0.6353 -0.9122
14976TIP3    H266344   6.191   3.808   5.181 -0.9653  0.3900 -0.9601
14977TIP3   OH266345   2.257   5.660   0.459  0.4928 -0.0272  0.6210
14977TIP3    H166346   2.324   5.692   0.397  0.0967  0.0876  0.2508
14977TIP3    H266347   2.194   5.731   0.464  0.5396 -0.0276  1.1856
14978TIP3   OH266348   4.527   1.966  14.354 -0.6821 -0.6314  0.2738
14978TIP3    H166349   4.576   1.896  14.397 -1.4671 -1.2755  0.1401
14978TIP3    H266350   4.559   1.966  14.264 -0.4063 -0.5668  0.3734
14979TIP3   OH266351   4.446   4.557   2.697  0.0425  0.2527 -0.2222
14979TIP3    H166352   4.396   4.553   2.615  1.5734 -0.5751 -1.1352
14979TIP3    H266353   4.464   4.465   2.718 -0.8324  0.4161  1.3829
14980TIP3   OH266354   1.145   0.530   0.227 -0.0538 -0.2041 -0.0689
14980TIP3    H166355   1.083   0.590   0.267 -0.4380 -0.7473  0.1416
14980TIP3    H266356   1.185   0.483   0.300  1.2877  0.7944 -0.1272
14981TIP3   OH266357   6.335   5.131  13.436  0.0553  0.4820  0.1570
14981TIP3    H166358   6.391   5.137  13.358 -0.4815 -1.3220 -0.3981
14981TIP3    H266359   6.372   5.195  13.497  2.7167 -0.6713 -0.1848
14982TIP3   OH266360   5.383   2.943  14.702 -0.1033 -0.0089 -0.0825
14982TIP3    H166361   5.306   2.948  14.759 -0.9773 -1.6405 -1.0876
14982TIP3    H266362   5.358   2.993  14.624  0.1451  0.0868 -0.1010
14983TIP3   OH266363   5.539   3.145  16.767  0.7367  0.4268 -0.1099
14983TIP3    H166364   5.550   3.239  16.778 -1.4803  0.7650 -0.5381
14983TIP3    H266365   5.627   3.108  16.780  1.7727  2.6129 -0.7719
14984TIP3   OH266366   3.200   6.396  14.098  0.2657 -0.6240  0.1666
14984TIP3    H166367   3.255   6.455  14.150 -0.2913  0.3468 -0.3272
14984TIP3    H266368   3.115   6.440  14.094 -0.6749 -2.2854  1.2254
14985TIP3   OH266369   6.405   4.953  14.053 -0.1469 -0.1111  0.2790
14985TIP3    H166370   6.498   4.933  14.043 -0.2164  0.2060 -1.0534
14985TIP3    H266371   6.359   4.875  14.023 -0.3167 -0.6239  1.8052
14986TIP3   OH266372   1.673   0.645  14.129  0.2978 -0.0203  0.5266
14986TIP3    H166373   1.669   0.611  14.218  0.1117  0.0629  0.5518
14986TIP3    H266374   1.655   0.570  14.073  2.8097 -0.6021  0.4541
14987TIP3   OH266375   6.624   3.034  14.246  0.0503  0.7181  0.4506
14987TIP3    H166376   6.675   2.969  14.294  1.9345  1.8187 -0.0029
14987TIP3    H266377   6.586   2.986  14.173  0.3865 -0.1480  0.8453
14988TIP3   OH266378   3.002   0.961   2.710  0.4291  0.0563  0.5497
14988TIP3    H166379   3.024   0.881   2.663 -0.0902 -0.5615  1.3408
14988TIP3    H266380   2.932   1.001   2.658  2.7758  1.6106 -1.5253
14989TIP3   OH266381   2.716   5.003  15.208 -0.1980  0.2314  0.1629
14989TIP3    H166382   2.652   4.932  15.199  0.5179 -0.2200 -1.5081
14989TIP3    H266383   2.687   5.051  15.286 -1.9348 -0.6176  0.0721
14990TIP3   OH266384   3.937   1.799  15.976  0.1765 -0.5838 -0.4162
14990TIP3    H166385   3.999   1.797  15.903 -1.0003 -0.1140 -1.4390
14990TIP3    H266386   3.956   1.882  16.020  1.1947 -1.0773  0.0930
14991TIP3   OH266387   5.204   4.357  16.842 -0.2222 -0.1557 -0.1662
14991TIP3    H166388   5.172   4.306  16.917 -0.1783 -1.3948 -0.9718
14991TIP3    H266389   5.266   4.298  16.798 -0.0433  0.6639 -1.0266
14992TIP3   OH266390   4.904   1.152  11.171 -0.5723 -0.1646  0.2057
14992TIP3    H166391   4.871   1.123  11.085 -1.3567 -1.6037  0.9714
14992TIP3    H266392   4.969   1.086  11.195  0.3945  0.8001  0.2623
14993TIP3   OH266393   5.425   0.109  16.348 -0.2672 -0.1444 -0.3722
14993TIP3    H166394   5.517   0.096  16.370 -0.2829 -3.2403 -1.8097
14993TIP3    H266395   5.380   0.033  16.386 -2.6022  2.3337  2.0859
14994TIP3   OH266396   5.928   5.371  12.117 -0.6286  0.4235  0.3547
14994TIP3    H166397   5.988   5.440  12.090  0.9302 -1.5250 -1.2927
14994TIP3    H266398   5.937   5.303  12.050 -2.5358 -1.1576  1.6303
14995TIP3   OH266399   4.675   3.264  16.725  0.4891 -0.3067 -1.1419
14995TIP3    H166400   4.656   3.304  16.640  3.0039  2.8943 -0.3338
14995TIP3    H266401   4.677   3.338  16.786 -2.2643 -2.6416  1.9580
14996TIP3   OH266402   1.066   2.527   1.736  0.4853  0.2724 -0.3206
14996TIP3    H166403   1.085   2.539   1.829  0.5559  1.1549 -0.4499
14996TIP3    H266404   1.144   2.559   1.691 -0.0882  1.0851 -0.7365
14997TIP3   OH266405   1.422   2.893   3.258  0.0983  0.1032  0.3432
14997TIP3    H166406   1.421   2.822   3.322  0.9480  0.9847  1.3715
14997TIP3    H266407   1.438   2.850   3.174  0.7617 -0.9100  0.9777
14998TIP3   OH266408   0.412   2.831  17.083  0.2236  0.0012 -0.8469
14998TIP3    H166409   0.365   2.880  17.151 -0.5742  0.0873 -1.4515
14998TIP3    H266410   0.498   2.814  17.121 -0.2172  0.0453  0.1909
14999TIP3   OH266411   1.360   2.709  14.203 -0.1202  0.2278 -0.4202
14999TIP3    H166412   1.456   2.706  14.207 -0.1769 -0.0672  1.0543
14999TIP3    H266413   1.332   2.666  14.283 -1.5279 -1.2411 -1.6762
15000TIP3   OH266414   6.489   3.558   1.802 -0.4857 -0.2174  0.2285
15000TIP3    H166415   6.501   3.550   1.896 -0.5103  0.7096  0.3218
15000TIP3    H266416   6.433   3.485   1.778  1.3534 -1.7724  0.5709
15001TIP3   OH266417   5.563   0.827   4.798  0.3494 -0.3215  0.5199
15001TIP3    H166418   5.556   0.907   4.851  0.6336 -0.1976  0.3703
15001TIP3    H266419   5.551   0.756   4.860  1.2945 -0.1965  0.8501
15002TIP3   OH266420   4.554   3.527   1.903 -0.1526  0.1906  0.7765
15002TIP3    H166421   4.475   3.540   1.851  0.1849  1.5337  0.5892
15002TIP3    H266422   4.601   3.456   1.859 -0.6397  0.2433  0.1714
15003TIP3   OH266423   2.396   1.162  11.374  0.1674  0.3334  0.3928
15003TIP3    H166424   2.436   1.249  11.369 -0.6379  0.7568  1.2530
15003TIP3    H266425   2.467   1.101  11.351  0.8264  1.1925  0.1535
15004TIP3   OH266426   5.854   5.236  15.446 -0.0805 -0.1133  0.6154
15004TIP3    H166427   5.816   5.260  15.361  0.3849  0.3296  0.5359
15004TIP3    H266428   5.937   5.193  15.424 -0.4278 -0.9041  0.8046
15005TIP3   OH266429   3.679   6.035  12.740  0.4409 -0.2035  0.0092
15005TIP3    H166430   3.679   6.034  12.836 -0.6717 -0.7231  0.0168
15005TIP3    H266431   3.760   6.080  12.716  0.3285  0.6520  1.2027
15006TIP3   OH266432   6.044   1.895   3.553  0.2048  0.3903  0.1842
15006TIP3    H166433   6.127   1.869   3.593 -0.2345  0.9649  1.4853
15006TIP3    H266434   6.070   1.940   3.472  1.0540 -1.8299 -0.8191
15007TIP3   OH266435   2.294   2.412   3.698  0.1189 -0.1906 -0.3156
15007TIP3    H166436   2.345   2.332   3.694 -1.2130 -0.9715 -2.2159
15007TIP3    H266437   2.203   2.383   3.709 -0.5651  0.9580 -2.6069
15008TIP3   OH266438   5.919   4.580  14.843  0.2549 -0.0733 -0.5255
15008TIP3    H166439   5.945   4.534  14.923 -1.2181 -0.5526 -0.3027
15008TIP3    H266440   5.914   4.512  14.776  0.0403  0.0784 -0.6672
15009TIP3   OH266441   1.242   0.681  13.293  0.1897 -0.1474 -0.5884
15009TIP3    H166442   1.280   0.602  13.254 -3.2779 -1.4069 -1.6941
15009TIP3    H266443   1.201   0.650  13.374  0.0561  0.8166 -0.2844
15010TIP3   OH266444   3.568   0.552  13.875 -0.6746  0.0784 -1.2072
15010TIP3    H166445   3.650   0.503  13.880  0.8328  2.3336 -2.8136
15010TIP3    H266446   3.578   0.621  13.941 -2.1612 -0.8686  0.0259
15011TIP3   OH266447   2.927   4.126   2.953 -0.0085 -0.2989  0.2180
15011TIP3    H166448   2.927   4.129   2.857  0.6630  2.3914  0.2726
15011TIP3    H266449   3.019   4.124   2.977 -0.1797 -1.2109  0.8190
15012TIP3   OH266450   1.776   1.348   4.953 -0.4623 -0.0720 -0.0383
15012TIP3    H166451   1.742   1.281   4.894  0.0693 -0.6670  0.3327
15012TIP3    H266452   1.698   1.397   4.981 -0.9703 -1.1611  0.4591
15013TIP3   OH266453   5.831   5.446  16.216 -0.0277  0.1069 -0.2045
15013TIP3    H166454   5.807   5.436  16.309 -1.4896  0.1880 -0.5590
15013TIP3    H266455   5.791   5.529  16.190  2.6228  1.4232 -0.2346
15014TIP3   OH266456   3.869   3.721  13.554 -0.0615 -0.0639 -0.6814
15014TIP3    H166457   3.815   3.643  13.564  0.2740 -0.3763 -1.3263
15014TIP3    H266458   3.904   3.737  13.641  1.6470 -1.9144 -0.9950
15015TIP3   OH266459   2.300   6.463   0.183 -0.1026 -0.5639 -0.8506
15015TIP3    H166460   2.392   6.439   0.172  0.3664  1.4839 -1.7051
15015TIP3    H266461   2.293   6.492   0.274 -0.2215 -1.9317 -0.4070
15016TIP3   OH266462   5.844   6.344   3.166  0.3648  0.8627 -0.5757
15016TIP3    H166463   5.919   6.346   3.107  0.6644  2.1478 -0.1666
15016TIP3    H266464   5.876   6.299   3.244 -0.0573 -0.9164 -1.4137
15017TIP3   OH266465   0.519   3.225   0.983 -0.5442  0.5285  0.1130
15017TIP3    H166466   0.476   3.222   0.897 -0.1354  0.1192 -0.0857
15017TIP3    H266467   0.580   3.150   0.981  0.2976  1.1995  0.3188
15018TIP3   OH266468   4.974   3.737   1.209 -0.0017 -0.0993 -0.0087
15018TIP3    H166469   4.905   3.700   1.154 -0.0349 -0.0668  0.0115
15018TIP3    H266470   4.958   3.701   1.296 -0.1758  0.1475  0.0626
15019TIP3   OH266471   6.534   4.377   2.750 -0.4929 -0.7733  0.6235
15019TIP3    H166472   6.498   4.357   2.836 -0.4586 -1.1396  0.5552
15019TIP3    H266473   6.527   4.294   2.701  0.5639 -0.8998  0.6577
15020TIP3   OH266474   2.624   3.480  15.445 -0.3386  0.7280  0.0298
15020TIP3    H166475   2.645   3.552  15.386  0.6750  0.6703  0.3014
15020TIP3    H266476   2.640   3.515  15.533  0.4896  0.0821  0.1505
15021TIP3   OH266477   6.202   3.327   3.295  0.2554 -0.5857  0.1598
15021TIP3    H166478   6.187   3.351   3.386 -1.3104  1.7791 -0.6767
15021TIP3    H266479   6.114   3.324   3.256  1.0294  0.3031 -1.7014
15022TIP3   OH266480   4.291   5.251   4.567 -0.0509 -0.0834  0.0431
15022TIP3    H166481   4.278   5.213   4.654  2.4695 -2.2578 -0.4651
15022TIP3    H266482   4.247   5.191   4.507  0.8556 -0.2594 -0.4543
15023TIP3   OH266483   0.523   1.377  16.040  0.0934 -0.4362 -0.0615
15023TIP3    H166484   0.450   1.371  16.101 -1.3971  0.9677 -1.6470
15023TIP3    H266485   0.560   1.464  16.056  0.3257 -0.4612 -0.4526
15024TIP3   OH266486   6.622   6.005   3.341 -0.1834  0.0848 -0.0930
15024TIP3    H166487   6.675   5.994   3.421 -1.2232 -2.1673  0.3334
15024TIP3    H266488   6.668   5.952   3.275 -0.2949  0.5204 -0.5224
15025TIP3   OH266489   0.720   3.775  11.583  0.3894  0.0029  0.3309
15025TIP3    H166490   0.728   3.835  11.656 -2.1482  1.2052 -0.3049
15025TIP3    H266491   0.808   3.767  11.547  0.4257  5.2218 -1.0240
15026TIP3   OH266492   0.103   1.491  12.521  0.3260  0.0212  0.8966
15026TIP3    H166493   0.174   1.522  12.578 -0.2672  1.6607  0.7749
15026TIP3    H266494   0.089   1.563  12.459 -1.9253  0.0306  1.3735
15027TIP3   OH266495   3.328   1.296  15.074 -0.2480  0.2872 -0.6314
15027TIP3    H166496   3.376   1.372  15.043 -0.3988  1.4378  1.8024
15027TIP3    H266497   3.238   1.327  15.084 -0.3677 -0.2693  0.0729
15028TIP3   OH266498   3.414   3.737   2.351 -0.2901  0.1288 -0.3357
15028TIP3    H166499   3.333   3.785   2.333 -0.7913 -1.1297 -1.5166
15028TIP3    H266500   3.392   3.645   2.334  1.3133 -0.2554 -0.4203
15029TIP3   OH266501   5.224   4.973  16.185  0.2814 -0.0674 -0.1753
15029TIP3    H166502   5.177   4.901  16.142 -0.9654  0.7747 -0.2468
15029TIP3    H266503   5.155   5.032  16.215  1.2392  0.4252  1.0879
15030TIP3   OH266504   4.274   0.826  14.925  0.3280  0.5535 -0.6873
15030TIP3    H166505   4.349   0.843  14.982 -0.2354 -0.4062  0.3837
15030TIP3    H266506   4.214   0.774  14.980 -0.9011  0.9066 -1.6707
15031TIP3   OH266507   6.588   4.947   4.736  0.3326  0.2646 -0.2055
15031TIP3    H166508   6.511   4.896   4.762 -1.3235  2.7605  0.0104
15031TIP3    H266509   6.647   4.940   4.811 -0.0085 -1.0438 -0.0452
15032TIP3   OH266510   5.940   3.429   3.362  0.2317 -0.0206  0.2536
15032TIP3    H166511   5.905   3.341   3.374  0.5034 -0.3166 -1.1136
15032TIP3    H266512   5.932   3.446   3.268  0.4485  1.3011  0.4587
15033TIP3   OH266513   3.925   1.337   0.671 -0.2621 -0.1570 -0.0518
15033TIP3    H166514   3.908   1.387   0.751 -0.8647 -0.3585 -0.0516
15033TIP3    H266515   4.005   1.287   0.691 -1.0722 -1.1093  0.8568
15034TIP3   OH266516   1.445   5.552   5.318  0.7016 -0.0205 -0.1927
15034TIP3    H166517   1.442   5.647   5.327  1.2932 -0.2128  2.5244
15034TIP3    H266518   1.399   5.519   5.396  3.0076 -1.9577  0.4094
15035TIP3   OH266519   3.152   3.112  15.770  0.1221  0.1730 -0.3766
15035TIP3    H166520   3.080   3.175  15.772  1.5397  1.8009 -0.2655
15035TIP3    H266521   3.171   3.100  15.677 -0.1158 -0.0608 -0.3957
15036TIP3   OH266522   4.150   1.003   6.181  0.0064 -0.0809  0.7513
15036TIP3    H166523   4.229   1.015   6.233  0.7311  0.6116 -0.4780
15036TIP3    H266524   4.089   0.958   6.239  1.7513 -1.7930  1.3056
15037TIP3   OH266525   4.791   5.724   2.689  0.2773 -0.1866  0.8794
15037TIP3    H166526   4.790   5.801   2.745  1.7527  0.4281  0.0934
15037TIP3    H266527   4.881   5.693   2.693  0.1760 -0.6732 -0.4096
15038TIP3   OH266528   0.272   5.513  15.759  0.1525 -0.3287 -0.4492
15038TIP3    H166529   0.212   5.514  15.684 -0.8944 -1.3430  0.3566
15038TIP3    H266530   0.219   5.542  15.833  0.4362 -1.9191  0.4133
15039TIP3   OH266531   1.797   4.316  16.829  0.3617 -0.4931 -0.0256
15039TIP3    H166532   1.744   4.256  16.777  1.0343 -0.0097 -1.2773
15039TIP3    H266533   1.744   4.333  16.907 -0.8654 -0.8287 -0.7743
15040TIP3   OH266534   6.396   2.086  10.741 -0.3484  0.1852 -0.6117
15040TIP3    H166535   6.312   2.089  10.786  0.3688  1.5318  0.6943
15040TIP3    H266536   6.387   2.149  10.669 -0.9439 -0.7806 -1.4032
15041TIP3   OH266537   6.081   4.660  12.624 -0.7788  0.5109  0.4263
15041TIP3    H166538   6.127   4.743  12.638 -0.9928  0.8242 -0.6494
15041TIP3    H266539   6.042   4.669  12.537 -4.0568  0.7775  1.8653
15042TIP3   OH266540   6.118   3.441   3.575 -0.1279  0.0154  0.5694
15042TIP3    H166541   6.049   3.450   3.508  0.4337 -0.1686 -0.0407
15042TIP3    H266542   6.072   3.453   3.658 -0.5919  1.6332  0.0965
15043TIP3   OH266543   4.353   2.254  11.439  0.3454 -0.2377  0.1127
15043TIP3    H166544   4.295   2.308  11.492 -0.0494 -0.0786 -0.4724
15043TIP3    H266545   4.310   2.168  11.437 -0.0451 -0.0311 -0.5909
15044TIP3   OH266546   3.858   2.581   6.195 -0.8521 -0.0934  0.2170
15044TIP3    H166547   3.831   2.574   6.287  0.1945 -0.3397  0.5205
15044TIP3    H266548   3.777   2.594   6.146 -1.4679 -0.4800  1.1286
15045TIP3   OH266549   2.229   4.869   1.110 -0.2645  0.2752  0.0017
15045TIP3    H166550   2.224   4.890   1.017 -1.5010 -3.2758 -0.8137
15045TIP3    H266551   2.315   4.829   1.121 -0.6928 -0.6052  0.1104
15046TIP3   OH266552   3.766   5.171   2.089 -0.3163 -0.0291  0.3236
15046TIP3    H166553   3.704   5.192   2.019 -0.3921 -1.2855  0.0160
15046TIP3    H266554   3.790   5.080   2.074 -0.4230 -0.3422  2.0203
15047TIP3   OH266555   0.345   5.732  11.672  0.8077 -0.3118 -0.3178
15047TIP3    H166556   0.362   5.785  11.594  1.7242  1.9844  1.3755
15047TIP3    H266557   0.364   5.791  11.746  1.3851 -2.8579  1.6521
15048TIP3   OH266558   3.906   5.816   2.365  0.2526  0.2084 -0.1476
15048TIP3    H166559   3.818   5.778   2.369 -0.5848  2.1712  1.3842
15048TIP3    H266560   3.913   5.850   2.276 -0.2719 -0.6005 -0.5046
15049TIP3   OH266561   6.753   3.405  16.621 -0.4463 -0.2226  0.5629
15049TIP3    H166562   6.746   3.489  16.575 -0.5079  0.1171  1.1895
15049TIP3    H266563   6.839   3.409  16.665 -1.0852  0.1285  1.8048
15050TIP3   OH266564   0.230   2.305  11.450 -0.1230  0.2530 -0.2219
15050TIP3    H166565   0.319   2.314  11.483  0.2254  1.0802 -1.3573
15050TIP3    H266566   0.177   2.364  11.504  0.0635 -0.0430  0.2821
15051TIP3   OH266567   0.742   6.659   2.598 -0.3760 -0.3173  0.0595
15051TIP3    H166568   0.748   6.564   2.590  1.0063 -0.2258 -0.1998
15051TIP3    H266569   0.681   6.686   2.529  0.1085 -0.9154 -0.6076
15052TIP3   OH266570   0.846   2.710   4.418  0.1333 -0.3746  0.1011
15052TIP3    H166571   0.900   2.633   4.403 -2.0539 -1.9924  0.2035
15052TIP3    H266572   0.876   2.774   4.354  0.5281 -2.1049 -1.4759
15053TIP3   OH266573   6.250   6.781  15.251  0.4384  0.0366 -0.6376
15053TIP3    H166574   6.174   6.763  15.196 -0.3796  0.5554  0.3057
15053TIP3    H266575   6.274   6.696  15.287  1.2791 -0.3858 -2.1687
15054TIP3   OH266576   2.677   2.884  12.582  0.0540  0.6711  0.1402
15054TIP3    H166577   2.638   2.822  12.643 -0.0845  1.1178  0.5058
15054TIP3    H266578   2.606   2.943  12.559  0.0488  0.3703 -0.6278
15055TIP3   OH266579   0.071   4.157  13.931 -0.5565  0.0494 -0.0354
15055TIP3    H166580  -0.001   4.114  13.977 -0.5787  0.9955  0.8244
15055TIP3    H266581   0.122   4.200  14.000  0.3460  0.1062 -0.7246
15056TIP3   OH266582   2.926   3.422   5.684  0.2355  0.2064 -0.4858
15056TIP3    H166583   2.957   3.341   5.644 -0.5339 -0.2769 -0.1197
15056TIP3    H266584   2.906   3.480   5.610 -0.4505 -0.4047 -0.7892
15057TIP3   OH266585   2.754   2.064   6.071 -0.3920  0.4461 -0.2571
15057TIP3    H166586   2.710   2.135   6.024 -0.5495  0.3355 -0.2755
15057TIP3    H266587   2.769   2.099   6.158  0.9383  1.0820 -0.7186
15058TIP3   OH266588   0.452   5.071   1.055 -0.0544 -0.6712  0.0372
15058TIP3    H166589   0.490   4.992   1.094 -0.2975 -0.6226  0.3811
15058TIP3    H266590   0.472   5.141   1.118 -1.7029 -0.8511  0.8041
15059TIP3   OH266591   4.884   4.580  16.746  0.0091 -0.0782  0.0345
15059TIP3    H166592   4.922   4.514  16.689 -0.9798 -0.5877 -0.0491
15059TIP3    H266593   4.848   4.646  16.687 -0.9346 -0.5600  0.0560
15060TIP3   OH266594   1.979   1.400   6.056  0.0744  0.0397 -0.5213
15060TIP3    H166595   2.067   1.432   6.076  0.0917  0.1156 -0.7265
15060TIP3    H266596   1.922   1.473   6.078  0.1569  0.3984 -1.4964
15061TIP3   OH266597   2.794   2.424   0.746 -0.1567  0.4348  0.0159
15061TIP3    H166598   2.790   2.335   0.781  0.1909 -0.0608 -1.1861
15061TIP3    H266599   2.706   2.459   0.759 -0.6784 -0.5709 -0.7457
15062TIP3   OH266600   3.236   2.454  15.560 -0.2056  0.2792 -0.0711
15062TIP3    H166601   3.316   2.420  15.521 -0.2896 -0.6559  0.5643
15062TIP3    H266602   3.199   2.380  15.609 -0.0352  1.4297  1.8747
15063TIP3   OH266603   5.673   1.732  13.867  0.5915 -0.2425 -0.1406
15063TIP3    H166604   5.614   1.807  13.878  1.8608  0.4773  2.1820
15063TIP3    H266605   5.618   1.656  13.886  0.0412  0.3218  0.6008
15064TIP3   OH266606   1.575   0.106  14.334  0.0701 -0.4433 -0.0934
15064TIP3    H166607   1.539   0.031  14.287  1.5815  0.5166 -2.8668
15064TIP3    H266608   1.642   0.068  14.391  1.1386 -1.1693 -1.8063
15065TIP3   OH266609   6.594   4.309   2.168  0.3176 -0.5622  0.1726
15065TIP3    H166610   6.628   4.327   2.080  0.0369  1.8639  0.5255
15065TIP3    H266611   6.551   4.224   2.160 -1.1233  0.3645 -2.4686
15066TIP3   OH266612   2.687   0.369   4.751 -0.0423  0.6562  0.4526
15066TIP3    H166613   2.733   0.292   4.717 -0.6758 -0.0477  1.1729
15066TIP3    H266614   2.642   0.406   4.675 -1.4162 -0.8796  0.5052
15067TIP3   OH266615   0.653   3.145   2.059 -0.3259 -0.2176  0.5381
15067TIP3    H166616   0.587   3.094   2.011  0.7582 -0.7973 -0.3600
15067TIP3    H266617   0.685   3.208   1.995 -0.3274  0.3653  1.1083
15068TIP3   OH266618   4.922   1.050   3.422  0.5486  0.3353  0.2601
15068TIP3    H166619   4.894   0.962   3.398 -0.9089  0.5819  0.9908
15068TIP3    H266620   4.958   1.040   3.510  1.0490  0.3518  0.0600
15069TIP3   OH266621   5.422   4.386  17.075 -0.7270 -0.4992 -0.0838
15069TIP3    H166622   5.354   4.404  17.141  0.6132  2.7308  0.5319
15069TIP3    H266623   5.422   4.291  17.066 -3.7934 -0.7229  1.5356
15070TIP3   OH266624   6.489   0.252   6.635 -0.6505 -0.0785 -0.0257
15070TIP3    H166625   6.554   0.187   6.662 -1.8692 -0.6239  1.6828
15070TIP3    H266626   6.526   0.336   6.660 -0.5158 -0.3745  0.7606
15071TIP3   OH266627   5.229   2.983  11.688 -0.8270 -0.3201  0.1322
15071TIP3    H166628   5.260   2.963  11.776 -0.3775 -0.1244  0.0198
15071TIP3    H266629   5.240   3.077  11.680  0.3702 -0.5098 -0.6037
15072TIP3   OH266630   3.417   6.502   1.235 -0.5150  0.7158  0.5640
15072TIP3    H166631   3.358   6.552   1.291  0.1424 -0.7560  2.6340
15072TIP3    H266632   3.501   6.504   1.281 -0.4950 -2.3783  0.7563
15073TIP3   OH266633   2.058   3.730  13.599  0.0367 -0.2407 -0.4885
15073TIP3    H166634   1.991   3.725  13.667  0.3293 -3.5468 -0.3588
15073TIP3    H266635   2.128   3.783  13.637 -1.5638  1.4507  0.1640
15074TIP3   OH266636   4.174   3.453  15.308  0.6937  0.3167  0.2130
15074TIP3    H166637   4.170   3.384  15.241 -0.7659  1.6431 -1.0999
15074TIP3    H266638   4.240   3.514  15.276 -0.0608  0.9918 -0.0531
15075TIP3   OH266639   0.978   5.525   6.173 -0.5981  0.0332  0.0390
15075TIP3    H166640   1.037   5.596   6.198  0.2325 -0.0780 -1.5497
15075TIP3    H266641   0.988   5.460   6.243 -0.7163  1.0941  1.0557
15076TIP3   OH266642   2.554   0.331  13.589 -0.0900 -0.3777  0.8321
15076TIP3    H166643   2.640   0.292  13.575  0.1503  0.5171 -0.2763
15076TIP3    H266644   2.514   0.278  13.657  1.7915 -0.1384  2.1737
15077TIP3   OH266645   0.295   2.601   1.838  0.1133  0.3462 -0.1574
15077TIP3    H166646   0.203   2.621   1.854 -0.2478 -2.2308  1.2066
15077TIP3    H266647   0.308   2.618   1.745 -0.9069  3.7169  0.2332
15078TIP3   OH266648   6.412   5.982  13.859 -0.5015  0.2119  0.5225
15078TIP3    H166649   6.402   5.976  13.954  0.0003 -0.5650  0.5295
15078TIP3    H266650   6.400   6.075  13.839 -1.0648  0.3088  1.2891
15079TIP3   OH266651   6.115   5.694   1.065  0.1392 -0.6463 -0.4056
15079TIP3    H166652   6.202   5.731   1.049  0.6251 -1.5899  0.0010
15079TIP3    H266653   6.132   5.614   1.116 -1.0551 -0.0731  0.9313
15080TIP3   OH266654   3.173   3.794   2.501  0.3786 -0.1583 -0.1499
15080TIP3    H166655   3.215   3.867   2.546 -0.4569 -0.0217  0.4333
15080TIP3    H266656   3.208   3.716   2.544 -0.4430 -0.0289  0.7993
15081TIP3   OH266657   5.083   4.910  14.528  0.3071 -0.6544 -0.3693
15081TIP3    H166658   5.130   4.881  14.450  0.2693 -3.0429  0.4652
15081TIP3    H266659   4.999   4.941  14.496 -0.2803 -2.9752 -1.1622
15082TIP3   OH266660   1.898   4.035   5.276  0.2399  0.6608  0.6194
15082TIP3    H166661   1.921   4.051   5.368  1.7945 -2.0877  0.7594
15082TIP3    H266662   1.848   3.953   5.278  0.6430  0.3582 -1.0247
15083TIP3   OH266663   6.499   0.255  11.331 -0.0078 -0.0131 -0.0501
15083TIP3    H166664   6.529   0.293  11.414 -0.7394 -0.3196  0.3594
15083TIP3    H266665   6.456   0.327  11.285  1.3476  0.4324 -0.6451
15084TIP3   OH266666   2.218   2.117  16.178 -0.3137 -0.5494 -0.2483
15084TIP3    H166667   2.126   2.095  16.171 -0.1659 -0.4865 -2.5577
15084TIP3    H266668   2.265   2.043  16.139  0.6509 -0.7376  1.2014
15085TIP3   OH266669   5.511   6.403  14.795  0.1579  0.9073 -0.3258
15085TIP3    H166670   5.520   6.486  14.748  1.7938  0.9930  0.1078
15085TIP3    H266671   5.557   6.417  14.877 -0.6835 -0.0136  0.3232
15086TIP3   OH266672   4.666   5.657   0.187  0.5953 -0.0961  0.6463
15086TIP3    H166673   4.649   5.576   0.233 -0.5270  0.2390  0.8378
15086TIP3    H266674   4.602   5.719   0.222  2.6564  1.4016  1.8602
15087TIP3   OH266675   6.435   1.594  11.088 -0.0049 -0.4341  0.5004
15087TIP3    H166676   6.429   1.545  11.171  0.5270 -1.3771 -0.0044
15087TIP3    H266677   6.347   1.589  11.051 -0.0781 -0.5939  0.6905
15088TIP3   OH266678   2.408   0.885   3.732  0.1202  0.8149 -0.0015
15088TIP3    H166679   2.466   0.828   3.782 -0.7632  0.1322  0.2460
15088TIP3    H266680   2.468   0.943   3.685  1.0298 -0.1566 -0.0793
15089TIP3   OH266681   6.082   4.848   1.087 -0.0903  0.3571  0.3982
15089TIP3    H166682   6.154   4.909   1.102  0.5491 -0.5212  0.9761
15089TIP3    H266683   6.035   4.884   1.011  1.9652  0.0146 -1.0734
15090TIP3   OH266684   3.901   1.403   3.062  0.1430 -0.2943  0.2611
15090TIP3    H166685   3.867   1.347   3.131  3.6601  0.1476  2.4754
15090TIP3    H266686   3.925   1.342   2.992 -0.2079 -1.1128  0.8415
15091TIP3   OH266687   3.963   5.738  10.359 -0.4494 -0.3341 -0.7143
15091TIP3    H166688   3.892   5.688  10.319 -0.2896 -2.3806  1.4645
15091TIP3    H266689   4.031   5.673  10.377  1.0973  1.2292 -0.7822
15092TIP3   OH266690   2.608   2.209   5.879  0.3882 -0.1689  0.5049
15092TIP3    H166691   2.519   2.173   5.881  1.0321 -1.7754  3.5240
15092TIP3    H266692   2.596   2.300   5.855 -1.9377 -0.7249 -0.6549
15093TIP3   OH266693   3.883   0.563   5.100 -0.6525  0.4708  0.1624
15093TIP3    H166694   3.807   0.531   5.052  1.0360 -0.8969 -1.6835
15093TIP3    H266695   3.941   0.487   5.105  0.9192  1.7078  0.8957
15094TIP3   OH266696   2.096   2.975  16.950  0.1710 -0.2411  0.2626
15094TIP3    H166697   2.068   3.049  16.896 -0.5245  0.1331  1.1173
15094TIP3    H266698   2.017   2.949  16.998  0.0121 -2.5103 -1.1578
15095TIP3   OH266699   2.454   5.716   0.285  0.5984  0.2639 -0.2472
15095TIP3    H166700   2.497   5.796   0.256 -0.1378  0.5731 -0.4935
15095TIP3    H266701   2.416   5.679   0.205 -1.2698  1.0170  0.2679
15096TIP3   OH266702   4.426   4.713   4.881 -0.4068  0.1430 -0.0082
15096TIP3    H166703   4.386   4.627   4.893 -0.7795  0.4095  0.7214
15096TIP3    H266704   4.400   4.739   4.792 -2.6011  0.6740  0.7540
15097TIP3   OH266705   0.846   5.754   5.191  0.0445 -0.4042 -0.2058
15097TIP3    H166706   0.868   5.732   5.281 -1.5679  1.4244  0.6882
15097TIP3    H266707   0.890   5.838   5.176 -0.3007 -0.3395 -0.8636
15098TIP3   OH266708   2.217   3.000   2.552 -0.1004 -0.0937  0.0616
15098TIP3    H166709   2.184   3.084   2.584  0.0552 -0.2293  0.5831
15098TIP3    H266710   2.166   2.934   2.600 -0.1983 -0.2995 -0.3195
15099TIP3   OH266711   5.914   2.236  12.158  0.1904 -0.4039  0.2646
15099TIP3    H166712   5.883   2.322  12.185  0.8314 -0.2620  0.5372
15099TIP3    H266713   5.834   2.189  12.134 -0.2109  0.0707  0.6633
15100TIP3   OH266714   5.321   2.044   1.523 -0.0369 -0.4572 -0.4344
15100TIP3    H166715   5.259   2.083   1.461  0.4769 -0.0698 -0.7027
15100TIP3    H266716   5.266   2.011   1.594 -0.4802  0.5817 -0.2954
15101TIP3   OH266717   3.779   4.191   4.080 -0.1064 -0.0317 -0.4850
15101TIP3    H166718   3.864   4.185   4.037  1.5084  1.0295  2.4266
15101TIP3    H266719   3.784   4.128   4.152 -1.4125  0.6821  0.2557
15102TIP3   OH266720   1.341   6.355   1.004 -0.3201 -0.3070 -0.0627
15102TIP3    H166721   1.293   6.429   0.966 -0.0787 -0.2594 -0.2743
15102TIP3    H266722   1.343   6.289   0.934 -0.8953 -0.6759  0.2662
15103TIP3   OH266723   3.357   5.376   4.456 -0.0015 -0.2787 -0.1143
15103TIP3    H166724   3.330   5.306   4.397  0.5000  0.1139 -0.8180
15103TIP3    H266725   3.409   5.332   4.523  0.2211 -0.6002 -0.4978
15104TIP3   OH266726   1.402   4.542   2.200  0.5307 -0.3019 -0.2070
15104TIP3    H166727   1.414   4.464   2.254 -0.3598 -0.7262 -0.6144
15104TIP3    H266728   1.325   4.523   2.147 -0.3598  1.2661  0.4648
15105TIP3   OH266729   0.512   3.837  12.201  0.4409  0.2194  0.2402
15105TIP3    H166730   0.470   3.788  12.131  3.1676 -0.3188 -1.0550
15105TIP3    H266731   0.501   3.782  12.279  0.6932 -0.9617 -0.5484
15106TIP3   OH266732   0.317   0.748  10.999 -0.1449  0.0725 -0.3227
15106TIP3    H166733   0.324   0.771  11.092 -2.8375 -0.8443  0.1479
15106TIP3    H266734   0.396   0.697  10.981  1.0029  1.2734  1.1419
15107TIP3   OH266735   2.168   2.379   6.374 -0.3092  0.3969  0.1340
15107TIP3    H166736   2.118   2.374   6.293  0.1418  2.0307 -0.2554
15107TIP3    H266737   2.233   2.308   6.366 -2.4314 -1.6707  0.6062
15108TIP3   OH266738   6.499   2.540   1.771 -0.1452  0.3726  0.1939
15108TIP3    H166739   6.522   2.531   1.863 -0.7460 -0.3835  0.2754
15108TIP3    H266740   6.580   2.565   1.728 -0.3885  3.1223  1.2815
15109TIP3   OH266741   4.889   3.100  12.697  0.1189 -0.2212  0.6296
15109TIP3    H166742   4.888   3.029  12.761 -0.2610 -0.0896  0.7730
15109TIP3    H266743   4.801   3.136  12.700 -0.1336 -0.7073 -0.5253
15110TIP3   OH266744   2.600   5.331  14.996  0.3604  0.5135 -0.7463
15110TIP3    H166745   2.539   5.266  15.030  0.9556 -0.0075 -0.6736
15110TIP3    H266746   2.643   5.367  15.074 -0.2222  1.2531 -0.7590
15111TIP3   OH266747   1.236   1.941   5.011  0.1253 -0.4737  0.1751
15111TIP3    H166748   1.328   1.956   4.992 -0.5661  0.1777 -2.9688
15111TIP3    H266749   1.202   2.028   5.035 -0.1782 -0.2428 -1.0663
15112TIP3   OH266750   6.322   3.696  14.740 -0.0459 -0.1128 -0.5566
15112TIP3    H166751   6.410   3.684  14.777  0.3351 -0.6287 -1.6169
15112TIP3    H266752   6.318   3.789  14.718 -0.3812  0.2573  1.0409
15113TIP3   OH266753   4.611   5.071  15.248  0.3587  0.4835 -0.2349
15113TIP3    H166754   4.542   5.120  15.203 -0.4605  0.6269  1.1548
15113TIP3    H266755   4.565   4.997  15.289  1.5155 -1.2663 -1.9941
15114TIP3   OH266756   4.440   1.958  14.697  0.6414  0.2683  0.0164
15114TIP3    H166757   4.535   1.951  14.692  0.5804  0.2902 -1.2833
15114TIP3    H266758   4.425   2.032  14.756  1.4425  0.6270 -0.2173
15115TIP3   OH266759   1.398   1.444   1.022 -0.3165  0.8434 -0.1996
15115TIP3    H166760   1.395   1.451   0.927  0.5738  0.0144 -0.3114
15115TIP3    H266761   1.491   1.429   1.041 -0.6795 -0.3575  0.6807
15116TIP3   OH266762   3.595   4.578   5.652 -0.1349  0.2678  0.4685
15116TIP3    H166763   3.503   4.575   5.679  0.1198  1.0076  1.4529
15116TIP3    H266764   3.615   4.489   5.625 -1.0362  0.0166  0.6139
15117TIP3   OH266765   0.432   0.745  11.508  0.0812 -0.1923  0.2921
15117TIP3    H166766   0.472   0.815  11.559  0.3650 -0.6972  0.7743
15117TIP3    H266767   0.471   0.665  11.543 -0.2081 -0.5872 -0.2776
15118TIP3   OH266768   3.656   2.756  11.539  0.1582  0.3595 -0.1745
15118TIP3    H166769   3.736   2.703  11.537  0.0684  0.2282 -0.3036
15118TIP3    H266770   3.598   2.714  11.474  0.3950  1.0969 -0.8690
15119TIP3   OH266771   1.821   6.742   1.372  0.1096  0.2957 -0.1969
15119TIP3    H166772   1.758   6.682   1.333  0.6657 -1.3022  1.3044
15119TIP3    H266773   1.905   6.696   1.367  0.0133 -0.6251  4.0020
15120TIP3   OH266774   4.854   4.016  12.608  0.7060 -0.0179 -0.3708
15120TIP3    H166775   4.905   4.049  12.534  0.3564  0.5549 -0.3624
15120TIP3    H266776   4.841   4.093  12.664 -1.2989  0.1663 -1.0259
15121TIP3   OH266777   5.592   0.573   0.321  0.4202 -0.2659  0.3135
15121TIP3    H166778   5.657   0.579   0.391 -0.6548  1.3893  1.2036
15121TIP3    H266779   5.508   0.571   0.367 -0.2779  0.3937 -0.9141
15122TIP3   OH266780   2.079   6.098  16.769  0.0604  0.1795  0.0362
15122TIP3    H166781   2.067   6.042  16.693  1.1593 -0.5894  0.4295
15122TIP3    H266782   2.160   6.068  16.810  0.5199  1.8416  0.4240
15123TIP3   OH266783   1.523   6.462   0.699  0.6000 -0.3645 -0.1416
15123TIP3    H166784   1.541   6.399   0.630 -2.2763 -1.7303  0.2593
15123TIP3    H266785   1.491   6.539   0.654 -0.3859 -0.9209 -0.4092
15124TIP3   OH266786   0.354   5.726  14.744  0.1634 -0.0128  0.1826
15124TIP3    H166787   0.445   5.719  14.772  1.1369  0.6606 -2.6831
15124TIP3    H266788   0.306   5.669  14.805  2.5060 -0.5802  1.5624
15125TIP3   OH266789   6.010   3.745   3.619  0.6152 -0.1968  0.2791
15125TIP3    H166790   5.952   3.672   3.639 -1.0475  1.0793  0.1931
15125TIP3    H266791   6.011   3.750   3.523 -0.1875  0.5975  0.3049
15126TIP3   OH266792   0.175   0.652  14.773 -0.6996 -0.7606 -0.1327
15126TIP3    H166793   0.099   0.629  14.719 -0.1978 -1.6132 -0.4929
15126TIP3    H266794   0.247   0.662  14.710 -0.4265 -0.3436  0.2414
15127TIP3   OH266795   3.008   4.621   0.071  0.2749  0.4095  0.0629
15127TIP3    H166796   3.028   4.705   0.030 -2.6735  1.2514  0.2165
15127TIP3    H266797   3.058   4.621   0.153 -0.4753  2.4664  0.5392
15128TIP3   OH266798   0.590   2.824   5.215  0.1663 -0.2016 -0.3086
15128TIP3    H166799   0.653   2.858   5.151 -0.5294  2.0921  0.1824
15128TIP3    H266800   0.644   2.799   5.291  0.6327  0.5663 -0.3790
15129TIP3   OH266801   4.851   0.621   4.676 -0.1944  0.2592  0.3077
15129TIP3    H166802   4.890   0.672   4.747 -0.0480 -0.1147  0.4927
15129TIP3    H266803   4.854   0.530   4.706 -0.4091  0.1328 -0.0469
15130TIP3   OH266804   1.519   2.611   5.487 -0.6195 -0.0862 -0.3049
15130TIP3    H166805   1.573   2.624   5.565  0.8906  0.0897 -1.3607
15130TIP3    H266806   1.480   2.697   5.470 -1.2448 -0.2124  0.4545
15131TIP3   OH266807   3.245   1.935  14.719 -0.1429  0.3645  0.1514
15131TIP3    H166808   3.224   1.949  14.627 -0.6803 -1.4499 -0.0256
15131TIP3    H266809   3.183   1.989  14.767 -0.7676  0.2413 -0.5215
15132TIP3   OH266810   6.691   5.288  17.048 -0.1814 -0.2681 -0.2004
15132TIP3    H166811   6.602   5.295  17.014  0.0376  0.3885 -0.6293
15132TIP3    H266812   6.685   5.218  17.114 -1.0894  0.0103  0.0304
15133TIP3   OH266813   5.008   5.864   4.944 -0.0514 -0.3536  0.0783
15133TIP3    H166814   4.964   5.941   4.908  0.3540  0.5418  1.4205
15133TIP3    H266815   5.003   5.798   4.875  0.2178  1.1074 -1.3653
15134TIP3   OH266816   6.140   6.313   5.467 -0.1222 -0.1326  0.2361
15134TIP3    H166817   6.230   6.336   5.488 -0.7413  0.3734  2.4209
15134TIP3    H266818   6.147   6.235   5.411  1.6796  0.4626 -0.3847
15135TIP3   OH266819   1.576   2.497  14.541 -0.3640  0.8098 -0.8043
15135TIP3    H166820   1.622   2.415  14.524  0.2686  0.8338  0.7768
15135TIP3    H266821   1.640   2.553  14.584 -1.8085  0.8713  1.3621
15136TIP3   OH266822   1.490   0.342   5.985  0.5664 -0.3736  0.1092
15136TIP3    H166823   1.405   0.385   5.990  1.1306  0.9213 -1.0691
15136TIP3    H266824   1.479   0.261   6.034 -1.0813  0.2109  0.7291
15137TIP3   OH266825   0.176   4.478  16.097  0.2709 -0.6927  0.3887
15137TIP3    H166826   0.205   4.568  16.112 -0.2260 -0.6081  0.8294
15137TIP3    H266827   0.231   4.447  16.025 -2.2206  1.2688 -2.4765
15138TIP3   OH266828   1.080   3.862   1.388 -0.4593 -0.3222 -0.1250
15138TIP3    H166829   1.164   3.820   1.369 -0.7805 -0.9265 -0.2267
15138TIP3    H266830   1.016   3.791   1.385 -0.9583  0.1090  0.0914
15139TIP3   OH266831   0.885   0.742   1.237  0.2359 -0.2405 -0.0673
15139TIP3    H166832   0.889   0.820   1.181 -2.1297  2.2115  3.0343
15139TIP3    H266833   0.832   0.680   1.187 -0.9244  1.4942 -1.0514
15140TIP3   OH266834   4.696   0.552  13.815 -0.1196 -0.2235 -0.4401
15140TIP3    H166835   4.772   0.605  13.789  0.2134 -0.2435  0.4969
15140TIP3    H266836   4.732   0.466  13.836 -0.4097 -0.2430 -0.0199
15141TIP3   OH266837   3.759   5.201  13.308 -0.2595  0.4354  0.1035
15141TIP3    H166838   3.751   5.124  13.251  0.9859 -0.0059  0.4922
15141TIP3    H266839   3.760   5.275  13.249  0.3149  0.0248 -0.4092
15142TIP3   OH266840   4.907   3.002  14.720  0.2198  0.2595 -0.1675
15142TIP3    H166841   4.909   2.913  14.754  0.1026 -0.1607 -1.2408
15142TIP3    H266842   4.815   3.028  14.723  0.1843  0.1531 -0.3328
15143TIP3   OH266843   2.342   4.628   0.223  0.7745 -0.5782 -0.2212
15143TIP3    H166844   2.372   4.625   0.314  2.2576 -1.4529 -0.7277
15143TIP3    H266845   2.280   4.555   0.216 -1.2272  0.9765  0.7110
15144TIP3   OH266846   0.590   2.248   2.629 -0.6168  0.4486 -0.6248
15144TIP3    H166847   0.646   2.171   2.616  1.1010  1.2034  1.8787
15144TIP3    H266848   0.586   2.290   2.543  2.4381  0.1930 -0.9434
15145TIP3   OH266849   1.085   2.066  16.163 -0.4057  0.2225  0.6186
15145TIP3    H166850   1.167   2.067  16.212  1.2957 -2.0397 -2.0373
15145TIP3    H266851   1.074   2.156  16.132  0.8876  0.6118  1.2836
15146TIP3   OH266852   1.270   3.660   2.966  0.5476 -0.0317  0.2036
15146TIP3    H166853   1.354   3.697   2.942  1.0129 -0.5245  1.0371
15146TIP3    H266854   1.280   3.635   3.058  0.4903 -2.8768 -0.5108
15147TIP3   OH266855   3.694   0.147  10.650 -0.2632 -0.0589 -0.1790
15147TIP3    H166856   3.690   0.066  10.600 -0.0617  0.6693 -1.3994
15147TIP3    H266857   3.754   0.128  10.722  1.3250 -0.4401 -1.5493
15148TIP3   OH266858   6.018   4.818  11.588 -0.3131 -0.1513 -0.4847
15148TIP3    H166859   5.968   4.799  11.508 -2.5850  2.4640  0.2247
15148TIP3    H266860   5.985   4.903  11.617  0.4699 -1.0439  3.2586
15149TIP3   OH266861   4.920   5.205   5.447 -0.2705 -0.1306  0.2170
15149TIP3    H166862   4.924   5.296   5.473 -1.0455 -0.0452  0.0455
15149TIP3    H266863   4.853   5.202   5.378  0.5808 -0.6209 -0.6071
15150TIP3   OH266864   4.221   5.822  12.220 -0.6671  0.9286  0.2040
15150TIP3    H166865   4.196   5.743  12.268  0.4628  0.4156 -0.0446
15150TIP3    H266866   4.270   5.874  12.284  3.4312 -1.0723 -1.1244
15151TIP3   OH266867   4.792   1.026   5.349  0.2041  0.3033 -0.3088
15151TIP3    H166868   4.863   1.080   5.314 -0.6238  0.9540 -0.9927
15151TIP3    H266869   4.757   0.979   5.274  1.8476 -2.3274  0.4929
15152TIP3   OH266870   2.698   0.040  13.826  0.1721  0.0864  0.1712
15152TIP3    H166871   2.730  -0.048  13.804 -0.1189  0.0087  0.0547
15152TIP3    H266872   2.626   0.055  13.765  0.4397  0.5470 -0.0343
15153TIP3   OH266873   4.236   2.688  15.079 -0.2483  0.4980  0.4897
15153TIP3    H166874   4.165   2.733  15.033  0.2810 -0.1924 -1.0630
15153TIP3    H266875   4.315   2.716  15.033  0.3058 -0.1308  1.0533
15154TIP3   OH266876   5.035   1.568  11.360  0.0081 -0.8345  0.2051
15154TIP3    H166877   5.075   1.634  11.416 -1.2939 -0.9067  1.2357
15154TIP3    H266878   5.021   1.612  11.276  1.5939 -0.6116  0.0492
15155TIP3   OH266879   5.014   5.561  16.540  0.5700  0.0226  0.5084
15155TIP3    H166880   4.982   5.554  16.630  1.1111 -0.6933  0.6490
15155TIP3    H266881   5.105   5.590  16.549 -0.0090  2.0384  0.1054
15156TIP3   OH266882   3.126   0.460   2.389 -0.0696  0.1865  0.2378
15156TIP3    H166883   3.089   0.385   2.342 -0.1548  0.9593 -0.9438
15156TIP3    H266884   3.143   0.427   2.477 -1.1744 -0.9035  0.0518
15157TIP3   OH266885   2.566   1.887   6.028 -0.0128  0.0921  0.5502
15157TIP3    H166886   2.603   1.975   6.023 -0.8273  0.3436 -1.8472
15157TIP3    H266887   2.504   1.891   6.101  2.2173  0.5976  2.4413
15158TIP3   OH266888   0.842   4.824   1.092  0.6062  0.6846  0.5051
15158TIP3    H166889   0.795   4.878   1.155  1.9626  0.4666  1.7463
15158TIP3    H266890   0.785   4.819   1.016 -1.2471  0.6303  1.8745
15159TIP3   OH266891   1.421   6.213  16.312 -0.0063  0.2418  0.8394
15159TIP3    H166892   1.328   6.192  16.302  0.1503 -0.6530  1.1983
15159TIP3    H266893   1.435   6.213  16.407 -0.0247  2.1203  0.8593
15160TIP3   OH266894   6.341   5.369   5.654  0.4476  0.2879 -0.0717
15160TIP3    H166895   6.344   5.418   5.572 -0.8661  0.1299 -0.2363
15160TIP3    H266896   6.350   5.278   5.628  0.1085  0.2440 -0.0399
15161TIP3   OH266897   6.440   5.901  12.749 -0.2858  0.0843 -0.0428
15161TIP3    H166898   6.437   5.888  12.654 -0.2405 -1.2344  0.1358
15161TIP3    H266899   6.534   5.903  12.770 -0.2927  0.6144 -0.0579
15162TIP3   OH266900   3.414   4.629   0.744  0.1998 -0.0630 -0.5956
15162TIP3    H166901   3.354   4.702   0.761  0.4805  0.0434 -0.0353
15162TIP3    H266902   3.378   4.556   0.794 -0.6356 -0.5958 -1.9506
15163TIP3   OH266903   6.671   0.008   2.779  0.4528  0.5783 -0.0164
15163TIP3    H166904   6.747   0.016   2.721  0.8997 -0.0617  0.4775
15163TIP3    H266905   6.621   0.089   2.765 -0.1344 -0.1284 -2.2870
15164TIP3   OH266906   0.084   4.618   4.590  0.2636 -0.5140 -0.2952
15164TIP3    H166907   0.003   4.606   4.640  0.6827  0.2412  0.5776
15164TIP3    H266908   0.096   4.713   4.587  0.4333 -0.5678 -1.5427
15165TIP3   OH266909   1.920   6.497  12.048  0.2933  0.3913 -0.1406
15165TIP3    H166910   1.891   6.406  12.052  2.1924 -0.1832  1.9140
15165TIP3    H266911   1.861   6.544  12.106 -1.3213  0.6774 -1.9888
15166TIP3   OH266912   6.669   5.985   0.206 -0.1254 -0.3663  0.1583
15166TIP3    H166913   6.678   5.912   0.267 -1.6210  2.7478  4.3078
15166TIP3    H266914   6.750   6.035   0.215 -1.1742  1.2052  1.1915
15167TIP3   OH266915   5.330   2.447   6.503  0.3958 -0.1176 -0.4952
15167TIP3    H166916   5.394   2.501   6.549 -0.9657 -1.5037  3.2079
15167TIP3    H266917   5.383   2.382   6.456  1.8138 -0.5606  1.6144
15168TIP3   OH266918   2.407   5.331  16.473 -0.4198  0.3770  0.2264
15168TIP3    H166919   2.432   5.362  16.386  2.3373  0.3398  0.9395
15168TIP3    H266920   2.387   5.239  16.461  0.1564  0.3208 -0.3424
15169TIP3   OH266921   2.727   4.587  11.151 -0.2931  0.2359  0.5263
15169TIP3    H166922   2.791   4.523  11.119 -0.7940  0.2935 -0.6236
15169TIP3    H266923   2.739   4.664  11.095 -3.9225 -1.1022 -2.3736
15170TIP3   OH266924   5.919   2.064  15.494  0.2111  0.4963 -0.1608
15170TIP3    H166925   5.923   2.070  15.590 -0.7366  0.5417 -0.1223
15170TIP3    H266926   6.010   2.076  15.466  0.4652  0.7050  0.7215
15171TIP3   OH266927   2.760   1.237   5.987 -0.2855 -0.5014  0.2358
15171TIP3    H166928   2.684   1.271   5.940 -0.7341 -0.9351  0.6411
15171TIP3    H266929   2.724   1.199   6.067  0.5972  1.5114  1.6524
15172TIP3   OH266930   3.759   5.067  14.960 -0.1492 -0.3068 -0.2453
15172TIP3    H166931   3.714   5.008  15.021 -0.2112 -0.0334 -0.0257
15172TIP3    H266932   3.719   5.049  14.875 -1.4568  0.7309  0.1409
15173TIP3   OH266933   5.492   5.343   2.951 -0.8564 -0.2299 -0.0936
15173TIP3    H166934   5.434   5.296   3.011 -2.8739  1.1790 -0.8516
15173TIP3    H266935   5.441   5.419   2.924  0.4741 -0.1926 -2.6587
15174TIP3   OH266936   1.424   5.611   1.057 -0.0425 -0.5909  0.5383
15174TIP3    H166937   1.380   5.599   0.973 -0.7301  0.5488  0.7124
15174TIP3    H266938   1.470   5.529   1.073 -1.5679 -1.5770  0.0078
15175TIP3   OH266939   2.209   1.218   4.183  0.2068 -0.6079  0.2189
15175TIP3    H166940   2.152   1.293   4.167 -1.0091 -1.1671  1.9077
15175TIP3    H266941   2.293   1.258   4.207 -0.2250  0.2086  0.4118
15176TIP3   OH266942   2.055   4.370   6.106 -0.0772 -0.3234  0.2982
15176TIP3    H166943   1.966   4.368   6.141  0.0700  1.5145  0.8731
15176TIP3    H266944   2.111   4.359   6.183  0.2180  1.8010  0.4281
15177TIP3   OH266945   2.859   5.471   4.681 -0.7182 -0.4655 -0.2696
15177TIP3    H166946   2.891   5.436   4.598  0.7476  0.3913 -0.0891
15177TIP3    H266947   2.907   5.553   4.693 -3.3849  1.1553 -0.2140
15178TIP3   OH266948   2.677   4.953   3.709 -0.4902  0.0927 -0.7570
15178TIP3    H166949   2.642   4.943   3.798 -0.2021 -1.6821 -0.8318
15178TIP3    H266950   2.643   4.878   3.661  1.1015 -0.1117 -1.5925
15179TIP3   OH266951   5.010   3.593  16.122  0.0726 -0.2359  0.0374
15179TIP3    H166952   5.089   3.539  16.137  0.5599  0.7183  0.9883
15179TIP3    H266953   4.994   3.587  16.028  1.2479 -0.5071 -0.1540
15180TIP3   OH266954   3.836   6.261   4.017 -0.9291 -0.1941 -0.0364
15180TIP3    H166955   3.862   6.292   4.104  0.1817 -1.0535 -0.0412
15180TIP3    H266956   3.916   6.266   3.965 -1.6738  0.6484 -1.1111
15181TIP3   OH266957   5.804   2.314  14.744 -0.5669  0.1619  0.0172
15181TIP3    H166958   5.886   2.351  14.775 -0.9083  0.1386  0.9836
15181TIP3    H266959   5.814   2.308  14.649  0.4796  0.3090  0.1119
15182TIP3   OH266960   2.758   1.657   4.443 -0.2428 -0.3813 -0.0734
15182TIP3    H166961   2.799   1.739   4.415  0.0610 -0.4444  0.1905
15182TIP3    H266962   2.784   1.593   4.377 -0.3112 -0.3121 -0.1678
15183TIP3   OH266963   6.040   5.100   3.594  0.6220  0.5047 -0.2773
15183TIP3    H166964   5.956   5.106   3.548  0.4195  0.5239  0.1000
15183TIP3    H266965   6.097   5.160   3.546  0.0321  1.5657  0.3246
15184TIP3   OH266966   2.568   5.155  11.512  0.4099  0.4621  0.3469
15184TIP3    H166967   2.572   5.130  11.420  3.3026 -0.6172  0.7275
15184TIP3    H266968   2.613   5.240  11.516  1.0823  0.0784  0.9155
15185TIP3   OH266969   0.077   1.955  16.168  0.2546 -0.2573 -0.1623
15185TIP3    H166970   0.108   2.045  16.179 -0.6303  0.1247 -0.7038
15185TIP3    H266971   0.091   1.937  16.075 -1.5393  0.0930 -0.5260
15186TIP3   OH266972   0.678   4.310   6.579 -0.2209 -0.4727 -0.4377
15186TIP3    H166973   0.654   4.245   6.513  0.9498 -2.5021  1.0740
15186TIP3    H266974   0.711   4.258   6.652  0.7528  1.8537  0.8062
15187TIP3   OH266975   4.452   2.870   4.755 -0.1724 -0.4704 -0.4551
15187TIP3    H166976   4.539   2.847   4.723  1.0727  0.2731  2.2362
15187TIP3    H266977   4.438   2.810   4.829 -0.5148  1.6108  1.2164
15188TIP3   OH266978   5.107   6.023  13.790  0.2821  0.2666 -0.4127
15188TIP3    H166979   5.106   6.070  13.874  0.0496  0.4533 -0.5186
15188TIP3    H266980   5.027   6.051  13.746  1.5093  1.9563 -1.6708
15189TIP3   OH266981   4.503   2.568  15.761 -0.4744  0.5657 -0.3170
15189TIP3    H166982   4.479   2.660  15.747  0.6245  0.8402 -0.4490
15189TIP3    H266983   4.596   2.571  15.782 -0.8804 -0.3437  1.7346
15190TIP3   OH266984   1.858   0.084   3.467  0.2756 -0.0631 -1.0162
15190TIP3    H166985   1.835   0.177   3.463  2.7307  0.5947 -0.6914
15190TIP3    H266986   1.810   0.044   3.395  0.2937  1.7090 -2.0359
15191TIP3   OH266987   4.375   4.925  10.122 -0.0160  0.0063  0.1464
15191TIP3    H166988   4.293   4.910  10.075 -0.2608  0.7413  0.3383
15191TIP3    H266989   4.378   4.856  10.188 -0.7182  0.2590  0.4544
15192TIP3   OH266990   5.289   3.780  17.003  0.2498  0.3308 -0.8972
15192TIP3    H166991   5.250   3.718  16.942 -0.3412  2.2956 -2.5537
15192TIP3    H266992   5.281   3.865  16.960  3.1807  1.2613  0.2854
15193TIP3   OH266993   2.505   0.053  11.376  0.1425  0.1395 -0.1778
15193TIP3    H166994   2.534   0.025  11.463 -1.0189  0.4178  0.3094
15193TIP3    H266995   2.564   0.124  11.353 -0.4842  1.0759  1.0450
15194TIP3   OH266996   2.979   3.871   6.513  0.5364  0.1290 -0.3611
15194TIP3    H166997   3.015   3.784   6.529 -0.2111  0.2125  1.9787
15194TIP3    H266998   3.019   3.900   6.431 -0.0613 -2.8663 -1.7681
15195TIP3   OH266999   1.067   0.415   1.429  0.1608  0.1551  0.6996
15195TIP3    H167000   1.146   0.426   1.483  0.5730 -0.7983  0.2987
15195TIP3    H267001   1.034   0.329   1.454  0.7122 -0.5714 -1.0441
15196TIP3   OH267002   1.014   0.280  12.590  0.3826  0.0482 -0.1046
15196TIP3    H167003   1.035   0.224  12.516 -1.5115 -1.3110  0.3500
15196TIP3    H267004   1.082   0.262  12.655  2.4964  1.8159 -1.7545
15197TIP3   OH267005   3.064   6.032  16.139  0.2778  0.3799 -0.6501
15197TIP3    H167006   3.098   6.033  16.049  1.4761 -0.6391 -0.2269
15197TIP3    H267007   3.040   6.123  16.157  1.1527  0.8076 -1.5850
15198TIP3   OH267008   2.974   3.684  13.254 -0.3647  0.0287 -0.1435
15198TIP3    H167009   2.901   3.640  13.212 -0.3990 -0.5484  0.5140
15198TIP3    H267010   3.007   3.745  13.188  0.6974 -2.1213 -1.6560
15199TIP3   OH267011   2.363   3.296   5.287  0.2941  0.2731  0.6267
15199TIP3    H167012   2.299   3.340   5.232  0.9007 -0.3991 -0.6347
15199TIP3    H267013   2.316   3.280   5.370 -0.8135  0.7417  0.1021
15200TIP3   OH267014   4.126   3.906  13.413 -0.4685 -0.5767 -0.3004
15200TIP3    H167015   4.034   3.882  13.415 -0.9072  1.1377  1.7948
15200TIP3    H267016   4.128   3.992  13.370 -0.0465  0.1625  1.1848
15201TIP3   OH267017   3.020   5.721  13.644 -0.0943 -0.5073 -0.1983
15201TIP3    H167018   3.005   5.779  13.718 -1.4658 -1.2450  0.1339
15201TIP3    H267019   3.042   5.637  13.684 -3.0392 -1.5066 -0.5167
15202TIP3   OH267020   4.846   5.768   5.222 -0.0710 -0.1705  0.9442
15202TIP3    H167021   4.750   5.765   5.218 -0.1742  0.7131  2.3714
15202TIP3    H267022   4.874   5.682   5.191 -1.2822 -0.0483 -0.5315
15203TIP3   OH267023   1.725   5.385   3.747  0.1379 -0.4912 -0.2178
15203TIP3    H167024   1.808   5.349   3.779  0.6900 -0.6609 -1.7934
15203TIP3    H267025   1.669   5.309   3.732 -0.6990 -0.3220  1.8233
15204TIP3   OH267026   1.937   6.164   3.222 -0.3034 -0.0515 -0.3869
15204TIP3    H167027   1.981   6.149   3.138  0.4148 -0.5224  0.0625
15204TIP3    H267028   1.905   6.078   3.248 -0.3970  0.0657 -0.1148
15205TIP3   OH267029   6.672   5.020   5.076 -0.5241 -0.1670  0.0735
15205TIP3    H167030   6.611   5.090   5.053  1.8451  1.4072 -1.6405
15205TIP3    H267031   6.709   5.048   5.159 -3.2792 -1.9553  1.9838
15206TIP3   OH267032   4.676   2.949  14.547 -0.5341  0.5552 -0.1591
15206TIP3    H167033   4.681   3.026  14.491 -1.9504  1.8806  1.4935
15206TIP3    H267034   4.731   2.884  14.503  0.9062  2.5819 -1.4317
15207TIP3   OH267035   0.396   3.265  16.297  0.1146  0.1329  0.4024
15207TIP3    H167036   0.428   3.347  16.334 -0.7815  0.1548  1.1592
15207TIP3    H267037   0.450   3.250  16.219  0.8719  0.9802  0.7593
15208TIP3   OH267038   0.561   1.775  14.478  0.5422  0.3996 -0.2362
15208TIP3    H167039   0.546   1.697  14.424  1.3165  0.9091 -1.2048
15208TIP3    H267040   0.501   1.765  14.552 -0.8333 -0.1104 -1.4030
15209TIP3   OH267041   0.946   1.436  13.093  0.1165 -0.0467  0.1024
15209TIP3    H167042   0.866   1.487  13.079 -0.1789 -0.9296 -1.6092
15209TIP3    H267043   0.961   1.441  13.187 -1.3144  1.0896  0.2964
15210TIP3   OH267044   2.176   4.921   5.941  0.5035  0.0629  0.2517
15210TIP3    H167045   2.209   5.010   5.931  2.1055 -0.5999 -0.6479
15210TIP3    H267046   2.237   4.880   6.002  1.2310 -1.1109 -1.2314
15211TIP3   OH267047   2.410   1.428   5.126  0.2262  0.5154  0.5075
15211TIP3    H167048   2.341   1.449   5.188 -0.4999  0.1678 -0.1769
15211TIP3    H267049   2.392   1.337   5.100 -1.0333  1.5018 -2.2125
15212TIP3   OH267050   1.296   0.476  12.565  0.4442 -0.4005  0.1240
15212TIP3    H167051   1.217   0.486  12.618  0.7372  2.5363  0.1120
15212TIP3    H267052   1.367   0.465  12.628  0.1789 -2.0021  0.1622
15213TIP3   OH267053   1.700   0.630  15.816 -0.2828 -0.4550 -0.1302
15213TIP3    H167054   1.661   0.563  15.873  1.5576 -2.8738 -1.6134
15213TIP3    H267055   1.757   0.680  15.874  0.1623 -1.7059  0.5269
15214TIP3   OH267056   5.835   4.423   4.269  0.3852  0.3760 -0.2473
15214TIP3    H167057   5.794   4.506   4.244 -0.1934  0.2562  0.2847
15214TIP3    H267058   5.929   4.441   4.268  0.2533  1.1012  0.0759
15215TIP3   OH267059   4.434   6.564  15.196 -0.0880 -0.9188  0.3106
15215TIP3    H167060   4.493   6.635  15.171 -1.4894 -0.0475 -0.5929
15215TIP3    H267061   4.474   6.486  15.158  0.4220 -0.3239 -0.3985
15216TIP3   OH267062   4.536   5.619  12.939 -0.2615 -0.6469 -0.5554
15216TIP3    H167063   4.600   5.636  13.008 -0.1631  1.6895 -1.1749
15216TIP3    H267064   4.451   5.628  12.982 -0.1921 -1.4532 -0.2446
15217TIP3   OH267065   2.850   2.733   3.623 -0.1320  0.2603 -0.1961
15217TIP3    H167066   2.865   2.682   3.543 -0.1383 -0.0628  0.0085
15217TIP3    H267067   2.766   2.778   3.608 -0.6042 -0.5494  0.0213
15218TIP3   OH267068   6.102   5.183  16.140 -0.0521 -0.2766 -0.0380
15218TIP3    H167069   6.138   5.242  16.074 -1.2656 -0.5924 -1.0101
15218TIP3    H267070   6.151   5.102  16.130  0.5631  0.0553  0.2516
15219TIP3   OH267071   3.150   2.436   6.271 -0.1255  0.2895  0.1894
15219TIP3    H167072   3.131   2.390   6.353  0.5571  0.9997  0.7514
15219TIP3    H267073   3.188   2.369   6.215  0.7938  0.1330  0.9795
15220TIP3   OH267074   0.043   3.229  14.820  0.0304 -0.0612  0.5218
15220TIP3    H167075   0.029   3.221  14.914 -1.8827 -2.0381  0.1124
15220TIP3    H267076   0.069   3.141  14.792  1.2073  0.6627 -0.7079
15221TIP3   OH267077   2.206   1.399   0.548 -0.7511  0.4250  0.3044
15221TIP3    H167078   2.151   1.321   0.540 -1.4216  1.0099 -0.8260
15221TIP3    H267079   2.295   1.365   0.544 -1.0323 -0.3200  0.1677
15222TIP3   OH267080   6.215   6.295  11.567  0.0634  0.1492 -0.0200
15222TIP3    H167081   6.246   6.216  11.611 -0.7072 -0.7803 -1.1279
15222TIP3    H267082   6.154   6.264  11.500 -0.4566  1.6965 -0.3018
15223TIP3   OH267083   4.069   0.523   3.724  0.1434 -0.4092  0.0636
15223TIP3    H167084   4.061   0.562   3.811  0.0091  0.0716 -0.1588
15223TIP3    H267085   4.061   0.429   3.739 -0.8213 -0.2755  0.4706
15224TIP3   OH267086   4.412   6.755  15.775 -0.3035 -0.0772 -0.1719
15224TIP3    H167087   4.448   6.840  15.751 -2.2595  1.2521  1.3982
15224TIP3    H267088   4.344   6.738  15.709  0.0321 -0.3725 -0.4388
15225TIP3   OH267089   1.436   5.272   1.268  0.3752 -0.1900 -0.1999
15225TIP3    H167090   1.440   5.237   1.179  0.2008  1.1419 -0.7488
15225TIP3    H267091   1.359   5.328   1.268  2.7949  3.2692 -0.5345
15226TIP3   OH267092   4.182   3.229  16.488 -0.0693 -0.0204  0.4194
15226TIP3    H167093   4.277   3.243  16.486  0.3688 -2.8382 -0.5057
15226TIP3    H267094   4.153   3.247  16.399  0.1349 -2.2968 -0.1457
15227TIP3   OH267095   2.823   3.765   3.019  0.1288 -0.4826 -0.1246
15227TIP3    H167096   2.813   3.794   3.110 -0.0400 -0.2352 -0.2221
15227TIP3    H267097   2.771   3.684   3.014 -0.6612  0.0223 -0.2518
15228TIP3   OH267098   5.305   1.762   3.353 -0.1798 -0.1755 -0.2595
15228TIP3    H167099   5.316   1.854   3.376 -2.1925  0.4605 -1.6807
15228TIP3    H267100   5.247   1.728   3.421  2.0968 -0.9305  1.3745
15229TIP3   OH267101   1.457   4.659  13.379  0.1028  0.5385  0.7301
15229TIP3    H167102   1.442   4.711  13.457 -1.5933  0.5797  0.4032
15229TIP3    H267103   1.493   4.576  13.411 -0.2958  0.6742  1.5388
15230TIP3   OH267104   0.014   2.461  14.544  0.1828  0.0494 -0.5077
15230TIP3    H167105   0.063   2.383  14.570  0.5568  0.5893  0.4462
15230TIP3    H267106   0.038   2.476  14.453  0.5042 -0.6558 -0.5428
15231TIP3   OH267107   3.062   6.123   2.296 -0.1377  0.3837  0.5117
15231TIP3    H167108   2.983   6.112   2.244  0.8826 -0.5039 -0.8835
15231TIP3    H267109   3.048   6.068   2.373  0.5803 -2.6371 -1.4496
15232TIP3   OH267110   3.483   6.139   2.066 -0.0245  0.1103 -0.4087
15232TIP3    H167111   3.517   6.055   2.097  1.0169  0.1387 -1.4276
15232TIP3    H267112   3.529   6.205   2.120 -0.2135  0.0551 -0.1817
15233TIP3   OH267113   0.472   4.506  12.185 -0.3430 -0.3921 -0.3814
15233TIP3    H167114   0.545   4.534  12.241 -1.3167  2.2125 -0.3225
15233TIP3    H267115   0.514   4.476  12.105  0.8528  0.4959 -0.1147
15234TIP3   OH267116   3.502   3.345   5.333  0.4748  0.7800  0.3512
15234TIP3    H167117   3.430   3.370   5.275 -0.1387 -0.5953  0.4933
15234TIP3    H267118   3.463   3.343   5.420  0.8292  0.6117  0.5065
15235TIP3   OH267119   2.879   6.035  10.233 -0.0782 -0.1064 -0.0685
15235TIP3    H167120   2.897   5.966  10.169  0.7202 -0.9499  1.0392
15235TIP3    H267121   2.933   6.109  10.205 -0.8461  0.0356 -1.1932
15236TIP3   OH267122   0.847   4.111  12.047 -0.5112 -0.0643 -0.3503
15236TIP3    H167123   0.818   4.155  12.127 -1.6088 -2.0780  0.3982
15236TIP3    H267124   0.793   4.150  11.978 -2.0039 -0.7241  0.4108
15237TIP3   OH267125   5.952   1.128   5.319 -0.2148  0.0858 -0.1177
15237TIP3    H167126   5.988   1.087   5.397  1.5277 -0.2592 -1.0789
15237TIP3    H267127   5.933   1.054   5.261  0.8323  0.4889 -0.9841
15238TIP3   OH267128   1.110   1.341  15.865 -0.0727 -0.1075 -0.5910
15238TIP3    H167129   1.043   1.280  15.832 -2.1576  0.9788  1.4415
15238TIP3    H267130   1.087   1.425  15.825  0.5114  0.1309 -0.4290
15239TIP3   OH267131   3.198   3.217   3.146 -0.0610  0.7561 -0.2733
15239TIP3    H167132   3.197   3.241   3.053 -0.2561  1.1379 -0.1747
15239TIP3    H267133   3.176   3.298   3.192  0.8800  0.7783  0.1528
15240TIP3   OH267134   1.537   4.049   5.481  0.0226  0.5722  0.3184
15240TIP3    H167135   1.589   4.101   5.420  0.3208 -0.5742 -0.4294
15240TIP3    H267136   1.461   4.104   5.501  1.1569  1.9667  0.8670
15241TIP3   OH267137   3.373   1.395  14.715 -0.0685 -0.1415 -0.3182
15241TIP3    H167138   3.336   1.483  14.721  0.5020  0.0469  0.5132
15241TIP3    H267139   3.307   1.339  14.756 -0.2851 -0.0614 -0.5522
15242TIP3   OH267140   4.263   4.027   1.126 -0.1746  0.1965 -0.1350
15242TIP3    H167141   4.239   4.119   1.137 -0.2391  0.2962 -1.0759
15242TIP3    H267142   4.181   3.984   1.102 -0.0123  0.0086 -0.3492
15243TIP3   OH267143   5.524   2.380   0.830 -0.3565 -0.4430  0.0078
15243TIP3    H167144   5.600   2.438   0.835 -1.7491  1.3950  0.5768
15243TIP3    H267145   5.544   2.308   0.890  0.4170  0.6291  1.0503
15244TIP3   OH267146   6.235   2.474  14.839 -0.2408 -0.0347 -0.2746
15244TIP3    H167147   6.263   2.565  14.828 -0.9748  0.3921  1.2905
15244TIP3    H267148   6.309   2.422  14.808 -0.6967  1.0605 -3.4736
15245TIP3   OH267149   0.775   4.911   0.333 -0.0356 -0.3112 -0.1881
15245TIP3    H167150   0.681   4.899   0.342 -0.2699  0.5386 -1.2945
15245TIP3    H267151   0.785   4.963   0.253  1.5644 -3.3486 -2.0570
15246TIP3   OH267152   1.924   3.089   4.556  0.0866  0.0447 -0.3824
15246TIP3    H167153   1.929   2.998   4.527 -0.6578  1.1530 -4.2564
15246TIP3    H267154   2.006   3.128   4.527 -0.6593  1.1938 -0.9873
15247TIP3   OH267155   1.546   4.764  15.758 -0.5140  0.2258  0.2509
15247TIP3    H167156   1.613   4.761  15.826 -0.0467 -1.4314 -0.2661
15247TIP3    H267157   1.464   4.747  15.805 -0.3971  0.7524  0.6505
15248TIP3   OH267158   1.673   5.948   2.862 -0.5074 -0.3939 -0.3327
15248TIP3    H167159   1.661   5.944   2.957  0.3776  2.1189 -0.0849
15248TIP3    H267160   1.608   5.887   2.827 -0.9412 -1.2221  1.8878
15249TIP3   OH267161   4.292   5.663   3.442 -0.2900  0.7938 -0.1462
15249TIP3    H167162   4.328   5.701   3.361  1.8989  1.5139  1.1156
15249TIP3    H267163   4.248   5.583   3.413  1.8374  0.1933 -1.8644
15250TIP3   OH267164   2.599   4.717   3.368  0.4241 -0.1650 -0.1644
15250TIP3    H167165   2.572   4.627   3.347 -1.7724  0.5695 -0.5896
15250TIP3    H267166   2.659   4.740   3.297 -0.8042 -0.5117 -1.3505
15251TIP3   OH267167   2.871   3.357   4.308  0.1779 -0.2330 -0.1775
15251TIP3    H167168   2.958   3.347   4.269  0.0983  0.3289 -0.5075
15251TIP3    H267169   2.877   3.436   4.362  0.5098 -1.4307  1.5835
15252TIP3   OH267170   2.857   2.671   1.979 -0.3850  0.2724  0.0396
15252TIP3    H167171   2.919   2.648   1.910 -2.6072 -0.5072 -1.7340
15252TIP3    H267172   2.823   2.587   2.010  0.3898  0.6269  1.9337
15253TIP3   OH267173   0.143   6.785  15.102  0.4287 -0.3328 -0.0508
15253TIP3    H167174   0.100   6.742  15.028 -1.9337 -2.3403  2.4038
15253TIP3    H267175   0.212   6.724  15.128 -0.3810 -0.8093  0.9833
15254TIP3   OH267176   2.119   0.595   5.147  0.3741  0.1656 -0.6842
15254TIP3    H167177   2.102   0.635   5.232  0.4034  2.1340 -1.5749
15254TIP3    H267178   2.209   0.561   5.154  1.0579  1.9455 -0.5106
15255TIP3   OH267179   3.586   6.413  11.396  0.0050  0.3103  0.4162
15255TIP3    H167180   3.550   6.501  11.411 -0.4174  0.4481 -1.2583
15255TIP3    H267181   3.521   6.354  11.433 -0.8267  0.6463 -0.4753
15256TIP3   OH267182   5.464   5.546  11.637  0.2502 -0.5647  0.1106
15256TIP3    H167183   5.441   5.520  11.548 -0.2487  0.6149 -0.1074
15256TIP3    H267184   5.381   5.576  11.675  0.7730  0.5145  0.4173
15257TIP3   OH267185   0.185   1.568  16.434 -0.0403  0.5846 -0.4186
15257TIP3    H167186   0.114   1.544  16.495 -0.0253 -0.6683 -0.8725
15257TIP3    H267187   0.142   1.623  16.369 -0.8517 -1.0526 -1.2973
15258TIP3   OH267188   4.084   3.447  15.879  0.2706 -0.2601  0.8016
15258TIP3    H167189   4.025   3.433  15.953 -1.8240 -0.5030 -0.8680
15258TIP3    H267190   4.073   3.539  15.856  0.9553 -0.1759  0.7934
15259TIP3   OH267191   0.928   1.015   4.551 -0.0241  0.2589  0.5018
15259TIP3    H167192   1.010   1.065   4.556  0.9844 -1.5103  2.5834
15259TIP3    H267193   0.894   1.035   4.464  1.3871  2.9162  0.4766
15260TIP3   OH267194   0.605   0.584  14.896 -0.4335 -0.1988  0.4575
15260TIP3    H167195   0.589   0.666  14.849 -1.2384 -0.5902  0.0388
15260TIP3    H267196   0.518   0.554  14.924 -0.4692 -2.2564 -1.6825
15261TIP3   OH267197   4.468   5.458   0.531 -0.0436  0.1637 -0.0542
15261TIP3    H167198   4.413   5.455   0.453 -1.5784 -1.6242  1.0614
15261TIP3    H267199   4.411   5.492   0.600  0.8538  0.2788  0.6471
15262TIP3   OH267200   4.810   6.336  15.512  0.4360 -0.0681 -0.4121
15262TIP3    H167201   4.802   6.400  15.441 -1.7417  0.4057  0.2465
15262TIP3    H267202   4.738   6.275  15.498  0.8834 -0.8240  0.5470
15263TIP3   OH267203   0.674   2.433  15.431 -0.4123 -0.2677 -0.2872
15263TIP3    H167204   0.589   2.464  15.399 -1.1642 -1.4972  0.5060
15263TIP3    H267205   0.660   2.412  15.523  0.3306 -1.9910 -0.5402
15264TIP3   OH267206   5.606   3.535   1.092 -0.0596  0.3785 -0.7826
15264TIP3    H167207   5.682   3.490   1.128  0.2107  2.0912  0.8488
15264TIP3    H267208   5.642   3.590   1.022  0.4915  2.3396  0.9738
15265TIP3   OH267209   4.263   1.466  16.484 -0.2033 -0.0998 -0.0756
15265TIP3    H167210   4.230   1.458  16.574 -0.7208  1.4679 -0.1090
15265TIP3    H267211   4.342   1.412  16.483  0.8161  1.3064  1.8346
15266TIP3   OH267212   5.719   1.451   0.078  0.1137 -0.5723  0.0584
15266TIP3    H167213   5.647   1.514   0.084 -0.1371 -0.8583  0.0607
15266TIP3    H267214   5.685   1.380   0.023  0.4566 -0.6238 -0.0886
15267TIP3   OH267215   1.859   2.801   4.144 -0.2974 -0.6455  0.2427
15267TIP3    H167216   1.773   2.760   4.155 -0.1438 -0.1342  4.3652
15267TIP3    H267217   1.921   2.738   4.181  0.7446  0.2717  0.0858
15268TIP3   OH267218   5.345   5.116   1.136  0.0674  0.6980 -0.1678
15268TIP3    H167219   5.436   5.101   1.111  0.3562  0.3336  1.0385
15268TIP3    H267220   5.297   5.122   1.054  1.3843  2.1720 -0.8615
15269TIP3   OH267221   1.397   5.831  14.685 -0.1863  0.1665  0.1592
15269TIP3    H167222   1.468   5.771  14.661 -0.7315 -1.1792  1.8183
15269TIP3    H267223   1.381   5.814  14.778  1.2974  4.6726  1.3337
15270TIP3   OH267224   0.467   1.278   2.315  0.1391 -0.2287  0.5767
15270TIP3    H167225   0.503   1.355   2.359 -0.8348  0.1872  0.6794
15270TIP3    H267226   0.543   1.224   2.294  1.1104  1.9773 -1.8689
15271TIP3   OH267227   4.908   0.102  14.600 -0.6088  0.6931 -0.8266
15271TIP3    H167228   4.857   0.180  14.623  0.0299  0.7233  0.5594
15271TIP3    H267229   4.999   0.130  14.608 -0.3500 -0.6825  1.5827
15272TIP3   OH267230   0.470   0.560  13.620 -0.0019 -0.6463  0.1813
15272TIP3    H167231   0.508   0.539  13.534 -0.5501 -2.1302  0.2854
15272TIP3    H267232   0.544   0.597  13.670 -0.0974  1.8586 -1.4612
15273TIP3   OH267233   5.173   2.693   1.130 -0.9474  0.7875  0.0238
15273TIP3    H167234   5.130   2.740   1.059  0.3127  1.5989 -0.2303
15273TIP3    H267235   5.211   2.616   1.088 -1.2073  0.6560  0.0331
15274TIP3   OH267236   3.978   5.594  10.728  0.4796  0.3857  0.5113
15274TIP3    H167237   3.972   5.550  10.643  0.6272  1.7344 -0.2146
15274TIP3    H267238   4.056   5.557  10.769  0.7661  0.1849 -0.2100
15275TIP3   OH267239   1.825   5.716   2.234 -0.3834  0.1695 -0.1247
15275TIP3    H167240   1.868   5.633   2.256 -0.2762  0.1420 -0.4398
15275TIP3    H267241   1.767   5.695   2.161  0.6102  0.6465 -1.0682
15276TIP3   OH267242   1.738   2.339  11.261  0.2549  0.3960 -0.6255
15276TIP3    H167243   1.645   2.332  11.239 -0.3195 -1.2427  2.1280
15276TIP3    H267244   1.755   2.433  11.266 -1.2013  0.7101 -1.2944
15277TIP3   OH267245   1.414   0.004   4.560  0.8075  0.3322 -0.0421
15277TIP3    H167246   1.483  -0.048   4.519 -1.5936 -3.4489  0.3907
15277TIP3    H267247   1.387  -0.049   4.636 -1.3110  2.6021  0.8505
15278TIP3   OH267248   3.286   5.911  14.454 -0.0007  0.4567  0.1514
15278TIP3    H167249   3.349   5.897  14.525 -1.0848  0.3348  1.1228
15278TIP3    H267250   3.292   6.004  14.435 -1.3075  0.9746  2.0209
15279TIP3   OH267251   5.560   0.349  17.162  0.0147 -0.2978 -0.5362
15279TIP3    H167252   5.605   0.274  17.124  0.9383 -0.6243  1.1605
15279TIP3    H267253   5.580   0.422  17.103  1.5268 -0.7687 -0.6240
15280TIP3   OH267254   1.357   5.125  14.476 -0.5744  0.4334  0.6430
15280TIP3    H167255   1.370   5.033  14.500 -0.9144 -0.0179 -0.8967
15280TIP3    H267256   1.267   5.144  14.501 -0.6990  0.1727  0.3864
15281TIP3   OH267257   6.439   4.663  13.892 -0.6846  0.4604 -0.4925
15281TIP3    H167258   6.392   4.625  13.818 -1.4011  1.3474 -0.5047
15281TIP3    H267259   6.530   4.667  13.863 -0.1826 -3.2339  0.3206
15282TIP3   OH267260   0.882   2.391  14.324 -0.3347 -0.6037  0.1982
15282TIP3    H167261   0.790   2.383  14.349  0.7333 -1.6906  4.1021
15282TIP3    H267262   0.893   2.483  14.300 -2.7306 -0.7837 -1.6892
15283TIP3   OH267263   3.910   6.610  14.305  0.4513  0.0551  0.2952
15283TIP3    H167264   3.944   6.698  14.323 -2.7731  1.6584 -0.9872
15283TIP3    H267265   3.980   6.567  14.255  1.1359  2.7660 -1.1760
15284TIP3   OH267266   0.670   2.768  11.072 -0.9144 -0.3227  0.2258
15284TIP3    H167267   0.717   2.687  11.093 -0.3109  0.0242  0.2052
15284TIP3    H267268   0.720   2.808  11.002 -0.0345  1.1157  1.6431
15285TIP3   OH267269   6.206   5.341   5.281  0.2073  0.8184 -0.1057
15285TIP3    H167270   6.189   5.435   5.288  0.1803  0.7834  0.3016
15285TIP3    H267271   6.300   5.332   5.296  0.2917  0.8262 -0.6075
15286TIP3   OH267272   4.239   4.421   1.802  0.3758 -0.1156  0.4334
15286TIP3    H167273   4.195   4.345   1.840 -0.2852  0.8941  1.7518
15286TIP3    H267274   4.305   4.445   1.867  1.1478 -0.0711 -0.3623
15287TIP3   OH267275   2.671   0.706  16.580 -0.3203  1.0175  0.0792
15287TIP3    H167276   2.600   0.667  16.530 -0.1064 -0.3894  0.8578
15287TIP3    H267277   2.743   0.715  16.519 -0.4956  0.5566 -0.1887
15288TIP3   OH267278   0.384   0.819  11.243  0.7854 -0.4433  0.2280
15288TIP3    H167279   0.386   0.807  11.338  0.3990  1.6991  0.5390
15288TIP3    H267280   0.443   0.892  11.227  1.3865 -1.2532 -1.2657
15289TIP3   OH267281   2.241   5.531   6.395  0.6233  0.1046 -0.8029
15289TIP3    H167282   2.212   5.471   6.326  1.1344  1.7768 -2.5304
15289TIP3    H267283   2.185   5.608   6.385  1.4351  0.8032 -0.0414
15290TIP3   OH267284   4.090   6.041   3.119  0.5304  0.3768 -0.1764
15290TIP3    H167285   4.127   6.038   3.031  0.0884 -0.2595 -0.3431
15290TIP3    H267286   4.103   5.953   3.154 -0.6037  0.2050 -0.1510
15291TIP3   OH267287   3.857   3.122   4.299 -0.2126 -0.1299 -0.3414
15291TIP3    H167288   3.873   3.206   4.342 -0.3866 -0.0684 -0.3949
15291TIP3    H267289   3.857   3.143   4.206  2.4468 -0.6480 -0.4948
15292TIP3   OH267290   0.579   6.491  12.556 -0.1540  0.5357 -0.0695
15292TIP3    H167291   0.530   6.420  12.514 -2.7329  2.3723 -0.2427
15292TIP3    H267292   0.605   6.548  12.484  3.7411 -1.1907 -0.1940
15293TIP3   OH267293   1.322   4.144  16.144 -0.2044 -0.1099 -0.1795
15293TIP3    H167294   1.260   4.203  16.186 -1.7794 -1.0080 -1.2142
15293TIP3    H267295   1.384   4.202  16.100 -1.2053  0.7840 -0.4211
15294TIP3   OH267296   1.423   2.837  11.880 -0.4158 -0.0530  0.2595
15294TIP3    H167297   1.343   2.828  11.828 -0.6148 -0.3821  0.6232
15294TIP3    H267298   1.460   2.749  11.882  0.2808  0.2159 -0.4243
15295TIP3   OH267299   0.120   2.026   4.837  0.4356 -0.0469 -0.0247
15295TIP3    H167300   0.051   2.048   4.900 -2.0866  0.0446 -2.6802
15295TIP3    H267301   0.129   1.931   4.844 -0.6427 -0.1806 -0.2778
15296TIP3   OH267302   4.343   0.807   4.721  0.1306  0.6887 -0.0904
15296TIP3    H167303   4.428   0.790   4.680  0.7593  2.1227  0.5852
15296TIP3    H267304   4.288   0.836   4.648 -0.5832 -2.7304 -1.0130
15297TIP3   OH267305   2.151   5.908  13.648 -0.3679  0.3371 -0.0403
15297TIP3    H167306   2.243   5.925  13.625 -0.1344 -0.6416  0.1466
15297TIP3    H267307   2.152   5.896  13.743 -0.5630 -0.4654 -0.1389
15298TIP3   OH267308   4.661   1.264  15.223 -0.0103  0.5868 -0.0711
15298TIP3    H167309   4.670   1.231  15.313  1.5608 -1.8399 -1.0794
15298TIP3    H267310   4.567   1.267  15.208 -0.4236  3.8838  2.6497
15299TIP3   OH267311   3.452   2.110   6.635  0.0069  0.2313  0.3131
15299TIP3    H167312   3.389   2.038   6.637  0.6015 -0.3340 -0.7483
15299TIP3    H267313   3.468   2.130   6.728 -1.0160 -0.2413  0.5997
15300TIP3   OH267314   2.156   3.130   5.872 -0.0946 -0.2806 -0.1544
15300TIP3    H167315   2.093   3.109   5.941 -1.6876 -0.6242 -1.6686
15300TIP3    H267316   2.200   3.209   5.903 -1.9523  0.5187  0.5292
15301TIP3   OH267317   2.115   0.790   4.547  0.4051  0.2035  0.0974
15301TIP3    H167318   2.142   0.879   4.525  0.1480  0.0598 -0.8603
15301TIP3    H267319   2.193   0.749   4.583  0.7344  0.5910 -0.1643
15302TIP3   OH267320   0.725   2.484  15.078  0.0830  0.0367 -0.4226
15302TIP3    H167321   0.692   2.412  15.025 -2.2685  0.5569  0.2497
15302TIP3    H267322   0.803   2.515  15.032 -0.3495 -1.2777 -2.0745
15303TIP3   OH267323   5.936   2.750   5.786  0.4376  0.4461 -0.0803
15303TIP3    H167324   6.001   2.704   5.840  0.9621 -0.0413 -1.1218
15303TIP3    H267325   5.952   2.719   5.697 -0.9059  0.7026 -0.4162
15304TIP3   OH267326   4.033   5.927  12.754  0.4638  0.2353 -0.3633
15304TIP3    H167327   3.969   5.994  12.731  2.4162  2.1145 -0.4960
15304TIP3    H267328   4.049   5.940  12.847  0.2146 -0.6314 -0.1954
15305TIP3   OH267329   5.436   4.409   3.471 -0.4798  0.3760  0.0643
15305TIP3    H167330   5.440   4.316   3.448 -0.0165  0.6344 -0.9517
15305TIP3    H267331   5.442   4.454   3.386  1.2033  1.3669  0.6879
15306TIP3   OH267332   1.103   6.141   5.333 -0.0725  0.0747  0.5882
15306TIP3    H167333   1.173   6.096   5.382  0.7658  0.2077 -0.4683
15306TIP3    H267334   1.142   6.225   5.308 -0.8196  0.3945  0.4946
15307TIP3   OH267335   6.497   0.651  14.664  0.0430  0.3719  0.3220
15307TIP3    H167336   6.530   0.707  14.594 -0.5737  0.2728 -0.0560
15307TIP3    H267337   6.428   0.703  14.705 -0.4232 -0.0463  0.0730
15308TIP3   OH267338   3.064   0.969  11.927  0.3744  0.3356  0.0914
15308TIP3    H167339   3.043   1.059  11.899  0.6498  0.0045 -1.2117
15308TIP3    H267340   3.143   0.979  11.980  0.5867  0.8496 -0.3074
15309TIP3   OH267341   6.717   6.096   5.278  0.1264 -0.1610 -0.1407
15309TIP3    H167342   6.793   6.100   5.336  0.6361 -3.0653 -0.5245
15309TIP3    H267343   6.753   6.105   5.190  0.3468 -3.4024 -0.4574
15310TIP3   OH267344   4.930   3.171   1.127  0.1167 -0.1989 -0.3104
15310TIP3    H167345   4.946   3.079   1.106 -0.2679 -0.6813  1.3874
15310TIP3    H267346   4.917   3.214   1.042  0.5579 -1.6618 -1.1246
15311TIP3   OH267347   2.283   4.041  14.604  0.5299  0.0541  0.6482
15311TIP3    H167348   2.277   4.135  14.621 -0.2952  0.3439 -1.1728
15311TIP3    H267349   2.377   4.024  14.592  0.7408  0.5084  1.5758
15312TIP3   OH267350   2.482   1.345   5.880  0.5027  0.8490  0.0043
15312TIP3    H167351   2.466   1.435   5.909  0.0043  1.3215 -1.6786
15312TIP3    H267352   2.522   1.354   5.794 -1.5919 -0.5541 -1.1574
15313TIP3   OH267353   0.518   1.961  13.766 -0.0466 -0.8129  0.1667
15313TIP3    H167354   0.584   2.005  13.712 -0.8220  0.2141  0.0292
15313TIP3    H267355   0.443   1.952  13.707  0.1159 -2.3520  0.1967
15314TIP3   OH267356   4.789   4.925  10.729 -0.8261  0.4794 -0.0686
15314TIP3    H167357   4.695   4.920  10.746 -0.4767 -2.5360  1.3150
15314TIP3    H267358   4.829   4.909  10.815  0.9641  2.3959 -0.5176
15315TIP3   OH267359   3.810   2.623  13.937 -0.3115 -0.0495  0.0747
15315TIP3    H167360   3.831   2.530  13.938  1.2986  0.1917 -3.3574
15315TIP3    H267361   3.884   2.665  13.979  1.0720 -0.0470 -2.2614
15316TIP3   OH267362   1.357   4.350  15.352  0.1834 -0.3899  0.0547
15316TIP3    H167363   1.379   4.442  15.370  0.5167 -0.4335 -0.1418
15316TIP3    H267364   1.405   4.301  15.418 -0.2748 -0.4017  0.3851
15317TIP3   OH267365   0.109   2.640  13.033 -0.0408 -0.0180 -0.1535
15317TIP3    H167366   0.141   2.653  13.122 -0.4479  1.1756 -0.1717
15317TIP3    H267367   0.187   2.617  12.982  0.3461  0.2756  0.3088
15318TIP3   OH267368   4.322   2.410   4.811 -0.1251 -0.4968 -0.1669
15318TIP3    H167369   4.255   2.352   4.847 -0.6411 -1.4109 -2.5596
15318TIP3    H267370   4.275   2.492   4.795 -0.8051 -1.2828 -2.2792
15319TIP3   OH267371   1.859   4.509   0.656  0.4490  0.6319 -0.0923
15319TIP3    H167372   1.833   4.580   0.714  2.8659  0.5218  1.1617
15319TIP3    H267373   1.954   4.507   0.662  0.5071 -1.6133 -1.4357
15320TIP3   OH267374   6.321   2.418  12.807 -0.1060 -0.4816  0.1884
15320TIP3    H167375   6.321   2.458  12.721 -0.7906 -0.1979  0.3156
15320TIP3    H267376   6.245   2.360  12.807 -0.6727  0.2545  0.9347
15321TIP3   OH267377   6.595   2.858  15.836  0.4028 -0.1858 -1.1081
15321TIP3    H167378   6.633   2.801  15.769  1.3456  0.6470 -1.2870
15321TIP3    H267379   6.631   2.945  15.818  0.1916  0.1730  0.1099
15322TIP3   OH267380   0.775   6.363  11.695  0.3864 -0.1281  0.4170
15322TIP3    H167381   0.834   6.396  11.762  0.7146  1.0158 -0.4235
15322TIP3    H267382   0.705   6.429  11.691 -0.2045 -0.7522  0.4080
15323TIP3   OH267383   6.211   1.228  15.457  0.1341  0.3895 -0.1022
15323TIP3    H167384   6.256   1.240  15.540  0.9705 -0.4905 -0.4149
15323TIP3    H267385   6.122   1.259  15.472  0.0404 -0.5770  1.3665
15324TIP3   OH267386   4.647   3.759  15.452  0.1844  0.2921  0.1265
15324TIP3    H167387   4.586   3.684  15.451  0.1122  0.3517 -0.1670
15324TIP3    H267388   4.613   3.816  15.521 -0.4623  0.6269 -0.4610
15325TIP3   OH267389   0.644   2.296  14.411 -0.4284 -0.1131  0.4679
15325TIP3    H167390   0.609   2.352  14.480  0.8409  0.8169  0.3569
15325TIP3    H267391   0.617   2.208  14.436 -1.0518  0.3561  1.4848
15326TIP3   OH267392   2.224   0.924  14.820  0.0442  0.0581 -0.5699
15326TIP3    H167393   2.172   1.003  14.805  0.2995  0.8978  2.5809
15326TIP3    H267394   2.182   0.882  14.895  1.9304 -1.0123 -0.0928
15327TIP3   OH267395   1.883   6.524  17.077  0.0807 -0.4836  0.3885
15327TIP3    H167396   1.794   6.560  17.078 -0.4569 -1.7765  0.6233
15327TIP3    H267397   1.930   6.578  17.013 -0.3763  1.3484  1.5429
15328TIP3   OH267398   3.978   4.390  14.564  0.3222  0.3188  0.0868
15328TIP3    H167399   4.052   4.393  14.625  0.8735  1.0968 -0.6056
15328TIP3    H267400   3.928   4.469  14.585  0.7146  0.7824 -0.7195
15329TIP3   OH267401   6.666   5.806   1.084 -0.1550  0.1674  0.0210
15329TIP3    H167402   6.687   5.795   1.177 -1.5958 -0.9820  0.2207
15329TIP3    H267403   6.739   5.765   1.038  1.9171  3.0442  0.5571
15330TIP3   OH267404   4.310   5.887  12.712  0.5848  0.0535 -0.4108
15330TIP3    H167405   4.214   5.887  12.710  0.5426 -0.4848  0.9571
15330TIP3    H267406   4.334   5.967  12.758  0.7586 -0.2003 -0.0506
15331TIP3   OH267407   1.042   2.936   2.628  0.0842 -0.1202 -0.4349
15331TIP3    H167408   0.976   2.876   2.593  1.4549 -0.5626 -2.3585
15331TIP3    H267409   1.114   2.879   2.654  1.1324  0.6050 -1.6682
15332TIP3   OH267410   0.004   5.210  15.732  0.4496  0.4006  0.0683
15332TIP3    H167411  -0.088   5.190  15.715  1.3171 -2.3834 -1.6211
15332TIP3    H267412   0.010   5.219  15.827 -1.3258 -0.7406  0.2982
15333TIP3   OH267413   1.908   1.402   5.524 -0.0477  0.5986 -0.1769
15333TIP3    H167414   1.874   1.315   5.506 -0.9641  1.3263 -2.0776
15333TIP3    H267415   1.880   1.422   5.613 -0.2822 -0.8258  0.0677
15334TIP3   OH267416   5.301   2.907  11.057 -0.2714  0.2301 -0.1296
15334TIP3    H167417   5.211   2.928  11.029 -0.0271 -0.7789 -1.8144
15334TIP3    H267418   5.290   2.856  11.137 -1.1774  0.5710 -0.0298
15335TIP3   OH267419   4.276   0.311  15.497 -0.1068 -0.5024  0.3768
15335TIP3    H167420   4.288   0.221  15.467  1.8086 -0.3482  0.6436
15335TIP3    H267421   4.307   0.311  15.587 -1.8894  0.0031  1.0114
15336TIP3   OH267422   2.959   0.073  13.283 -0.2345  0.3745 -0.1116
15336TIP3    H167423   3.001   0.037  13.361  1.1093  2.1724  0.0332
15336TIP3    H267424   3.022   0.136  13.248 -0.2873 -1.3351 -3.4386
15337TIP3   OH267425   6.187   3.309  16.804 -0.0854  0.1512  0.5783
15337TIP3    H167426   6.139   3.295  16.886  0.2645 -3.7928  0.2012
15337TIP3    H267427   6.137   3.261  16.738  2.4645 -1.2197 -0.4581
15338TIP3   OH267428   3.115   5.907  16.949  0.1602 -0.3971 -0.0634
15338TIP3    H167429   3.188   5.922  17.009  0.5456 -1.2824 -0.3054
15338TIP3    H267430   3.122   5.977  16.884 -2.0307  2.4312  2.5806
15339TIP3   OH267431   2.856   5.240   1.030  0.9340 -0.2090 -0.1855
15339TIP3    H167432   2.809   5.308   1.078  3.3990  1.8812 -0.6351
15339TIP3    H267433   2.909   5.195   1.096 -0.9675 -2.0356  0.1783
15340TIP3   OH267434   5.287   2.126   5.070 -0.3089 -0.1663  0.3962
15340TIP3    H167435   5.377   2.135   5.101 -0.4627  2.3553  0.1889
15340TIP3    H267436   5.291   2.146   4.977 -1.0622 -0.1794  0.3540
15341TIP3   OH267437   4.843   3.756   3.394  0.5587 -0.0053  0.0748
15341TIP3    H167438   4.763   3.783   3.440 -0.6639 -2.8176 -0.3384
15341TIP3    H267439   4.902   3.728   3.464 -0.3763 -1.8786  0.1413
15342TIP3   OH267440   1.503   6.558   1.830  0.3934  0.0922  0.5298
15342TIP3    H167441   1.500   6.566   1.734  0.3170 -0.7464  0.4654
15342TIP3    H267442   1.430   6.611   1.860  0.6566  0.6927  0.1485
15343TIP3   OH267443   1.992   3.737   0.162 -0.0688  0.3579 -0.1536
15343TIP3    H167444   1.946   3.791   0.226 -1.1576  0.3641 -0.9264
15343TIP3    H267445   2.085   3.752   0.180 -0.3710  0.6344  1.1805
15344TIP3   OH267446   5.091   5.624   5.312  0.4792  0.0396  0.1195
15344TIP3    H167447   5.076   5.550   5.253  0.7513 -0.1266  0.2610
15344TIP3    H267448   5.186   5.638   5.310  0.2800  1.3200 -1.0456
15345TIP3   OH267449   0.571   1.472  16.516  0.2548 -0.0436 -0.0669
15345TIP3    H167450   0.551   1.496  16.607 -0.2759 -2.0812  0.3890
15345TIP3    H267451   0.658   1.507  16.500  0.3199  0.4032  1.2032
15346TIP3   OH267452   0.784   2.715   0.976  0.2006 -0.2656  0.0044
15346TIP3    H167453   0.807   2.795   0.928 -2.0245  0.1686 -0.3605
15346TIP3    H267454   0.802   2.644   0.915 -1.9328  0.2396 -1.2517
15347TIP3   OH267455   1.347   5.599   2.415 -0.3497  0.0801  0.6303
15347TIP3    H167456   1.289   5.523   2.419 -0.5655  0.2038  0.0441
15347TIP3    H267457   1.428   5.565   2.377 -0.8153  0.3472 -0.6352
15348TIP3   OH267458   6.436   4.788   3.658 -0.4268  0.5846 -0.4918
15348TIP3    H167459   6.413   4.707   3.704 -0.0254  0.7446 -0.0006
15348TIP3    H267460   6.527   4.804   3.683 -0.6834  1.4900 -0.1347
15349TIP3   OH267461   6.041   5.004  14.518 -0.4889 -0.2053 -0.2276
15349TIP3    H167462   5.967   5.054  14.484 -0.2252 -0.2370 -0.8720
15349TIP3    H267463   6.117   5.059  14.498 -0.4799  0.6491  1.9960
15350TIP3   OH267464   5.755   5.841   0.307 -0.8049  0.0320  0.0255
15350TIP3    H167465   5.720   5.842   0.396 -1.1822 -0.0492 -0.1220
15350TIP3    H267466   5.709   5.769   0.264  0.2965 -0.7506  0.1335
15351TIP3   OH267467   1.660   2.098  13.266 -0.2035 -0.5602  0.1851
15351TIP3    H167468   1.676   2.048  13.186  0.7558  0.2812 -0.1493
15351TIP3    H267469   1.572   2.134  13.255  0.2366  0.2277 -0.8588
15352TIP3   OH267470   1.873   1.264   1.102 -0.0578  0.0718  0.0897
15352TIP3    H167471   1.858   1.324   1.029 -0.3276  0.5748  0.5464
15352TIP3    H267472   1.794   1.209   1.105  0.3876 -0.6079 -0.6102
15353TIP3   OH267473   4.640   1.366   5.261 -0.2162  0.4032  0.2353
15353TIP3    H167474   4.546   1.362   5.278 -0.3335 -2.0453 -0.7229
15353TIP3    H267475   4.646   1.374   5.166  0.5448 -0.2361  0.2251
15354TIP3   OH267476   3.976   4.537  15.212 -0.1509  0.0253  0.1039
15354TIP3    H167477   3.998   4.602  15.279 -0.0880 -0.4371  0.5427
15354TIP3    H267478   3.940   4.588  15.140 -0.4702  0.5171  0.5988
15355TIP3   OH267479   2.630   2.599  16.530 -0.0175  0.4683 -0.6039
15355TIP3    H167480   2.606   2.559  16.446  0.6366  2.9086 -2.0012
15355TIP3    H267481   2.718   2.568  16.548 -0.2196 -0.1854 -0.7285
15356TIP3   OH267482   1.270   3.979  15.234  0.1549  0.4841 -0.2238
15356TIP3    H167483   1.245   3.993  15.325  0.0286 -0.1155 -0.1661
15356TIP3    H267484   1.351   3.928  15.239 -1.9872 -3.0655 -0.4898
15357TIP3   OH267485   3.768   1.411  15.304 -0.2130 -0.1427 -0.1329
15357TIP3    H167486   3.697   1.473  15.284 -0.3096 -0.6443 -1.3646
15357TIP3    H267487   3.778   1.417  15.399 -3.0039 -1.2494  0.2739
15358TIP3   OH267488   0.483   5.321   4.633 -0.0481  0.2410 -0.1991
15358TIP3    H167489   0.496   5.372   4.713 -0.0150  1.3911 -0.9339
15358TIP3    H267490   0.570   5.317   4.593  0.0265 -0.7253  0.0454
15359TIP3   OH267491   6.019   3.631   4.330  0.4688  0.1292 -0.1751
15359TIP3    H167492   6.080   3.558   4.339  1.2748  0.8912  0.6094
15359TIP3    H267493   6.018   3.673   4.417 -1.5574 -0.1750 -0.0159
15360TIP3   OH267494   0.145   2.334  12.117 -0.2534 -0.5319 -0.6001
15360TIP3    H167495   0.057   2.316  12.083  0.2197  2.2810 -3.6049
15360TIP3    H267496   0.178   2.405  12.062  3.3438 -0.4761  1.4448
15361TIP3   OH267497   3.746   2.334  13.770  0.3041  0.2927 -0.0625
15361TIP3    H167498   3.836   2.362  13.789  0.7125 -0.0580 -1.3973
15361TIP3    H267499   3.749   2.239  13.779  0.5433  0.0998 -1.9084
15362TIP3   OH267500   4.383   5.578   2.720  0.6959  0.0130 -0.7700
15362TIP3    H167501   4.436   5.508   2.683  0.3973 -1.4345  1.4536
15362TIP3    H267502   4.300   5.574   2.673  1.4267  0.2584 -2.0984
15363TIP3   OH267503   4.179   3.522   2.520 -0.0247  0.0650  0.3632
15363TIP3    H167504   4.197   3.428   2.516 -0.6757 -0.0944  1.0873
15363TIP3    H267505   4.265   3.562   2.534  0.1288 -0.4976  1.0709
15364TIP3   OH267506   2.656   5.878   3.728 -0.6192  0.1812 -0.4450
15364TIP3    H167507   2.665   5.788   3.760 -1.8795 -0.4478 -1.8348
15364TIP3    H267508   2.746   5.906   3.712 -0.0149  0.1524  2.5873
15365TIP3   OH267509   5.820   2.175   2.216 -0.3080 -0.0195 -0.0558
15365TIP3    H167510   5.802   2.236   2.145  0.0487  1.0967  0.7858
15365TIP3    H267511   5.748   2.188   2.278 -0.1431 -0.3297  0.2018
15366TIP3   OH267512   6.304   4.419  17.148 -0.2168  0.6103 -0.5740
15366TIP3    H167513   6.330   4.496  17.199 -2.3437  0.7482  0.3710
15366TIP3    H267514   6.336   4.437  17.060  2.0762  1.1257  0.3356
15367TIP3   OH267515   2.119   4.048  14.372 -0.1135 -0.4193  0.1556
15367TIP3    H167516   2.162   4.064  14.456 -1.2613  0.9309  0.5033
15367TIP3    H267517   2.189   4.015  14.315  0.6606 -1.3866  1.6414
15368TIP3   OH267518   4.670   5.077   0.918 -0.7840 -0.3711 -0.4768
15368TIP3    H167519   4.600   5.135   0.889 -1.1762 -0.8429 -0.4817
15368TIP3    H267520   4.643   5.047   1.005  0.2260  0.7712  0.2425
15369TIP3   OH267521   3.099   0.334   3.993 -0.7357  0.5649  0.1507
15369TIP3    H167522   3.074   0.359   3.904 -1.6437 -1.1523 -0.0903
15369TIP3    H267523   3.194   0.336   3.993 -0.7039 -0.8019 -1.2530
15370TIP3   OH267524   6.137   6.138  12.409 -0.1056 -0.4490 -0.1174
15370TIP3    H167525   6.182   6.136  12.494  2.4317 -1.0271 -1.4326
15370TIP3    H267526   6.097   6.051  12.402  1.5422 -1.1920 -0.4680
15371TIP3   OH267527   1.463   3.725  12.135  0.1408 -0.0007 -0.0158
15371TIP3    H167528   1.395   3.660  12.114 -0.0710 -0.2323  1.3592
15371TIP3    H267529   1.541   3.693  12.091 -0.1058 -0.8908  0.1784
15372TIP3   OH267530   5.073   2.481  16.865  0.3632 -0.9091 -0.3958
15372TIP3    H167531   5.040   2.512  16.781  0.0148 -0.1031  0.0245
15372TIP3    H267532   5.028   2.537  16.930 -0.2747 -2.2879  0.3848
15373TIP3   OH267533   3.071   1.678  14.347  0.2231 -0.0254 -0.5735
15373TIP3    H167534   3.043   1.752  14.293  0.1145 -0.7431 -1.5186
15373TIP3    H267535   3.160   1.660  14.317 -0.1997 -1.0724 -1.2347
15374TIP3   OH267536   3.983   0.875   5.981  0.3695 -0.2331 -0.5165
15374TIP3    H167537   3.965   0.809   6.048 -2.0859 -1.9505 -2.8016
15374TIP3    H267538   4.041   0.938   6.025 -1.4477 -1.0938  3.3223
15375TIP3   OH267539   3.516   4.336  11.420  0.3265  0.3979  0.2143
15375TIP3    H167540   3.582   4.284  11.374  0.0433  0.1951  0.0372
15375TIP3    H267541   3.527   4.425  11.386 -0.7535  0.0034 -1.2192
15376TIP3   OH267542   3.762   1.857   5.646 -0.0646  0.2323  0.9185
15376TIP3    H167543   3.727   1.939   5.683  1.3999  0.5235  1.7073
15376TIP3    H267544   3.685   1.801   5.636 -1.1788  1.8779 -0.1328
15377TIP3   OH267545   0.606   4.470  16.462  0.2511 -0.6586 -0.6984
15377TIP3    H167546   0.691   4.498  16.497 -0.5799  0.3069  0.5915
15377TIP3    H267547   0.574   4.406  16.525 -0.8601  0.4402 -0.1107
15378TIP3   OH267548   3.820   2.056  11.625  0.3655 -0.2984  0.8229
15378TIP3    H167549   3.817   2.136  11.573 -0.8186  0.1723  1.6176
15378TIP3    H267550   3.914   2.041  11.640  0.5377  1.6657  1.8028
15379TIP3   OH267551   1.565   5.612  12.693 -0.1949 -0.2073 -0.1200
15379TIP3    H167552   1.471   5.618  12.710 -0.0897  0.0489  0.4013
15379TIP3    H267553   1.583   5.518  12.693 -0.4703 -0.2599 -0.3246
15380TIP3   OH267554   6.075   1.085   3.025  0.6450 -0.6117  0.5039
15380TIP3    H167555   6.137   1.127   3.084  0.2103 -0.7429  1.0541
15380TIP3    H267556   6.112   0.999   3.008  1.6741  0.0639 -0.8373
15381TIP3   OH267557   1.893   2.947  11.493  0.2564  0.1877 -0.1958
15381TIP3    H167558   1.840   2.917  11.420 -1.4878  1.4642  0.5088
15381TIP3    H267559   1.831   2.990  11.552  1.9705  1.1641  0.9522
15382TIP3   OH267560   6.655   6.196  16.537  0.7429 -0.2072 -0.4303
15382TIP3    H167561   6.578   6.254  16.532 -0.4293 -1.7709 -1.1313
15382TIP3    H267562   6.715   6.232  16.472  0.5173  0.9029 -0.0430
15383TIP3   OH267563   0.079   1.314   0.004 -0.4258  0.0069  0.4200
15383TIP3    H167564  -0.010   1.349   0.013 -1.3440 -2.8518  3.6498
15383TIP3    H267565   0.065   1.222  -0.022  1.5981 -0.4306  0.8495
15384TIP3   OH267566   3.849   0.765   2.909  0.0052  0.4511  0.1538
15384TIP3    H167567   3.841   0.860   2.908  0.0725  0.4470 -0.4358
15384TIP3    H267568   3.915   0.747   2.976 -0.9497  0.7520  1.1903
15385TIP3   OH267569   3.576   5.044  11.717 -0.1195 -0.4997 -0.6295
15385TIP3    H167570   3.489   5.060  11.752  0.5614  0.9370  0.4480
15385TIP3    H267571   3.633   5.036  11.794  0.6331 -1.8788 -1.3043
15386TIP3   OH267572   0.714   6.061  12.233  0.0320  0.0892 -0.5448
15386TIP3    H167573   0.738   6.118  12.306 -0.0883 -0.1377 -0.3295
15386TIP3    H267574   0.626   6.090  12.208 -0.0513 -0.0424 -0.3989
15387TIP3   OH267575   0.748   4.707  13.238 -1.0666  0.0279  0.1036
15387TIP3    H167576   0.801   4.647  13.291  2.0862  3.5937  1.1876
15387TIP3    H267577   0.673   4.654  13.210  1.0703 -4.1138  1.7621
15388TIP3   OH267578   0.470   4.059  15.579 -0.2082 -0.4369  0.0411
15388TIP3    H167579   0.479   4.053  15.484  1.2004 -0.2806  0.1622
15388TIP3    H267580   0.375   4.056  15.594 -0.4481 -0.2607 -1.3778
15389TIP3   OH267581   3.769   6.159   3.756 -0.3125  0.9189 -0.1670
15389TIP3    H167582   3.771   6.166   3.851 -0.1453  0.4343 -0.1296
15389TIP3    H267583   3.763   6.249   3.725  0.7167  1.1543  0.2779
15390TIP3   OH267584   2.182   5.127  15.946 -0.0781 -0.1415 -0.4347
15390TIP3    H167585   2.125   5.056  15.975 -0.0247 -0.2511 -0.5970
15390TIP3    H267586   2.137   5.165  15.870  0.0664 -0.2336 -0.5689
15391TIP3   OH267587   1.556   5.266  12.890  0.2173  0.4552  0.1422
15391TIP3    H167588   1.504   5.188  12.867  0.6360  0.1273  0.3020
15391TIP3    H267589   1.512   5.338  12.846 -1.1373  0.3685  1.3037
15392TIP3   OH267590   3.241   1.720   4.196 -0.3323 -0.0302  0.0063
15392TIP3    H167591   3.258   1.678   4.112 -0.3904 -1.0879  0.5163
15392TIP3    H267592   3.282   1.662   4.261 -0.4899  0.6530  0.7255
15393TIP3   OH267593   6.249   5.729   0.743  0.1170 -0.3114  0.2333
15393TIP3    H167594   6.250   5.730   0.838  1.3521 -1.6567  0.2484
15393TIP3    H267595   6.320   5.789   0.718 -0.2166  0.0532  0.1563
15394TIP3   OH267596   2.499   0.672  13.863 -0.1988  0.5415  0.3259
15394TIP3    H167597   2.532   0.722  13.937 -0.9299  1.9473 -0.2836
15394TIP3    H267598   2.572   0.670  13.801  0.2414 -0.1973  0.8649
15395TIP3   OH267599   3.906   1.177   1.093 -0.2988  0.1309  0.0403
15395TIP3    H167600   3.840   1.200   1.158 -0.0321  1.2456 -0.0571
15395TIP3    H267601   3.899   1.246   1.027  2.0043  1.1802  0.8166
15396TIP3   OH267602   3.297   4.697   3.605  0.2084 -0.5896  0.2966
15396TIP3    H167603   3.354   4.657   3.539 -1.9380  0.2720 -2.1468
15396TIP3    H267604   3.244   4.624   3.638  0.8404 -0.8967  0.6626
15397TIP3   OH267605   2.487   1.758   0.266  0.1424  0.2607  0.3124
15397TIP3    H167606   2.434   1.797   0.196  0.1141  1.1281  0.8073
15397TIP3    H267607   2.432   1.765   0.344  0.9417  1.0667  0.8078
15398TIP3   OH267608   4.761   6.708  13.364  0.0980 -0.2924 -0.9345
15398TIP3    H167609   4.728   6.650  13.295  1.0832  0.1154 -1.7754
15398TIP3    H267610   4.700   6.697  13.436 -1.1268 -0.5273 -1.9789
15399TIP3   OH267611   3.246   1.186  15.654 -0.6866 -0.6476 -0.0846
15399TIP3    H167612   3.314   1.168  15.719 -1.0786 -0.4659  0.3796
15399TIP3    H267613   3.176   1.229  15.704 -1.4207 -1.4300 -0.4301
15400TIP3   OH267614   2.938   4.261  11.636  0.0564  0.5110  0.2446
15400TIP3    H167615   2.848   4.250  11.664  0.1326  0.6237  0.5399
15400TIP3    H267616   2.936   4.253  11.541  0.3404 -3.7305  0.5048
15401TIP3   OH267617   1.820   4.252   0.579 -0.2652  0.3721 -0.0595
15401TIP3    H167618   1.816   4.343   0.611 -1.5453  0.3286 -0.0719
15401TIP3    H267619   1.901   4.218   0.616 -0.0887  1.3333  0.4748
15402TIP3   OH267620   5.988   6.491   5.267  0.1038 -0.7393  0.2410
15402TIP3    H167621   5.908   6.536   5.293  0.5994  0.5254 -0.4008
15402TIP3    H267622   6.045   6.498   5.344 -0.6655 -2.3377  0.9947
15403TIP3   OH267623   1.648   4.321   6.012  0.6020  0.1709 -0.7779
15403TIP3    H167624   1.562   4.322   6.054  0.5558  1.7031 -0.8487
15403TIP3    H267625   1.705   4.367   6.073  1.5850 -1.5749 -0.3551
15404TIP3   OH267626   0.101   6.036   1.625  0.0956  0.3758  0.2058
15404TIP3    H167627   0.197   6.033   1.627  0.1227  1.8385  1.2453
15404TIP3    H267628   0.075   6.025   1.716 -0.7340 -0.0504 -0.0814
15405TIP3   OH267629   0.037   2.566   0.099 -0.0949  0.4815  0.3487
15405TIP3    H167630   0.074   2.589   0.014  0.2016  2.4358  0.9846
15405TIP3    H267631   0.114   2.547   0.154 -0.2171  0.5382  0.5404
15406TIP3   OH267632   1.392   1.287  14.110  0.2762 -0.5264 -0.0715
15406TIP3    H167633   1.450   1.219  14.075 -1.0484 -0.7489 -1.8847
15406TIP3    H267634   1.307   1.244  14.118 -0.3784  0.6969 -0.4684
15407TIP3   OH267635   0.901   2.459  14.784 -0.6504 -0.1233 -0.0300
15407TIP3    H167636   0.861   2.474  14.699  0.9166  0.3022 -0.7098
15407TIP3    H267637   0.936   2.370  14.780 -1.6607 -0.5576  0.6218
15408TIP3   OH267638   6.124   4.281  13.431 -0.0422 -0.0236 -0.1712
15408TIP3    H167639   6.091   4.330  13.506 -1.7967 -2.3314  0.6205
15408TIP3    H267640   6.202   4.237  13.463  0.3932  0.6583 -0.2995
15409TIP3   OH267641   1.735   1.980  13.537 -0.0663 -0.1348  0.1549
15409TIP3    H167642   1.827   1.957  13.530  0.1668  0.6284  0.7108
15409TIP3    H267643   1.705   1.985  13.446  0.7965  1.0666 -0.0667
15410TIP3   OH267644   1.014   0.562  12.649  0.3898  0.1531 -0.7228
15410TIP3    H167645   0.994   0.474  12.618 -1.3519  0.3453 -0.2033
15410TIP3    H267646   0.966   0.620  12.590  1.1562  0.7508 -0.7757
15411TIP3   OH267647   2.108   4.940  12.926  0.1115  0.0707  0.3990
15411TIP3    H167648   2.041   5.008  12.930  2.7181  2.9134 -1.6058
15411TIP3    H267649   2.188   4.984  12.957  1.4380 -2.6939  1.0604
15412TIP3   OH267650   3.594   4.515   2.731  0.0199 -0.3591  0.5312
15412TIP3    H167651   3.618   4.427   2.701 -3.4574 -1.2884  0.3596
15412TIP3    H267652   3.634   4.522   2.818  0.2605 -2.1297  0.5767
15413TIP3   OH267653   0.547   3.664   6.137 -0.6257  0.5940  0.3060
15413TIP3    H167654   0.489   3.621   6.199 -1.3858  2.5929  1.0023
15413TIP3    H267655   0.631   3.669   6.183 -0.7448  0.5663  0.5276
15414TIP3   OH267656   6.557   1.890   3.428 -0.2741  0.2594 -0.4002
15414TIP3    H167657   6.600   1.813   3.393 -0.7348 -0.4331  0.5193
15414TIP3    H267658   6.628   1.946   3.458  0.0304 -0.4976  0.3300
15415TIP3   OH267659   3.726   3.824  10.435  0.2199 -0.1316 -0.0245
15415TIP3    H167660   3.658   3.890  10.449  0.5305  0.1703  0.0864
15415TIP3    H267661   3.781   3.829  10.513  1.2692  0.7166 -0.7945
15416TIP3   OH267662   4.932   6.050   5.553 -0.3275  0.3524  0.6838
15416TIP3    H167663   4.990   6.126   5.556 -1.4162  1.1530  1.5756
15416TIP3    H267664   4.991   5.976   5.538  0.6577  1.4479 -1.0150
15417TIP3   OH267665   3.761   3.603   3.440  0.1626 -0.3351  0.2583
15417TIP3    H167666   3.788   3.625   3.351 -1.5865  0.4040 -0.1037
15417TIP3    H267667   3.748   3.509   3.439  0.0812 -0.3176 -0.2878
15418TIP3   OH267668   1.941   1.431   4.653  0.0006  0.4273  0.0681
15418TIP3    H167669   1.857   1.430   4.698  0.0650  0.8949  0.1994
15418TIP3    H267670   1.986   1.508   4.688 -0.1516  1.0935 -1.1645
15419TIP3   OH267671   1.532   4.529   5.197 -0.1436  0.2046 -0.6091
15419TIP3    H167672   1.538   4.553   5.105  0.7847  1.5654 -0.2083
15419TIP3    H267673   1.516   4.612   5.242  1.0500 -0.2178  0.6172
15420TIP3   OH267674   6.653   2.574  16.426  0.5960  0.4443 -0.9027
15420TIP3    H167675   6.668   2.651  16.481  0.0903  0.0775 -0.2501
15420TIP3    H267676   6.576   2.532  16.464  0.2982  0.1379 -1.8433
15421TIP3   OH267677   1.504   4.284   0.378 -0.6227 -0.2597 -0.2280
15421TIP3    H167678   1.523   4.346   0.307  0.7886 -0.2829  0.1148
15421TIP3    H267679   1.546   4.322   0.455  0.2593 -1.6401 -0.0149
15422TIP3   OH267680   4.262   3.901  12.485 -0.5078 -0.2748  0.3381
15422TIP3    H167681   4.248   3.851  12.566 -1.0078 -0.0134  0.4093
15422TIP3    H267682   4.175   3.931  12.460 -0.3587 -0.3903 -0.3243
15423TIP3   OH267683   1.674   4.039  16.528  0.5030 -0.4859  0.3338
15423TIP3    H167684   1.632   4.079  16.605 -1.0496  1.1018 -1.2694
15423TIP3    H267685   1.728   4.109  16.491 -0.5466 -0.5002 -1.2874
15424TIP3   OH267686   5.876   4.299   1.869 -0.1050 -0.0439  0.4450
15424TIP3    H167687   5.849   4.327   1.781  0.6875 -0.9394 -0.0951
15424TIP3    H267688   5.811   4.338   1.927 -0.7906  0.3518 -0.5611
15425TIP3   OH267689   6.265   3.003  16.375  0.1950 -0.2267  0.2819
15425TIP3    H167690   6.189   2.952  16.347  0.5252 -1.6228  1.8580
15425TIP3    H267691   6.267   2.993  16.470  0.8395  1.9440  0.5089
15426TIP3   OH267692   1.994   5.018  11.339 -0.1810 -0.1966  0.2923
15426TIP3    H167693   1.945   5.019  11.422  0.7921  0.0688  0.8696
15426TIP3    H267694   2.006   4.925  11.320 -1.0826 -0.2663  0.0451
15427TIP3   OH267695   0.506   5.546   3.416 -0.5969  0.2628  0.1771
15427TIP3    H167696   0.551   5.611   3.362  0.6022 -1.3463 -0.7975
15427TIP3    H267697   0.465   5.486   3.353 -1.8998  0.2058  1.0585
15428TIP3   OH267698   6.700   2.697  11.110 -0.3311 -0.2273 -0.5427
15428TIP3    H167699   6.665   2.640  11.041  1.2595 -0.1756 -1.4339
15428TIP3    H267700   6.795   2.689  11.101 -0.1030  0.7519  0.8496
15429TIP3   OH267701   0.333   5.415   4.198 -0.1239 -0.3729 -0.2311
15429TIP3    H167702   0.319   5.325   4.229  1.6223 -0.0483  1.5677
15429TIP3    H267703   0.246   5.445   4.174 -0.7429 -2.5447 -0.8379
15430TIP3   OH267704   4.990   0.214  13.576 -0.5669 -0.1447 -0.6000
15430TIP3    H167705   4.970   0.298  13.618 -1.5838 -1.3219  1.3626
15430TIP3    H267706   4.995   0.152  13.649  2.8443 -1.3279 -1.7165
15431TIP3   OH267707   5.813   6.604  15.193  0.2240 -1.0839 -0.8374
15431TIP3    H167708   5.744   6.548  15.228  0.7409 -2.2709 -1.6906
15431TIP3    H267709   5.892   6.577  15.240  0.0981  0.3685  0.2351
15432TIP3   OH267710   5.643   0.523   6.071  0.1204 -0.3431  0.2834
15432TIP3    H167711   5.558   0.530   6.028  0.7083  1.6637 -0.6005
15432TIP3    H267712   5.634   0.576   6.151 -0.2016 -2.0957  1.4468
15433TIP3   OH267713   1.182   3.762  16.881 -0.1112 -0.2477 -0.0341
15433TIP3    H167714   1.092   3.730  16.873  0.1845 -0.9511 -0.6476
15433TIP3    H267715   1.209   3.777  16.791  0.0997  0.7794  0.2019
15434TIP3   OH267716   1.403   6.030   2.060  0.0095  0.6386  0.0470
15434TIP3    H167717   1.351   6.046   2.139  1.1452 -2.4940  1.5011
15434TIP3    H267718   1.349   6.065   1.989 -1.9714  1.6476  1.9768
15435TIP3   OH267719   6.446   6.143   3.154 -0.0057 -0.1915  0.0003
15435TIP3    H167720   6.503   6.220   3.158 -0.1857  0.1819 -3.0748
15435TIP3    H267721   6.496   6.073   3.195  1.2448  0.9658  0.4596
15436TIP3   OH267722   6.446   1.131  11.915 -0.0870 -0.2844  0.2091
15436TIP3    H167723   6.353   1.111  11.906 -0.1771 -0.2284  1.0267
15436TIP3    H267724   6.489   1.076  11.849 -0.8053  0.6071 -1.0190
15437TIP3   OH267725   5.246   0.261   3.064  0.5423 -0.9542  0.1276
15437TIP3    H167726   5.181   0.252   3.133 -0.4279 -0.5850 -0.7171
15437TIP3    H267727   5.329   0.240   3.106  0.3647  2.0573  2.1281
15438TIP3   OH267728   4.893   0.331  15.726 -0.6186 -0.3908 -0.3025
15438TIP3    H167729   4.815   0.333  15.671  0.3787  0.7206 -1.6965
15438TIP3    H267730   4.949   0.264  15.686 -1.0643 -1.5693  1.0082
15439TIP3   OH267731   3.390   0.662  11.391  0.0082  0.0713 -0.3196
15439TIP3    H167732   3.332   0.710  11.332  0.2581  0.1941 -0.4684
15439TIP3    H267733   3.368   0.693  11.478  1.2744  1.6608 -0.5356
15440TIP3   OH267734   2.019   3.668   1.209  0.1079 -0.2124  0.3258
15440TIP3    H167735   1.947   3.721   1.244  0.3046 -0.4516  1.0840
15440TIP3    H267736   1.977   3.608   1.147 -0.0073  1.4621 -1.2802
15441TIP3   OH267737   1.493   1.929  15.660  0.5431 -0.1156  0.8681
15441TIP3    H167738   1.555   1.999  15.641 -1.6744  1.7904  0.5246
15441TIP3    H267739   1.528   1.853  15.613  0.8634  1.7888 -2.1304
15442TIP3   OH267740   6.463   3.956  15.769 -0.2385  0.4386  0.2288
15442TIP3    H167741   6.445   4.040  15.726 -0.4752  0.3615  0.1757
15442TIP3    H267742   6.555   3.939  15.751 -1.0687 -1.0946 -2.8896
15443TIP3   OH267743   0.348   6.171  11.431 -0.0275 -0.3383 -0.3861
15443TIP3    H167744   0.440   6.164  11.406 -0.0277 -0.7681 -0.2602
15443TIP3    H267745   0.302   6.183  11.347  0.3062  1.6095 -0.3217
15444TIP3   OH267746   5.958   0.680   0.373  0.0025 -0.2145  0.7267
15444TIP3    H167747   6.029   0.620   0.349 -1.2878 -0.9349 -1.5331
15444TIP3    H267748   5.911   0.634   0.443  0.2631 -0.9024  0.4570
15445TIP3   OH267749   1.013   5.105   1.479  0.0046 -1.0169  0.2150
15445TIP3    H167750   0.921   5.112   1.502 -0.0865  0.6816 -0.5707
15445TIP3    H267751   1.059   5.147   1.552  0.0724 -0.9145  0.1149
15446TIP3   OH267752   4.876   0.328   4.257  0.5015 -0.3253  0.3540
15446TIP3    H167753   4.897   0.418   4.230 -0.9447  0.2249  1.0457
15446TIP3    H267754   4.932   0.313   4.333  0.4799  0.1243  0.4616
15447TIP3   OH267755   6.422   3.830  11.706  0.4865  0.1760  0.2027
15447TIP3    H167756   6.502   3.839  11.758  0.2256 -0.7209  0.7588
15447TIP3    H267757   6.430   3.745  11.662 -0.1376  0.1023  0.2196
15448TIP3   OH267758   5.803   3.256   1.836  1.1786 -0.2357 -0.4145
15448TIP3    H167759   5.766   3.289   1.918 -0.9183  1.1796 -1.8855
15448TIP3    H267760   5.791   3.161   1.840 -1.2520  0.0564 -0.1773
15449TIP3   OH267761   5.317   2.642  12.162 -0.1033 -0.5855 -0.1016
15449TIP3    H167762   5.319   2.607  12.251 -1.8634  1.3941  0.7531
15449TIP3    H267763   5.282   2.731  12.171 -0.5051 -0.4079 -2.8028
15450TIP3   OH267764   2.627   3.221  15.555 -0.7111 -0.0193  0.0421
15450TIP3    H167765   2.656   3.295  15.502 -0.8302 -0.2363 -0.3228
15450TIP3    H267766   2.550   3.254  15.601 -0.8476  0.0370 -0.2290
15451TIP3   OH267767   3.365   2.474  16.806  0.1262  0.0184  0.1878
15451TIP3    H167768   3.304   2.442  16.872  2.2953  1.0975  2.8143
15451TIP3    H267769   3.405   2.395  16.770 -1.7339 -0.6163 -0.5377
15452TIP3   OH267770   3.230   4.320  11.367  0.1075 -0.3475 -0.0359
15452TIP3    H167771   3.314   4.347  11.406 -0.0016  0.4038 -0.3116
15452TIP3    H267772   3.186   4.402  11.346 -0.0407 -0.7326 -1.3035
15453TIP3   OH267773   4.438   3.143  16.558  0.0111  0.0315  0.8324
15453TIP3    H167774   4.399   3.056  16.554  1.7870 -0.8788  2.5455
15453TIP3    H267775   4.513   3.138  16.499  0.7426  0.0569  1.7538
15454TIP3   OH267776   1.810   5.485   5.123 -0.5283 -0.5058  0.7832
15454TIP3    H167777   1.791   5.538   5.200  0.4799  1.3710 -0.2097
15454TIP3    H267778   1.848   5.404   5.157 -0.8977 -0.0498  2.2813
15455TIP3   OH267779   4.931   0.897  15.329 -0.1855 -0.4063 -0.3194
15455TIP3    H167780   4.932   0.981  15.284 -0.1492 -0.1456  0.1649
15455TIP3    H267781   4.839   0.884  15.353 -0.1055 -0.2544  0.0698
15456TIP3   OH267782   1.395   4.208   4.598 -0.0796 -0.2174 -0.2289
15456TIP3    H167783   1.334   4.142   4.564  0.9613 -1.0755 -0.4607
15456TIP3    H267784   1.385   4.204   4.693 -0.5089 -0.2296 -0.2732
15457TIP3   OH267785   5.493   1.244  11.348 -0.9835  0.3657 -0.3361
15457TIP3    H167786   5.532   1.226  11.433  1.2448  0.8709 -1.2223
15457TIP3    H267787   5.401   1.263  11.367 -0.6038  0.0654  1.8968
15458TIP3   OH267788   3.564   0.673  17.081  0.2124  0.4083 -0.0201
15458TIP3    H167789   3.593   0.621  17.156 -2.4429  0.7389  1.3062
15458TIP3    H267790   3.469   0.679  17.092 -0.1677  0.8491 -3.1965
15459TIP3   OH267791   5.977   5.444   2.993  0.4775 -0.0594 -0.2441
15459TIP3    H167792   5.895   5.454   2.944  0.7497 -3.1190 -1.3967
15459TIP3    H267793   6.010   5.534   3.002 -1.6721  0.9625 -2.0172
15460TIP3   OH267794   4.119   4.871   5.131 -0.1354 -0.1179  0.3537
15460TIP3    H167795   4.207   4.907   5.122 -0.1799 -0.4969 -1.7385
15460TIP3    H267796   4.083   4.915   5.208  0.8083  2.2623 -0.5310
15461TIP3   OH267797   6.350   3.059  13.264  0.3733 -0.3176  0.2986
15461TIP3    H167798   6.443   3.061  13.286  0.3428 -0.4165  0.4325
15461TIP3    H267799   6.333   2.968  13.240  1.2238  0.4230 -3.5441
15462TIP3   OH267800   2.159   1.173  11.948  0.5737  0.3233 -0.7371
15462TIP3    H167801   2.162   1.093  11.896 -0.9673  0.1263 -0.5574
15462TIP3    H267802   2.101   1.231  11.899 -0.0047  0.5461  0.1853
15463TIP3   OH267803   0.549   5.169  11.698 -0.2193  0.2006  0.5107
15463TIP3    H167804   0.481   5.142  11.759 -1.5817  2.4805  0.0362
15463TIP3    H267805   0.503   5.187  11.616  1.3314 -0.8603 -0.6322
15464TIP3   OH267806   0.346   5.728   0.432  0.6768 -0.8804  0.1309
15464TIP3    H167807   0.435   5.755   0.411  0.3530  0.2589  0.2172
15464TIP3    H267808   0.300   5.728   0.348  0.7128 -1.3280  0.1078
15465TIP3   OH267809   1.109   4.298  12.861  0.0031 -0.4600 -0.6933
15465TIP3    H167810   1.053   4.357  12.812 -0.2767 -0.4419 -0.3495
15465TIP3    H267811   1.121   4.340  12.946  2.1864  0.5232 -1.4634
15466TIP3   OH267812   2.015   5.384   3.946 -0.2196 -0.1067 -0.0380
15466TIP3    H167813   2.089   5.418   3.896  0.5495 -0.6262  0.7293
15466TIP3    H267814   2.008   5.445   4.020  0.3461 -0.8679  0.6496
15467TIP3   OH267815   6.027   2.993   2.997 -0.4099  0.4945  0.6789
15467TIP3    H167816   6.040   2.900   3.017 -0.8937  0.3667  0.4178
15467TIP3    H267817   5.952   2.994   2.938  0.4574  0.9339 -0.4424
15468TIP3   OH267818   3.928   0.205   2.933  0.5179  1.0329 -0.0246
15468TIP3    H167819   3.922   0.280   2.993  0.2938  0.2973  0.8909
15468TIP3    H267820   3.994   0.149   2.973 -0.5083 -0.0406  0.1780
15469TIP3   OH267821   6.493   5.351  14.938 -0.0452 -0.6784 -0.7142
15469TIP3    H167822   6.470   5.399  15.018 -1.2928 -1.1470 -0.7882
15469TIP3    H267823   6.574   5.306  14.961  1.0605  1.2949 -0.5895
15470TIP3   OH267824   3.773   2.118  15.294  0.5988  0.0916 -0.6250
15470TIP3    H167825   3.681   2.097  15.280  0.9464 -1.2839 -0.9457
15470TIP3    H267826   3.778   2.213  15.284 -0.7698  0.1676 -0.6662
15471TIP3   OH267827   5.065   4.231  11.790 -0.3559  0.2309 -0.0709
15471TIP3    H167828   5.111   4.197  11.866  0.6536 -0.4454 -0.9676
15471TIP3    H267829   5.129   4.287  11.746 -0.6440 -0.0862 -0.9025
15472TIP3   OH267830   1.022   6.403  13.420  0.1198  0.3540 -0.2913
15472TIP3    H167831   0.991   6.318  13.388  0.7739  0.3433 -0.9194
15472TIP3    H267832   1.042   6.388  13.512 -2.2860  0.5177  0.2878
15473TIP3   OH267833   1.837   5.494   1.131  0.1343 -0.0912  0.1097
15473TIP3    H167834   1.883   5.418   1.167 -0.9438 -0.2249  1.2489
15473TIP3    H267835   1.754   5.459   1.099  0.6945  0.1946 -1.6941
15474TIP3   OH267836   6.752   0.186   5.619 -0.6150 -0.1711 -0.1840
15474TIP3    H167837   6.768   0.280   5.605  0.6296 -0.2732  0.4602
15474TIP3    H267838   6.713   0.156   5.537 -0.6152  0.8228 -0.5600
15475TIP3   OH267839   1.129   1.394  16.135 -0.1504 -0.6777  0.4867
15475TIP3    H167840   1.162   1.333  16.069  2.2339  1.4500 -0.3888
15475TIP3    H267841   1.125   1.479  16.090  1.7325  0.8778  3.0769
15476TIP3   OH267842   5.105   1.953  11.065 -0.4553 -0.2304 -0.1204
15476TIP3    H167843   5.070   1.879  11.114 -0.0166  0.5640  1.4360
15476TIP3    H267844   5.028   1.998  11.030 -0.6706 -2.1649 -2.2373
15477TIP3   OH267845   2.279   0.825  16.526  0.0983 -0.8533 -0.0956
15477TIP3    H167846   2.316   0.822  16.437 -0.8616 -1.1910 -0.4835
15477TIP3    H267847   2.263   0.917  16.542 -1.4213 -0.9493 -0.9836
15478TIP3   OH267848   3.289   5.242   2.216  0.0575 -0.4355 -0.9884
15478TIP3    H167849   3.263   5.151   2.225 -1.2737 -0.0452 -0.6929
15478TIP3    H267850   3.212   5.285   2.178  0.2205  0.7814  0.0212
15479TIP3   OH267851   3.112   5.777   1.672  1.1470  0.2367 -0.0684
15479TIP3    H167852   3.115   5.871   1.658  1.0121 -0.0582 -2.2482
15479TIP3    H267853   3.023   5.760   1.704  1.2942  0.8793  0.6955
15480TIP3   OH267854   0.589   0.659   2.114  0.0348 -0.1689  0.1547
15480TIP3    H167855   0.677   0.653   2.077 -0.4438  2.0090 -1.4221
15480TIP3    H267856   0.599   0.710   2.194  0.0874  0.8088 -0.4731
15481TIP3   OH267857   0.539   4.160   2.018  0.4742 -0.1390  0.1305
15481TIP3    H167858   0.459   4.107   2.024 -0.0087  0.4307 -1.0940
15481TIP3    H267859   0.527   4.230   2.083  0.7239 -0.9924  1.1206
15482TIP3   OH267860   3.702   2.230   0.748  0.4881 -0.2023  0.1161
15482TIP3    H167861   3.711   2.292   0.821  0.7218 -1.1737  0.9280
15482TIP3    H267862   3.620   2.255   0.705  0.9120  1.0825  0.0271
15483TIP3   OH267863   5.386   6.351   5.599  0.1053  0.5259  0.0659
15483TIP3    H167864   5.332   6.429   5.605 -0.2928  0.2406  0.2475
15483TIP3    H267865   5.375   6.307   5.684 -0.2116 -0.0728 -0.2790
15484TIP3   OH267866   3.729   2.554   4.694  0.5403  0.2632  0.9744
15484TIP3    H167867   3.818   2.523   4.714  1.0953  1.8061  0.9291
15484TIP3    H267868   3.685   2.552   4.779  1.1758  1.2747  1.3349
15485TIP3   OH267869   2.523   0.002   2.820 -0.3980 -0.2915  0.3438
15485TIP3    H167870   2.603  -0.037   2.854 -0.1930  0.8478  1.1779
15485TIP3    H267871   2.453  -0.038   2.871 -0.2811 -0.4187  0.4058
15486TIP3   OH267872   6.047   3.488   5.418 -0.0738  0.2746 -0.0265
15486TIP3    H167873   6.019   3.574   5.386  0.3293  0.6730  0.6812
15486TIP3    H267874   6.039   3.495   5.513 -3.1508 -1.5403 -0.1116
15487TIP3   OH267875   4.032   2.158  13.785  0.1379  0.1687 -0.0861
15487TIP3    H167876   3.968   2.168  13.714  0.2194  1.2623 -0.0197
15487TIP3    H267877   4.001   2.218  13.853  0.3979 -0.4255  0.5590
15488TIP3   OH267878   4.470   1.865   3.021  0.0359  0.5113 -0.0053
15488TIP3    H167879   4.399   1.925   2.999  0.5024  0.9509 -0.3166
15488TIP3    H267880   4.473   1.804   2.947  1.1641  1.5841 -0.8550
15489TIP3   OH267881   1.897   1.237   4.021 -0.3878 -0.6514  0.3551
15489TIP3    H167882   1.959   1.195   3.961  0.8592 -1.2913  2.0099
15489TIP3    H267883   1.873   1.167   4.082 -0.3847  0.3526  1.5334
15490TIP3   OH267884   5.095   1.421   3.498  0.0711  0.0508 -0.5246
15490TIP3    H167885   5.060   1.453   3.415 -0.6424 -1.0945 -0.6759
15490TIP3    H267886   5.116   1.501   3.547 -2.1171  0.7780 -0.7051
15491TIP3   OH267887   3.384   1.528   5.479  0.2195  0.3735  0.1603
15491TIP3    H167888   3.332   1.524   5.400  0.6976 -1.1728 -0.0923
15491TIP3    H267889   3.471   1.498   5.452  0.4567  0.0944  1.2060
15492TIP3   OH267890   1.692   4.835  15.990  0.0369  0.0610  0.2951
15492TIP3    H167891   1.656   4.838  16.079 -0.1266  1.3258  0.1842
15492TIP3    H267892   1.786   4.818  16.003 -0.0752 -0.2647  0.6879
15493TIP3   OH267893   2.555   2.526   1.034 -0.2257  0.2511  0.5366
15493TIP3    H167894   2.513   2.600   0.989  1.4480  1.1292  0.3787
15493TIP3    H267895   2.525   2.449   0.986 -1.3097  0.8873  0.1647
15494TIP3   OH267896   6.363   3.526  16.502 -0.5353 -0.2247  0.0851
15494TIP3    H167897   6.326   3.514  16.589  0.2077  1.3274  0.6342
15494TIP3    H267898   6.386   3.437  16.473  1.1245 -0.5666  2.3404
15495TIP3   OH267899   5.869   6.290   4.871 -0.7980  1.3789  0.2057
15495TIP3    H167900   5.806   6.271   4.940 -0.3609  0.2549  0.3177
15495TIP3    H267901   5.902   6.377   4.891  1.5944 -0.1286  3.2365
15496TIP3   OH267902   0.942   3.184   4.426  0.2087  0.0508  0.0552
15496TIP3    H167903   0.867   3.237   4.397  2.0033  2.5767 -0.1875
15496TIP3    H267904   0.961   3.126   4.352 -0.7480  0.2549 -0.3525
15497TIP3   OH267905   5.884   3.798   6.248  0.2340 -0.2364  0.5073
15497TIP3    H167906   5.867   3.865   6.182 -1.7810 -0.8501  0.3667
15497TIP3    H267907   5.953   3.835   6.302  0.2696  1.2700 -0.5353
15498TIP3   OH267908   1.559   2.505   1.193 -0.4211  0.0159 -0.4478
15498TIP3    H167909   1.546   2.413   1.172  1.9799 -0.6533  0.7637
15498TIP3    H267910   1.566   2.507   1.289  4.0669  0.7404 -0.6968
15499TIP3   OH267911   3.487   3.266  11.702 -0.3543  0.0392  0.9649
15499TIP3    H167912   3.484   3.308  11.616  0.0079  0.8861  1.3648
15499TIP3    H267913   3.451   3.178  11.687 -2.6849  1.0395  0.4702
15500TIP3   OH267914   3.694   4.982   5.780 -0.1115 -0.5934 -1.0968
15500TIP3    H167915   3.761   4.918   5.758  0.6646  0.6261 -2.3499
15500TIP3    H267916   3.624   4.930   5.821  1.5104 -1.8937  0.1004
15501TIP3   OH267917   3.498   4.294   0.855  0.2370 -0.1418  0.0041
15501TIP3    H167918   3.517   4.325   0.767  2.4676 -2.3999 -0.3533
15501TIP3    H267919   3.522   4.368   0.912 -1.7787  1.5352 -1.2598
15502TIP3   OH267920   5.924   2.922  14.514 -0.0270  0.8692  0.0110
15502TIP3    H167921   5.907   2.839  14.560  0.8460  0.1966 -0.8627
15502TIP3    H267922   5.841   2.943  14.472 -0.0509  0.0675 -0.3536
15503TIP3   OH267923   6.108   1.964   0.009 -0.2290  0.4572  0.1461
15503TIP3    H167924   6.071   1.902   0.073  1.3508  0.5015  1.1348
15503TIP3    H267925   6.184   1.918  -0.027 -1.0483  0.4827 -1.6366
15504TIP3   OH267926   4.531   4.425  16.583 -0.3465 -0.3698 -0.2686
15504TIP3    H167927   4.530   4.331  16.602 -1.1885 -0.2416  0.3604
15504TIP3    H267928   4.439   4.451  16.586 -0.1134  0.4919 -0.3529
15505TIP3   OH267929   3.434   2.613  14.162  0.4141 -0.3893  0.2202
15505TIP3    H167930   3.343   2.585  14.150  0.2000  0.7815 -0.9732
15505TIP3    H267931   3.428   2.704  14.189  1.2691  0.1101 -1.2272
15506TIP3   OH267932   2.216   2.339  11.918 -0.0021 -0.0988  0.5638
15506TIP3    H167933   2.213   2.423  11.965  0.9499 -0.6311  1.5828
15506TIP3    H267934   2.309   2.318  11.912 -0.1712 -0.5676 -0.6488
15507TIP3   OH267935   6.786   1.065  17.202 -0.3301 -0.3060  0.3157
15507TIP3    H167936   6.742   1.037  17.282 -0.9057 -0.2120  0.0392
15507TIP3    H267937   6.866   1.013  17.198 -0.7801 -1.0180  0.4440
15508TIP3   OH267938   6.538   3.252  11.824  0.2100 -0.0281  0.6212
15508TIP3    H167939   6.543   3.177  11.883 -0.8497  1.1509  2.2471
15508TIP3    H267940   6.473   3.226  11.758 -0.1784 -0.5176  1.1921
15509TIP3   OH267941   0.443   3.895   3.913  0.2031  0.3569 -0.4442
15509TIP3    H167942   0.532   3.887   3.947 -0.2687 -2.0368  0.4074
15509TIP3    H267943   0.441   3.835   3.838 -1.0563 -0.7873  0.4606
15510TIP3   OH267944   3.537   2.507  13.608 -0.2666 -0.0077 -0.0324
15510TIP3    H167945   3.532   2.412  13.614  3.9290 -0.2478  1.5168
15510TIP3    H267946   3.513   2.538  13.696  2.0527  0.1041  0.5827
15511TIP3   OH267947   4.613   6.384  11.346 -0.3996  0.3395 -0.0042
15511TIP3    H167948   4.640   6.371  11.437  0.9674  0.7292 -0.3484
15511TIP3    H267949   4.648   6.469  11.322  0.1915 -0.2325 -1.2314
15512TIP3   OH267950   3.013   0.354   3.719  0.4183  0.2528 -0.0436
15512TIP3    H167951   3.013   0.265   3.684  0.6129  0.5187 -0.7242
15512TIP3    H267952   3.082   0.400   3.670  0.3103  0.7846  0.2892
15513TIP3   OH267953   6.204   4.412   1.183 -0.2504  0.4395  0.2612
15513TIP3    H167954   6.132   4.470   1.208 -0.7526 -0.3261  0.5974
15513TIP3    H267955   6.171   4.364   1.107 -0.3494 -0.4015  0.8307
15514TIP3   OH267956   3.884   5.036  11.167  0.0075 -0.0007 -0.1933
15514TIP3    H167957   3.842   4.950  11.161  1.3449 -0.5545 -1.9122
15514TIP3    H267958   3.862   5.080  11.085 -0.0263  1.0105  0.3465
15515TIP3   OH267959   1.845   0.962   6.230  0.2389 -0.2565 -0.0404
15515TIP3    H167960   1.810   0.883   6.189  1.3117 -1.4932  1.3403
15515TIP3    H267961   1.916   0.930   6.286 -0.0818  1.5441  1.4512
15516TIP3   OH267962   4.307   4.372   0.681 -0.5612  0.3553 -0.6061
15516TIP3    H167963   4.280   4.420   0.602 -0.4694  0.3260 -0.6551
15516TIP3    H267964   4.401   4.358   0.669 -0.2875  1.5368  0.1457
15517TIP3   OH267965   0.190   0.262  16.379  0.1275 -0.4156  0.7099
15517TIP3    H167966   0.126   0.305  16.322  1.4214 -0.1366 -0.5631
15517TIP3    H267967   0.147   0.258  16.465 -1.6820 -0.4476 -0.1744
15518TIP3   OH267968   4.621   6.369   4.267  0.0434 -0.0494 -0.2986
15518TIP3    H167969   4.704   6.405   4.236 -0.4782  0.9239 -0.5880
15518TIP3    H267970   4.621   6.279   4.236  0.2867  0.4103 -1.6591
15519TIP3   OH267971   2.019   3.064  15.355 -0.5429 -0.1024  0.1771
15519TIP3    H167972   1.999   2.971  15.369  1.3726 -0.2257  2.4415
15519TIP3    H267973   2.016   3.103  15.443  1.0273  1.4686 -0.4337
15520TIP3   OH267974   0.157   3.406   0.230  0.7181  0.2684  0.1038
15520TIP3    H167975   0.217   3.337   0.258 -1.4306 -1.0619  1.6169
15520TIP3    H267976   0.144   3.388   0.137  0.0235 -1.5559  0.5169
15521TIP3   OH267977   2.583   5.670  15.484  0.1588  0.0805  0.0110
15521TIP3    H167978   2.541   5.743  15.529  0.3878 -0.0343  0.4186
15521TIP3    H267979   2.648   5.711  15.427 -0.7394  0.2809 -0.8888
15522TIP3   OH267980   5.187   5.980  14.121 -0.3948 -0.2971  0.1228
15522TIP3    H167981   5.129   5.905  14.124 -0.4779 -0.2668 -0.5469
15522TIP3    H267982   5.252   5.964  14.190 -1.3446 -0.2044  1.0390
15523TIP3   OH267983   4.332   4.588  12.047  0.2372 -0.1561  0.1234
15523TIP3    H167984   4.378   4.534  11.984 -2.1058 -0.5844 -1.2749
15523TIP3    H267985   4.342   4.678  12.015 -0.2788 -0.2974 -0.4450
15524TIP3   OH267986   4.645   2.979   4.035  0.3620 -0.0513 -0.1969
15524TIP3    H167987   4.649   3.046   3.966  2.0088  1.2833  1.1387
15524TIP3    H267988   4.734   2.977   4.072 -0.4284 -0.8810  1.7396
15525TIP3   OH267989   5.969   3.996   1.868 -0.3127 -0.4100 -0.1386
15525TIP3    H167990   5.904   4.058   1.900  0.1216 -0.2995  0.5548
15525TIP3    H267991   5.938   3.911   1.900  0.5579 -0.2016  1.3319
15526TIP3   OH267992   6.737   1.243   1.353  0.2295 -0.1764 -0.2422
15526TIP3    H167993   6.659   1.234   1.408 -1.4455  0.8948 -2.4020
15526TIP3    H267994   6.768   1.332   1.369 -0.8132  0.4665 -1.7103
15527TIP3   OH267995   2.067   2.473  13.076 -0.0377  0.0457 -0.0356
15527TIP3    H167996   2.104   2.415  13.143 -1.3366  1.1334  1.6451
15527TIP3    H267997   1.973   2.472  13.092 -0.2902  0.9035 -1.3917
15528TIP3   OH267998   6.615   2.215  12.632 -0.7732  0.1315 -0.0562
15528TIP3    H167999   6.654   2.128  12.625 -0.5298  0.2275  0.1176
15528TIP3    H268000   6.689   2.275  12.623 -0.9999  0.3312 -0.6640
15529TIP3   OH268001   3.506   6.425   2.002 -0.3626  0.3304 -0.4251
15529TIP3    H168002   3.427   6.473   2.028 -0.5423 -0.3228  0.2654
15529TIP3    H268003   3.475   6.358   1.941  0.0084  1.6263 -2.0535
15530TIP3   OH268004   0.191   6.017  16.916 -0.6687  0.0869 -0.2247
15530TIP3    H168005   0.279   5.991  16.891 -0.9981 -0.9558 -0.3339
15530TIP3    H268006   0.137   5.940  16.897 -1.6332  0.7823 -0.3423
15531TIP3   OH268007   5.834   2.411  13.042 -0.2071  0.0509 -0.0862
15531TIP3    H168008   5.911   2.406  13.100  0.9642 -0.3651 -1.6420
15531TIP3    H268009   5.853   2.485  12.985 -0.7807 -0.3103 -0.7480
15532TIP3   OH268010   1.775   6.454  11.757  0.0472 -0.5769  0.6881
15532TIP3    H168011   1.853   6.415  11.796 -0.7647  0.5743  3.6459
15532TIP3    H268012   1.773   6.543  11.792 -1.6277 -0.0012 -0.7918
15533TIP3   OH268013   2.030   0.469  13.042 -0.2453  0.0483 -0.1519
15533TIP3    H168014   2.058   0.400  12.982 -1.5704 -0.5517 -0.1194
15533TIP3    H268015   2.083   0.545  13.018  2.0003 -1.2583  0.5049
15534TIP3   OH268016   1.279   3.049  14.658 -0.1886 -0.3681  0.9729
15534TIP3    H168017   1.233   3.078  14.579  0.5883 -0.6383  0.4142
15534TIP3    H268018   1.250   2.958  14.671 -1.6574  0.2216  2.0098
15535TIP3   OH268019   3.151   1.347  16.924  0.2940 -0.4986  0.2949
15535TIP3    H168020   3.240   1.328  16.893 -0.1049  0.3431 -1.4635
15535TIP3    H268021   3.095   1.287  16.875 -0.3054  0.4645 -0.2247
15536TIP3   OH268022   6.719   2.969  16.893  0.3513  0.0600 -0.1920
15536TIP3    H168023   6.708   3.023  16.972  1.0666  1.6194 -1.1253
15536TIP3    H268024   6.682   3.023  16.823  1.8837 -0.2889 -1.2797
15537TIP3   OH268025   0.507   3.474   1.309 -0.4821 -0.3595  0.1934
15537TIP3    H168026   0.556   3.525   1.245  1.7763  0.3237  2.3817
15537TIP3    H268027   0.467   3.538   1.367  1.1015 -0.9871  2.0389
15538TIP3   OH268028   2.624   6.560  13.365 -0.2134  0.3645  0.1836
15538TIP3    H168029   2.548   6.603  13.404 -0.1131  0.9391 -0.2376
15538TIP3    H268030   2.591   6.475  13.335 -0.3248 -0.0180  1.3658
15539TIP3   OH268031   6.638   6.102   6.083 -0.1844  0.1393 -0.1259
15539TIP3    H168032   6.598   6.147   6.157 -0.3842  0.5539 -0.4811
15539TIP3    H268033   6.563   6.068   6.033 -0.1742  2.1891 -1.5930
15540TIP3   OH268034   3.294   1.357  14.429  0.4005  0.7302 -0.2741
15540TIP3    H168035   3.256   1.269  14.437 -0.7664  1.3645  1.2928
15540TIP3    H268036   3.373   1.353  14.483  0.7962  0.3952 -0.8755
15541TIP3   OH268037   0.847   1.076   0.258 -0.1499 -0.0662  0.3996
15541TIP3    H168038   0.816   1.154   0.302  0.3015  0.2775  0.1126
15541TIP3    H268039   0.933   1.100   0.223  0.6801 -1.1662  1.6417
15542TIP3   OH268040   6.406   1.814  11.392 -0.7495 -0.0455 -0.4045
15542TIP3    H168041   6.343   1.802  11.320 -0.4522  0.5973 -0.7811
15542TIP3    H268042   6.377   1.894  11.436  1.6248  2.0626 -2.5276
15543TIP3   OH268043   4.991   0.555   4.129  0.6339  0.4324  0.1660
15543TIP3    H168044   5.030   0.617   4.067  1.2160 -0.2501 -0.1697
15543TIP3    H268045   4.991   0.601   4.213  0.5097  1.1011 -0.2038
15544TIP3   OH268046   5.483   2.686   5.044 -0.1181 -0.7219 -0.1405
15544TIP3    H168047   5.467   2.601   5.085  1.7668 -0.1989  1.7675
15544TIP3    H268048   5.511   2.665   4.955  1.3269 -2.1671  0.6295
15545TIP3   OH268049   6.587   5.737  12.146 -0.2428 -0.3929  0.4314
15545TIP3    H168050   6.626   5.821  12.169 -0.7347 -0.0525  0.0170
15545TIP3    H268051   6.509   5.731  12.201 -1.4447  0.4391 -1.1751
15546TIP3   OH268052   0.096   6.514  17.036  0.0877  0.6759 -0.5368
15546TIP3    H168053   0.085   6.419  17.036  1.9180  0.4338 -0.4796
15546TIP3    H268054   0.169   6.530  16.976  1.3621  1.8205  1.2570
15547TIP3   OH268055   0.350   3.933  11.252  0.0250  0.7860 -0.0483
15547TIP3    H168056   0.399   3.854  11.274 -0.9023  0.4776  0.9282
15547TIP3    H268057   0.376   3.997  11.319  1.0880  1.4503 -1.0707
15548TIP3   OH268058   3.475   0.949   1.912 -0.2132 -0.6639  0.1048
15548TIP3    H168059   3.380   0.946   1.899 -0.1752 -0.5375 -0.1985
15548TIP3    H268060   3.500   0.857   1.927 -0.6077 -0.4958  1.8028
15549TIP3   OH268061   1.866   3.735   6.520 -0.1040 -0.3657 -0.2770
15549TIP3    H168062   1.960   3.735   6.500 -0.2116 -2.1906 -0.8693
15549TIP3    H268063   1.823   3.744   6.435 -0.4825 -1.7201 -0.2428
15550TIP3   OH268064   3.552   5.825   5.735  0.4881  0.0979  0.1233
15550TIP3    H168065   3.544   5.756   5.801 -1.2322 -0.0701 -0.2369
15550TIP3    H268066   3.609   5.788   5.667 -1.0641 -1.2975 -0.4509
15551TIP3   OH268067   6.406   1.978  12.905 -0.1613  0.0437  0.4003
15551TIP3    H168068   6.441   1.989  12.993 -0.4056 -0.1932  0.5261
15551TIP3    H268069   6.455   1.905  12.868  1.3926  1.4718 -0.4062
15552TIP3   OH268070   0.371   4.119  13.557 -0.0576 -0.1302 -0.1658
15552TIP3    H168071   0.455   4.089  13.594  0.3233  1.0205 -0.0688
15552TIP3    H268072   0.353   4.058  13.486  1.5137  0.3518 -1.0176
15553TIP3   OH268073   6.579   1.030  13.423  0.3995  1.0193  0.3001
15553TIP3    H168074   6.525   0.979  13.483 -0.1100 -0.3161 -1.2764
15553TIP3    H268075   6.518   1.092  13.382  0.9464  2.6997  1.9317
15554TIP3   OH268076   3.659   2.884  14.949  0.4234 -0.6474  0.1772
15554TIP3    H168077   3.649   2.863  14.856  1.2336  1.2735 -0.3696
15554TIP3    H268078   3.706   2.808  14.985  1.2653 -0.8384 -1.2642
15555TIP3   OH268079   6.485   6.253  12.096 -0.2829  0.6930  0.5314
15555TIP3    H168080   6.447   6.167  12.082 -0.0148  0.8077 -0.9395
15555TIP3    H268081   6.537   6.243  12.176 -1.5783 -0.0522  1.3071
15556TIP3   OH268082   6.383   0.958   5.918  0.1608 -0.2329  0.2921
15556TIP3    H168083   6.299   0.993   5.946  0.7616 -0.3785  2.3404
15556TIP3    H268084   6.396   0.880   5.972  1.2241 -0.6955 -0.6047
15557TIP3   OH268085   3.337   5.365   3.588 -0.1241  0.3357 -0.1688
15557TIP3    H168086   3.261   5.406   3.545  0.7484  0.6861 -1.3789
15557TIP3    H268087   3.322   5.382   3.681 -1.4041  0.6338 -0.4112
15558TIP3   OH268088   3.807   5.557  12.945  0.3436 -0.1086 -0.2856
15558TIP3    H168089   3.735   5.497  12.927  0.5399 -0.3867 -0.1598
15558TIP3    H268090   3.823   5.602  12.862 -0.7783  0.8395  0.0086
15559TIP3   OH268091   2.613   5.776   3.436 -0.5244 -0.3329  0.0694
15559TIP3    H168092   2.544   5.710   3.445 -0.2466 -0.5934  0.3134
15559TIP3    H268093   2.637   5.799   3.525 -0.8970  0.3938 -0.0225
15560TIP3   OH268094   3.395   2.463  15.046  0.4704 -0.3444  0.0223
15560TIP3    H168095   3.383   2.372  15.074 -2.0815 -0.0947 -0.2108
15560TIP3    H268096   3.387   2.461  14.951 -0.3594  0.2273  0.0734
15561TIP3   OH268097   4.792   3.053  11.337  0.6112 -0.0105 -0.0675
15561TIP3    H168098   4.775   3.082  11.426 -0.0081 -0.7847  0.0679
15561TIP3    H268099   4.856   3.116  11.303 -0.2615  1.1711  0.4186
15562TIP3   OH268100   4.337   2.514   2.729 -0.3785 -0.0537 -0.7688
15562TIP3    H168101   4.270   2.465   2.681  1.4495 -1.0317 -2.4064
15562TIP3    H268102   4.384   2.448   2.779  0.0375  0.4783 -0.4486
15563TIP3   OH268103   5.626   2.585  13.525 -0.1550  0.2266 -0.3284
15563TIP3    H168104   5.665   2.652  13.470 -2.6675  1.7108 -0.3556
15563TIP3    H268105   5.663   2.502  13.493  0.0761  1.2574 -2.7629
15564TIP3   OH268106   1.421   2.910  16.772 -0.4727  0.0767 -0.1793
15564TIP3    H168107   1.367   2.988  16.756  1.4482  1.9040  1.8544
15564TIP3    H268108   1.501   2.945  16.812  1.4822 -2.7221 -1.5107
15565TIP3   OH268109   1.761   2.249   5.647 -0.4322 -0.2585 -0.6781
15565TIP3    H168110   1.728   2.185   5.710  1.6635  0.1024  0.8621
15565TIP3    H268111   1.751   2.207   5.562 -2.1406 -1.2785 -0.0020
15566TIP3   OH268112   4.178   5.229   3.258 -0.5168  0.2972 -0.1865
15566TIP3    H168113   4.152   5.249   3.168 -0.4313  0.3652 -0.1972
15566TIP3    H268114   4.130   5.150   3.281 -1.0275  0.6415 -0.0683
15567TIP3   OH268115   5.337   3.410  14.653  0.0853 -0.1256  0.3752
15567TIP3    H168116   5.312   3.319  14.635 -1.6351  0.2649  0.7029
15567TIP3    H268117   5.432   3.406  14.668  0.0017 -1.8940  0.6072
15568TIP3   OH268118   5.223   0.530   1.740 -0.0063  0.6567 -0.0969
15568TIP3    H168119   5.182   0.583   1.808 -1.5156  1.1050 -1.3239
15568TIP3    H268120   5.169   0.544   1.662  1.1742 -0.5263 -1.1700
15569TIP3   OH268121   2.099   5.206  15.675 -0.4377 -0.1311 -0.3212
15569TIP3    H168122   2.007   5.223  15.658 -0.3330  0.2343 -0.5279
15569TIP3    H268123   2.140   5.206  15.588  0.0238  1.3009 -0.1187
15570TIP3   OH268124   3.883   5.179   0.653 -0.1971 -0.0818 -0.4455
15570TIP3    H168125   3.822   5.133   0.710 -1.3388  1.7704 -0.1250
15570TIP3    H268126   3.955   5.206   0.711  0.3466 -1.2068 -0.5841
15571TIP3   OH268127   4.925   3.908  13.832 -0.0398 -0.0060 -0.0470
15571TIP3    H168128   4.931   4.003  13.820  0.1508  0.1335  1.1454
15571TIP3    H268129   4.924   3.873  13.743  3.3731  0.8893 -0.5060
15572TIP3   OH268130   4.658   4.808  14.708 -0.0206 -0.4085  0.1841
15572TIP3    H168131   4.740   4.797  14.757 -0.5990 -2.0829  0.8298
15572TIP3    H268132   4.624   4.719  14.698  0.3157 -0.1799 -3.7655
15573TIP3   OH268133   4.888   6.324   4.848 -0.1657  0.0794 -0.3197
15573TIP3    H168134   4.963   6.264   4.852 -0.4019 -0.2449 -0.7778
15573TIP3    H268135   4.820   6.280   4.899 -0.3336 -0.0310 -0.6428
15574TIP3   OH268136   4.524   2.479   5.008 -0.9684  0.4574 -0.6048
15574TIP3    H168137   4.492   2.567   4.990 -1.9898 -0.1752 -1.9656
15574TIP3    H268138   4.448   2.422   4.995 -0.3773 -0.6172  0.4714
15575TIP3   OH268139   1.101   0.371  17.239  0.2468 -0.1553  0.8169
15575TIP3    H168140   1.110   0.424  17.318  1.5231 -0.3815  0.8280
15575TIP3    H268141   1.076   0.434  17.171 -1.3281 -0.0339  1.4890
15576TIP3   OH268142   2.592   6.682  14.134  0.5292 -0.2089 -0.1521
15576TIP3    H168143   2.674   6.646  14.169  0.9192  0.8336  0.0236
15576TIP3    H268144   2.609   6.776  14.127 -0.4846 -0.0616 -0.5912
15577TIP3   OH268145   6.784   5.199   5.676 -0.8464  0.5434  0.2853
15577TIP3    H168146   6.730   5.122   5.689  1.6659 -1.6195 -1.5302
15577TIP3    H268147   6.828   5.213   5.760 -0.3507 -0.7935  0.2571
15578TIP3   OH268148   5.636   3.978   2.702 -0.7230  0.4461  0.3281
15578TIP3    H168149   5.629   3.969   2.797 -0.7864  0.1414  0.2937
15578TIP3    H268150   5.674   4.065   2.689 -1.4104  0.7873  0.6085
15579TIP3   OH268151   0.498   5.193  10.718  0.0156 -0.7298 -0.0828
15579TIP3    H168152   0.551   5.272  10.720  0.7009 -1.2058  0.5637
15579TIP3    H268153   0.549   5.130  10.667 -1.3229 -0.2013 -2.1584
15580TIP3   OH268154   3.437   3.256   2.052  0.4938  0.4180 -0.4210
15580TIP3    H168155   3.368   3.239   1.988 -1.4573 -1.2283  2.0219
15580TIP3    H268156   3.425   3.347   2.077 -0.9416  0.0772  0.1498
15581TIP3   OH268157   3.944   4.062  10.728  0.3480  0.0679  0.3763
15581TIP3    H168158   3.920   3.970  10.714  0.8889  0.0900 -0.8170
15581TIP3    H268159   4.039   4.063  10.718  0.2647  0.8840 -0.3945
15582TIP3   OH268160   5.276   0.074   4.549  0.0184  0.5701  0.3052
15582TIP3    H168161   5.307  -0.016   4.561 -1.3790 -0.0010 -0.2916
15582TIP3    H268162   5.319   0.124   4.619  0.7748 -0.5691  0.6570
15583TIP3   OH268163   5.896   1.699   1.271 -0.4508  0.6612  0.2874
15583TIP3    H168164   5.851   1.682   1.188 -0.8572 -0.1110  0.6566
15583TIP3    H268165   5.977   1.743   1.246  0.3580 -1.2855 -0.6694
15584TIP3   OH268166   2.025   0.282  12.544 -0.1614 -0.4170 -0.1004
15584TIP3    H168167   2.040   0.242  12.458 -0.4527 -1.9071  0.5292
15584TIP3    H268168   2.084   0.235  12.603 -0.2018  0.3763  0.5815
15585TIP3   OH268169   1.139   5.991   4.906  0.0728 -0.2765 -0.4109
15585TIP3    H168170   1.065   5.989   4.967 -0.8500  1.0918 -1.4569
15585TIP3    H268171   1.105   5.950   4.827  0.1765  1.0431 -1.1496
15586TIP3   OH268172   6.042   0.057   2.523 -0.5072  0.9206  0.6480
15586TIP3    H168173   6.054  -0.036   2.541  0.1303  0.5818 -1.4439
15586TIP3    H268174   6.073   0.101   2.603 -1.2036 -0.6540  1.8043
15587TIP3   OH268175   0.664   6.188  10.743  0.4883 -0.0785  0.3037
15587TIP3    H168176   0.685   6.152  10.829  0.3662 -0.3541  0.2184
15587TIP3    H268177   0.626   6.274  10.761  1.0509  0.1393  0.4950
15588TIP3   OH268178   3.382   5.184  12.541 -0.8117  0.1652  0.5035
15588TIP3    H168179   3.347   5.201  12.628 -0.1200  0.3710  0.7332
15588TIP3    H268180   3.438   5.107  12.552 -0.2949  0.5241  0.3382
15589TIP3   OH268181   5.427   2.411  15.513 -0.1936 -0.2333 -0.2493
15589TIP3    H168182   5.426   2.498  15.474  1.3184  0.0275  0.2724
15589TIP3    H268183   5.335   2.389  15.524 -0.5977  0.9521 -1.1489
15590TIP3   OH268184   6.345   2.033   0.486 -0.0643 -0.2111  0.7355
15590TIP3    H168185   6.375   1.942   0.494  1.4585  0.4351  2.7231
15590TIP3    H268186   6.271   2.039   0.546 -0.2471 -0.1733  0.5061
15591TIP3   OH268187   4.898   6.143   4.536  0.8769  0.5461  0.1732
15591TIP3    H168188   4.809   6.178   4.536  0.2662 -0.9534 -0.1854
15591TIP3    H268189   4.938   6.181   4.458 -0.4581 -1.1806 -1.3935
15592TIP3   OH268190   1.201   1.144  14.987  0.0470 -0.2901 -0.0570
15592TIP3    H168191   1.255   1.160  15.064 -0.4468  0.2526  0.1792
15592TIP3    H268192   1.230   1.210  14.923  0.8582 -1.1125 -0.5423
15593TIP3   OH268193   2.331   5.625  12.089 -0.0961  0.0448 -1.0178
15593TIP3    H168194   2.355   5.563  12.158  2.1520  0.5038 -1.3247
15593TIP3    H268195   2.408   5.683  12.082 -1.4066  1.7125 -1.9912
15594TIP3   OH268196   0.458   5.334   3.220 -0.0716  0.4578 -0.4605
15594TIP3    H168197   0.365   5.332   3.199 -0.4995  0.6747  1.3689
15594TIP3    H268198   0.478   5.246   3.252 -0.0980  0.9848  1.0172
15595TIP3   OH268199   1.302   1.329   4.196 -0.0612  0.6264 -0.2473
15595TIP3    H168200   1.280   1.280   4.275 -1.5798  0.1451 -0.9529
15595TIP3    H268201   1.310   1.420   4.226  0.2792  0.3199  0.6088
15596TIP3   OH268202   4.403   2.867  15.267 -0.0431  0.0050 -0.1626
15596TIP3    H168203   4.350   2.820  15.202 -0.6283  1.8159 -1.0283
15596TIP3    H268204   4.340   2.920  15.315  0.8795  1.6958 -0.7812
15597TIP3   OH268205   6.717   3.367  14.201 -0.9968 -0.0589 -0.6674
15597TIP3    H168206   6.734   3.414  14.119  0.9959  0.4531  0.0265
15597TIP3    H268207   6.767   3.414  14.267 -1.9711 -0.9349  0.7310
15598TIP3   OH268208   6.761   3.948   0.591  0.1527  0.4837  0.2799
15598TIP3    H168209   6.777   3.857   0.616 -1.3771  0.2791  0.5427
15598TIP3    H268210   6.808   3.959   0.508 -0.3496 -0.7861 -0.1803
15599TIP3   OH268211   2.509   5.933  10.348  0.4934  0.1020 -0.0158
15599TIP3    H168212   2.571   5.902  10.414  0.5902 -0.9687 -0.5966
15599TIP3    H268213   2.560   5.935  10.267 -0.4583 -1.6346 -0.6762
15600TIP3   OH268214   2.890   0.222   0.198  0.3477 -0.5383 -0.0549
15600TIP3    H168215   2.847   0.279   0.134  0.0326 -1.7112 -0.9208
15600TIP3    H268216   2.940   0.160   0.144 -0.5972 -2.0649  0.8123
15601TIP3   OH268217   1.680   0.584  15.298 -0.1437  0.1769 -0.2209
15601TIP3    H168218   1.764   0.614  15.330  0.9727 -3.1147  0.0706
15601TIP3    H268219   1.629   0.566  15.377 -0.0680 -0.6881 -0.3684
15602TIP3   OH268220   5.638   2.683  16.546 -0.4729  0.2785  0.1162
15602TIP3    H168221   5.642   2.773  16.580  0.8601  0.0557  0.5582
15602TIP3    H268222   5.557   2.681  16.494 -0.9250  1.5046  0.7512
15603TIP3   OH268223   6.601   6.233   1.745  0.7450  0.5751  0.2635
15603TIP3    H168224   6.536   6.178   1.789  1.9750 -1.1918 -0.0787
15603TIP3    H268225   6.555   6.316   1.729 -1.4098 -0.6206  0.0481
15604TIP3   OH268226   6.249   6.578  16.447 -0.0383 -0.3425 -0.3882
15604TIP3    H168227   6.202   6.600  16.527  1.4187 -0.0838  0.4282
15604TIP3    H268228   6.199   6.619  16.377  0.0973  1.6962  0.6642
15605TIP3   OH268229   3.317   4.067  11.252 -0.3003  0.1109  0.1161
15605TIP3    H168230   3.337   4.073  11.159  0.2923  0.2741  0.2511
15605TIP3    H268231   3.294   4.157  11.277 -1.8044 -0.1852 -0.1660
15606TIP3   OH268232   4.420   2.213   0.484 -0.1347 -0.2663  0.2278
15606TIP3    H168233   4.433   2.126   0.447 -4.9008 -0.3843 -1.5247
15606TIP3    H268234   4.446   2.205   0.575  0.9901 -3.1030 -0.2963
15607TIP3   OH268235   6.272   4.990  14.747  0.4759  0.4013 -0.4365
15607TIP3    H168236   6.185   4.953  14.732  0.5125  1.0611 -2.3370
15607TIP3    H268237   6.332   4.923  14.714  0.6928  0.1238  0.5018
15608TIP3   OH268238   3.462   0.309   6.065 -0.1627  0.6569 -0.1104
15608TIP3    H168239   3.409   0.334   6.140 -0.6123  0.7517 -0.4587
15608TIP3    H268240   3.545   0.278   6.103 -1.8213 -3.0715  0.6859
15609TIP3   OH268241   6.166   3.205  14.736 -0.1224  0.3538  0.2035
15609TIP3    H168242   6.169   3.164  14.650  2.0171  1.1992 -0.1618
15609TIP3    H268243   6.231   3.157  14.788 -0.1197  1.0031  0.8093
15610TIP3   OH268244   0.132   4.567  14.776 -0.0320 -0.3887 -0.0674
15610TIP3    H168245   0.186   4.557  14.855  0.3924 -1.1425 -0.4442
15610TIP3    H268246   0.067   4.497  14.782  1.0255 -1.5034 -1.1884
15611TIP3   OH268247   2.378   3.181  10.987 -0.0336  0.3202 -0.3596
15611TIP3    H168248   2.291   3.195  10.950 -0.4804 -0.2201  0.4683
15611TIP3    H268249   2.368   3.105  11.044  0.4044  1.7096  1.6291
15612TIP3   OH268250   5.518   5.269  15.086  0.4645 -0.0065 -0.5024
15612TIP3    H168251   5.550   5.215  15.013  0.2338 -0.2277 -0.4427
15612TIP3    H268252   5.448   5.321  15.047  0.8992  0.4829 -0.6341
15613TIP3   OH268253   1.387   4.335  11.171  0.1054 -0.2211 -0.6602
15613TIP3    H168254   1.349   4.411  11.216 -0.4182 -1.3653  0.8410
15613TIP3    H268255   1.396   4.364  11.080  0.8207  1.9915  0.0693
15614TIP3   OH268256   4.967   5.872   1.867 -1.2025  0.5319  0.3930
15614TIP3    H168257   4.902   5.934   1.833 -1.6217 -0.6588 -1.0132
15614TIP3    H268258   4.915   5.800   1.902 -0.6529 -1.3605 -2.5293
15615TIP3   OH268259   3.457   4.031   5.546  0.0193  0.8202  0.3422
15615TIP3    H168260   3.446   4.006   5.638  0.9267 -3.2263 -0.5441
15615TIP3    H268261   3.514   4.109   5.549 -0.2158  0.9347  3.1932
15616TIP3   OH268262   4.134   1.962   3.827 -0.0513 -0.5317  0.4206
15616TIP3    H168263   4.183   1.889   3.789 -0.3610 -0.6237  0.1890
15616TIP3    H268264   4.128   1.941   3.920 -0.5884 -1.0700  0.2713
15617TIP3   OH268265   0.840   5.202   4.272  0.1188  0.0352 -0.2609
15617TIP3    H168266   0.846   5.175   4.180 -0.5221  0.4439 -0.4244
15617TIP3    H268267   0.851   5.121   4.322  1.8763  0.0130 -0.6570
15618TIP3   OH268268   1.126   1.422   5.235  0.1656 -0.1926 -0.3243
15618TIP3    H168269   1.098   1.332   5.251 -2.7282  0.6898 -0.0301
15618TIP3    H268270   1.184   1.442   5.309 -0.1539 -1.4060  0.2815
15619TIP3   OH268271   0.512   5.297  13.142 -0.3680  0.4160 -0.1175
15619TIP3    H168272   0.485   5.236  13.073 -0.4559 -0.0339  0.3170
15619TIP3    H268273   0.518   5.244  13.221 -0.3996  0.9566  0.2534
15620TIP3   OH268274   2.995   1.866   0.680 -0.5386  0.5587  0.4125
15620TIP3    H168275   2.933   1.916   0.734  0.5635  1.1192  1.1933
15620TIP3    H268276   2.941   1.806   0.630 -1.6754  0.7172  1.4283
15621TIP3   OH268277   3.178   4.831   2.472 -0.0910 -0.5613  0.4857
15621TIP3    H168278   3.237   4.759   2.452 -0.5238 -1.5680  2.6554
15621TIP3    H268279   3.092   4.790   2.480 -0.8248  0.6312 -0.9579
15622TIP3   OH268280   5.113   1.113  17.009 -0.5781  0.6765 -0.1303
15622TIP3    H168281   5.053   1.041  17.029  0.7830  0.1625  2.3454
15622TIP3    H268282   5.084   1.184  17.065  1.2534  0.3232  1.3269
15623TIP3   OH268283   4.256   4.301  13.653  0.1652 -0.0375  0.1968
15623TIP3    H168284   4.212   4.274  13.572 -0.1218  2.9811 -0.7107
15623TIP3    H268285   4.254   4.397  13.651  2.8755  0.1309  2.2966
15624TIP3   OH268286   3.375   1.014  11.470 -0.1105  0.1921 -0.4065
15624TIP3    H168287   3.313   0.975  11.532  2.7585 -4.4845 -0.2288
15624TIP3    H268288   3.457   1.018  11.518  1.1936  0.3944 -2.5805
15625TIP3   OH268289   1.451   4.489   2.994 -0.2469  0.5591  0.1384
15625TIP3    H168290   1.496   4.474   2.911  0.1625  0.9842  0.2767
15625TIP3    H268291   1.475   4.579   3.018  0.0213  0.2794  0.9402
15626TIP3   OH268292   1.726   2.746  11.825 -0.4354 -0.4855  0.5291
15626TIP3    H168293   1.691   2.679  11.883 -0.4887 -0.1770  0.8538
15626TIP3    H268294   1.734   2.702  11.740  1.2388 -1.4230  1.1486
15627TIP3   OH268295   4.667   0.369   1.415 -0.1207 -0.5076  0.4282
15627TIP3    H168296   4.683   0.443   1.357 -1.4798 -0.4624  0.0772
15627TIP3    H268297   4.750   0.355   1.461  1.2813 -1.1763 -2.2144
15628TIP3   OH268298   1.148   1.579  11.834 -0.0551  0.1533  0.1069
15628TIP3    H168299   1.117   1.594  11.924 -3.4674 -0.7859 -0.8097
15628TIP3    H268300   1.160   1.484  11.829  0.5339  0.2519 -0.2880
15629TIP3   OH268301   3.055   0.742  13.108 -0.1127  0.3375 -0.1549
15629TIP3    H168302   3.058   0.745  13.013  0.3221  0.3595 -0.1411
15629TIP3    H268303   3.144   0.715  13.134 -0.0445  0.9581  0.2658
15630TIP3   OH268304   6.236   5.228  15.607 -0.2823  0.8002  0.1786
15630TIP3    H168305   6.253   5.300  15.546 -2.0160  1.4311  0.4184
15630TIP3    H268306   6.229   5.270  15.693  2.6193 -0.1353  0.9440
15631TIP3   OH268307   3.937   3.380  14.801 -0.4303  1.3486  0.6893
15631TIP3    H168308   3.985   3.453  14.761 -0.2036  0.9016  0.1498
15631TIP3    H268309   3.868   3.359  14.737 -0.1341  0.7041  0.5822
15632TIP3   OH268310   4.754   0.344  17.227  0.6328  0.2676  0.1083
15632TIP3    H168311   4.832   0.329  17.173 -0.0638 -1.6094 -0.4311
15632TIP3    H268312   4.750   0.439  17.239  1.7025  0.5721 -1.7884
15633TIP3   OH268313   5.258   3.568   3.095 -0.7770 -0.3141  0.9338
15633TIP3    H168314   5.279   3.645   3.147 -0.3917 -0.0456  0.3848
15633TIP3    H268315   5.170   3.584   3.061 -0.3009  0.3486 -0.0153
15634TIP3   OH268316   5.894   5.843   3.587  0.8712 -0.2819 -0.0606
15634TIP3    H168317   5.901   5.861   3.493  0.0108  1.9055  0.2682
15634TIP3    H268318   5.857   5.754   3.591 -0.4405  0.1472 -1.8025
15635TIP3   OH268319   2.162   5.386  13.024 -0.0857 -0.1001  0.3760
15635TIP3    H168320   2.110   5.338  13.088  0.1383  0.9284  1.3537
15635TIP3    H268321   2.137   5.478  13.037  1.0246  0.2696 -0.0266
15636TIP3   OH268322   6.380   6.513   4.399  0.1894 -0.3769  0.4840
15636TIP3    H168323   6.289   6.501   4.372  0.3449 -1.3565  0.3495
15636TIP3    H268324   6.411   6.424   4.416  1.4221 -0.1524 -0.4796
15637TIP3   OH268325   3.011   3.399  14.436 -0.0165  0.5564  0.0912
15637TIP3    H168326   2.927   3.443  14.421 -1.3629 -0.9313  2.9171
15637TIP3    H268327   3.072   3.445  14.380 -2.4696  2.5325 -1.0572
15638TIP3   OH268328   3.034   5.670  16.079  0.1604  0.3416  0.2276
15638TIP3    H168329   2.940   5.661  16.095  0.2283  0.0534  0.4732
15638TIP3    H268330   3.040   5.732  16.006 -0.2120  0.5044  0.3315
15639TIP3   OH268331   4.825   6.415   3.033  0.1072 -0.0546 -0.4503
15639TIP3    H168332   4.842   6.487   3.094  1.8812 -1.1143  0.3483
15639TIP3    H268333   4.839   6.453   2.946 -0.8965  1.0676 -0.1289
15640TIP3   OH268334   2.283   0.489  13.179  0.1719  0.1904  0.3618
15640TIP3    H168335   2.254   0.579  13.189 -0.3416  0.0628  0.0462
15640TIP3    H268336   2.299   0.478  13.085 -0.5462 -0.2708  0.2827
15641TIP3   OH268337   2.161   2.221   5.234 -0.1378 -0.2937  0.1308
15641TIP3    H168338   2.194   2.215   5.323  1.1540  0.7409 -0.2568
15641TIP3    H268339   2.137   2.132   5.210  0.8668 -0.7953  0.9975
15642TIP3   OH268340   2.337   5.333  15.473  0.2903  0.7742 -0.7965
15642TIP3    H168341   2.427   5.363  15.475  0.9100 -1.0573  0.7523
15642TIP3    H268342   2.343   5.242  15.442 -0.9439  0.3967  0.0469
15643TIP3   OH268343   6.569   5.272  16.306  0.0605 -0.0512 -0.1811
15643TIP3    H168344   6.612   5.357  16.304  0.5461 -0.2465  1.3697
15643TIP3    H268345   6.494   5.284  16.364  0.1032 -0.6548  0.0052
15644TIP3   OH268346   6.641   3.851  16.990  0.4403  0.0047 -0.2176
15644TIP3    H168347   6.729   3.861  17.027  0.5866  1.8020 -1.0298
15644TIP3    H268348   6.655   3.806  16.907  0.5334 -0.0559 -0.1680
15645TIP3   OH268349   5.925   2.329   3.274 -0.7174  0.1091  0.4914
15645TIP3    H168350   5.895   2.322   3.365 -0.9959 -0.8063  0.3334
15645TIP3    H268351   5.867   2.270   3.225 -0.3772  0.3728 -0.2318
15646TIP3   OH268352   3.019   4.404  16.930 -0.4467 -0.0815 -0.1110
15646TIP3    H168353   2.985   4.416  16.842  1.5014 -0.5870 -0.9414
15646TIP3    H268354   3.029   4.493  16.964 -2.2364  0.0938  0.0419
15647TIP3   OH268355   0.610   3.400  11.348  0.5299  0.6763  0.2993
15647TIP3    H168356   0.632   3.322  11.399 -0.6476  0.3704  0.3587
15647TIP3    H268357   0.694   3.431  11.314  1.0280 -0.5336  0.3832
15648TIP3   OH268358   1.659   2.108  14.348 -0.2046  0.7596  0.2190
15648TIP3    H168359   1.581   2.054  14.357  0.8633 -1.1972 -1.6299
15648TIP3    H268360   1.627   2.194  14.322 -1.8146  0.5037  1.2809
15649TIP3   OH268361   2.827   2.796  12.338 -0.4318 -0.3432 -0.1294
15649TIP3    H168362   2.783   2.821  12.257 -1.6548 -0.7603  0.4014
15649TIP3    H268363   2.774   2.836  12.407 -0.1879 -1.1735  0.5375
15650TIP3   OH268364   1.269   5.912   4.200 -0.6379 -0.1328 -0.1849
15650TIP3    H168365   1.334   5.853   4.239 -1.6445 -0.7832  0.5295
15650TIP3    H268366   1.303   5.929   4.111  1.4949  1.0955  0.8097
15651TIP3   OH268367   2.196   6.070   1.366  0.5325 -0.0319  0.2433
15651TIP3    H168368   2.224   6.045   1.278 -1.2326  0.2521 -0.4180
15651TIP3    H268369   2.120   6.015   1.383 -0.3451  1.3221  0.7807
15652TIP3   OH268370   3.604   6.580   2.313 -0.2390  0.2642  0.4923
15652TIP3    H168371   3.638   6.624   2.391  0.4842  0.4462  0.0730
15652TIP3    H268372   3.533   6.525   2.346  0.2734  0.0974  1.3203
15653TIP3   OH268373   3.587   3.522  12.952  0.0061 -0.0660 -0.2803
15653TIP3    H168374   3.532   3.558  13.022 -0.4475 -0.2051 -0.5655
15653TIP3    H268375   3.561   3.570  12.874  1.3926  0.9596 -0.1173
15654TIP3   OH268376   1.166   0.793   1.274 -0.2613 -0.1883  0.6514
15654TIP3    H168377   1.205   0.720   1.323 -2.0802 -0.6012  1.5360
15654TIP3    H268378   1.073   0.770   1.267 -0.3572  0.7147 -1.4947
15655TIP3   OH268379   3.620   3.575   4.548  0.0196 -0.4878 -0.0700
15655TIP3    H168380   3.531   3.581   4.581 -0.2390 -0.1289 -0.8187
15655TIP3    H268381   3.614   3.514   4.475  0.3291 -0.2400 -0.3052
15656TIP3   OH268382   3.231   3.372  12.987 -0.0835  0.6085  0.3324
15656TIP3    H168383   3.300   3.415  13.038  0.3337  1.0364 -0.5867
15656TIP3    H268384   3.278   3.316  12.925 -0.5874  0.2812  0.2415
15657TIP3   OH268385   3.056   4.913   0.260  0.3723 -0.1083 -0.4418
15657TIP3    H168386   3.125   4.936   0.197  1.3140 -1.5951  0.0042
15657TIP3    H268387   2.974   4.936   0.216  1.1698  2.3032 -0.7185
15658TIP3   OH268388   2.938   4.287   4.702  0.1649 -0.2612 -0.2286
15658TIP3    H168389   2.940   4.320   4.792  0.1788  0.1827 -0.3932
15658TIP3    H268390   2.988   4.205   4.706  2.3925  1.0568 -0.3515
15659TIP3   OH268391   6.584   5.848  11.311 -0.1003  0.1218  0.4661
15659TIP3    H168392   6.541   5.897  11.381  5.0073 -0.5559  4.4720
15659TIP3    H268393   6.638   5.913  11.266  0.6105 -0.3273  0.6456
15660TIP3   OH268394   6.335   0.791   4.158 -0.2462 -0.3997  0.0495
15660TIP3    H168395   6.262   0.736   4.129 -0.5126 -0.1903  0.3097
15660TIP3    H268396   6.404   0.776   4.094  0.1504 -2.0092  0.8052
15661TIP3   OH268397   5.915   1.499   2.260  0.1125 -0.1620 -0.0323
15661TIP3    H168398   5.873   1.583   2.281 -0.6796 -0.7700  0.8400
15661TIP3    H268399   5.957   1.473   2.342  2.6098  0.6538 -0.9903
15662TIP3   OH268400   2.677   1.001  16.919 -0.0118  0.4750  0.2354
15662TIP3    H168401   2.649   1.059  16.848  1.6715  0.3648 -0.5650
15662TIP3    H268402   2.758   1.042  16.952  0.7574 -0.9730  0.1948
15663TIP3   OH268403   1.705   6.664   1.638  0.0089 -0.5275  0.4629
15663TIP3    H168404   1.736   6.645   1.549  0.2964  0.7614  0.2745
15663TIP3    H268405   1.706   6.580   1.683  2.4432 -0.7565  0.0319
15664TIP3   OH268406   1.121   4.265  16.289 -0.1155  0.2554  0.3350
15664TIP3    H168407   1.096   4.342  16.340 -1.3859 -0.7145  1.2282
15664TIP3    H268408   1.137   4.197  16.355  0.6696 -0.3289 -0.4489
15665TIP3   OH268409   5.173   5.248   2.721  0.1130  0.3754 -0.3966
15665TIP3    H168410   5.151   5.329   2.768  2.1050  0.8432 -0.2122
15665TIP3    H268411   5.151   5.266   2.630 -0.1004  0.8883 -0.2439
15666TIP3   OH268412   4.245   4.427  12.292 -0.4795 -0.8011  0.2819
15666TIP3    H168413   4.328   4.417  12.245  0.3474  0.3240  1.4610
15666TIP3    H268414   4.191   4.482  12.235 -0.1654 -0.9555 -0.1658
15667TIP3   OH268415   5.206   0.175   4.282 -0.2984  0.5887  0.7625
15667TIP3    H168416   5.249   0.178   4.367 -1.6975 -0.0604  1.4868
15667TIP3    H268417   5.208   0.083   4.257  2.4169  1.0909 -1.1089
15668TIP3   OH268418   4.084   4.245   1.941 -0.0492 -0.0478  0.2535
15668TIP3    H168419   4.018   4.278   2.002  0.2203 -2.7318  2.0536
15668TIP3    H268420   4.076   4.150   1.946  2.5361 -0.3770 -1.0925
15669TIP3   OH268421   0.805   6.558   6.057  0.2561 -0.5296  0.3647
15669TIP3    H168422   0.784   6.481   6.004 -0.2676 -1.0223  1.2613
15669TIP3    H268423   0.880   6.530   6.111  1.4613  0.3112 -0.8576
15670TIP3   OH268424   1.812   6.088  14.051 -0.1019 -0.0301  0.1208
15670TIP3    H168425   1.770   6.171  14.031 -0.3197 -0.0312  0.5725
15670TIP3    H268426   1.788   6.069  14.142  1.2195  0.1762  0.5274
15671TIP3   OH268427   5.464   0.218   2.389 -0.0119  0.2111  0.0814
15671TIP3    H168428   5.464   0.303   2.344  0.3818  0.7474  1.0941
15671TIP3    H268429   5.508   0.159   2.327  0.0998  0.8410 -0.4468
15672TIP3   OH268430   6.707   5.821  16.062 -0.0090  0.4160  0.2832
15672TIP3    H168431   6.694   5.832  16.156 -2.3914  1.6664 -0.1688
15672TIP3    H268432   6.748   5.903  16.034  0.3225  0.2064  0.1476
15673TIP3   OH268433   5.706   0.392   2.357 -0.2838  0.1572 -0.0224
15673TIP3    H168434   5.695   0.367   2.449 -2.0367 -1.1087 -0.5610
15673TIP3    H268435   5.684   0.485   2.355  0.1488  0.2862  0.8950
15674TIP3   OH268436   5.204   0.856  13.890 -0.5845 -0.7540  0.5579
15674TIP3    H168437   5.183   0.885  13.979  0.4903 -0.3493  0.6814
15674TIP3    H268438   5.225   0.763  13.900  3.3065  0.1361  1.3731
15675TIP3   OH268439   0.042   6.431  13.285  0.7376  0.1692  0.1576
15675TIP3    H168440   0.054   6.525  13.270  1.9460  0.2280  1.3991
15675TIP3    H268441   0.093   6.389  13.215 -0.4533  0.4236 -0.8791
15676TIP3   OH268442   5.407   2.145  13.311 -0.2809 -0.0895  0.0798
15676TIP3    H168443   5.464   2.101  13.249 -0.7436  0.0585 -0.4500
15676TIP3    H268444   5.327   2.093  13.311 -0.4143  0.1134  0.2874
15677TIP3   OH268445   2.670   4.253  16.485  0.6603  0.3555  0.5532
15677TIP3    H168446   2.705   4.195  16.553 -0.3525 -0.4565  0.3966
15677TIP3    H268447   2.710   4.221  16.404  1.9370  1.3800  0.7739
15678TIP3   OH268448   6.123   3.781   0.234  0.1350  0.2519 -0.5953
15678TIP3    H168449   6.073   3.839   0.176  1.0041  1.3987 -0.1978
15678TIP3    H268450   6.210   3.820   0.239  0.7129 -1.0483 -0.2645
15679TIP3   OH268451   6.586   2.046  11.967  0.9676  0.1365  0.1203
15679TIP3    H168452   6.583   2.042  11.871  1.3885  0.6009  0.0869
15679TIP3    H268453   6.494   2.054  11.993  0.8648  0.1917 -0.2514
15680TIP3   OH268454   3.387   5.577   0.207  0.1789 -0.2056  0.1633
15680TIP3    H168455   3.337   5.622   0.274  1.0280  0.8556  0.0896
15680TIP3    H268456   3.396   5.640   0.136  0.8024 -0.7154 -0.2243
15681TIP3   OH268457   4.819   3.045  16.989  0.4453  0.5068  0.5216
15681TIP3    H168458   4.766   3.069  17.065  2.7287 -0.3657  2.4396
15681TIP3    H268459   4.898   3.006  17.026  2.0522  0.9711 -2.2932
15682TIP3   OH268460   3.991   0.449  17.012  0.1275  0.2008  0.6841
15682TIP3    H168461   3.984   0.419  17.102  0.3875  1.1960  1.0463
15682TIP3    H268462   3.952   0.537  17.013 -0.8698 -0.2137 -0.4016
15683TIP3   OH268463   3.285   1.306  12.606 -0.2503 -0.5459 -0.1211
15683TIP3    H168464   3.263   1.393  12.574 -0.4264 -0.1537  1.0449
15683TIP3    H268465   3.339   1.267  12.537  0.1047  0.6134 -0.4967
15684TIP3   OH268466   6.773   0.053   4.115  0.0993  0.1387 -0.5533
15684TIP3    H168467   6.790  -0.040   4.099 -1.1168  0.1788 -2.1252
15684TIP3    H268468   6.853   0.097   4.087 -0.1195 -0.2505 -1.8033
15685TIP3   OH268469   1.056   6.232  14.552  0.3799 -0.1272 -0.4477
15685TIP3    H168470   0.973   6.230  14.600 -0.6763  0.1554 -2.2235
15685TIP3    H268471   1.032   6.214  14.461  2.4468 -1.4376 -0.7649
15686TIP3   OH268472   0.156   1.164  13.260 -0.2065  0.7447 -0.6138
15686TIP3    H168473   0.065   1.135  13.257  0.6520 -2.0200 -1.4393
15686TIP3    H268474   0.171   1.191  13.350 -1.4420 -0.0915 -0.1588
15687TIP3   OH268475   6.422   1.306   4.274 -0.2496 -0.1000  0.3849
15687TIP3    H168476   6.452   1.316   4.364  0.1677 -0.8197  0.3353
15687TIP3    H268477   6.433   1.212   4.256 -1.6223 -0.2037  0.0460
15688TIP3   OH268478   5.865   3.160   3.388  0.2593 -0.5188 -0.0659
15688TIP3    H168479   5.782   3.126   3.353  1.1450 -1.6724 -1.0874
15688TIP3    H268480   5.900   3.089   3.440  1.4148 -0.6428 -1.0003
15689TIP3   OH268481   5.574   4.583  13.056 -0.5204 -0.4074 -0.1905
15689TIP3    H168482   5.531   4.551  12.976 -0.8091 -2.0686  0.6019
15689TIP3    H268483   5.564   4.511  13.118  0.6346  0.4593  1.0105
15690TIP3   OH268484   5.004   4.140   0.318 -0.0385 -0.1847  0.2218
15690TIP3    H168485   4.984   4.109   0.407 -1.6910 -1.0766 -0.4408
15690TIP3    H268486   5.038   4.063   0.273 -0.4228 -0.0660 -0.2814
15691TIP3   OH268487   3.333   6.095   5.160  0.4150  0.3617  0.1524
15691TIP3    H168488   3.242   6.122   5.169  0.3743  0.0199  0.7882
15691TIP3    H268489   3.363   6.081   5.250  0.6398 -1.0264 -0.1253
15692TIP3   OH268490   6.325   6.533  15.922  0.2893  0.3868  0.0255
15692TIP3    H168491   6.270   6.604  15.954  0.6697  0.6840  0.0308
15692TIP3    H268492   6.405   6.576  15.892 -0.1644  0.1508 -1.6052
15693TIP3   OH268493   1.137   2.591  14.515 -0.4363  0.2073  0.2319
15693TIP3    H168494   1.093   2.518  14.558 -1.1227 -0.5494 -1.7126
15693TIP3    H268495   1.191   2.550  14.448 -0.3250  1.4465 -0.4432
15694TIP3   OH268496   3.960   5.037  15.598  0.6705 -0.1069  1.0506
15694TIP3    H168497   3.900   5.109  15.619 -0.5416 -0.7009 -0.3351
15694TIP3    H268498   3.998   5.062  15.513 -1.6927 -2.3041 -0.7105
15695TIP3   OH268499   0.082   4.767   1.980  0.1257  0.1763 -0.1702
15695TIP3    H168500   0.004   4.759   1.925 -1.1046 -0.5923  1.6568
15695TIP3    H268501   0.104   4.860   1.977 -1.1409  0.4805 -0.3299
15696TIP3   OH268502   4.180   3.629   6.132  0.2169  0.2467  0.5445
15696TIP3    H168503   4.124   3.622   6.209  0.6748 -1.0046  0.7876
15696TIP3    H268504   4.203   3.538   6.111 -0.8015  0.4882 -1.7438
15697TIP3   OH268505   5.816   4.347  16.366 -0.5288  0.1846  0.1294
15697TIP3    H168506   5.893   4.392  16.333  0.6330 -1.1459  0.9471
15697TIP3    H268507   5.817   4.362  16.460 -1.8739  1.0482  0.0178
15698TIP3   OH268508   2.105   1.434  12.550  0.7136  0.1815 -0.0613
15698TIP3    H168509   2.174   1.473  12.495  1.7227  0.0521  1.0885
15698TIP3    H268510   2.137   1.346  12.570  0.4273  0.2851  0.8652
15699TIP3   OH268511   3.828   6.562  16.669  0.3987 -0.3348  0.4079
15699TIP3    H168512   3.921   6.583  16.677  0.5924 -0.3274 -1.4912
15699TIP3    H268513   3.819   6.526  16.580 -1.1467 -1.7466  1.0945
15700TIP3   OH268514   1.884   0.582  11.759  0.0998 -0.1251 -0.5304
15700TIP3    H168515   1.886   0.568  11.664 -1.9450 -2.5784 -0.2816
15700TIP3    H268516   1.811   0.642  11.773  1.3157  1.3906 -0.6067
15701TIP3   OH268517   5.310   5.670  16.514  0.1284  0.1703 -0.4289
15701TIP3    H168518   5.350   5.639  16.595 -1.5855  2.1262  1.2337
15701TIP3    H268519   5.367   5.742  16.485  0.1610  0.1720 -0.3627
15702TIP3   OH268520   4.309   5.039  12.098  0.2577 -0.0237  0.1531
15702TIP3    H168521   4.299   5.120  12.148  1.3019 -1.0261  2.0280
15702TIP3    H268522   4.330   4.973  12.163 -2.1094 -2.1539 -1.1383
15703TIP3   OH268523   0.789   3.713  12.193  0.0010  0.4135  0.5529
15703TIP3    H168524   0.716   3.774  12.192 -1.1381 -0.9441 -0.1531
15703TIP3    H268525   0.840   3.736  12.115 -1.2330 -0.4751 -0.5397
15704TIP3   OH268526   5.018   0.835   2.099  1.0638 -0.4396  0.0169
15704TIP3    H168527   5.034   0.917   2.145  0.4177 -0.1447 -0.2863
15704TIP3    H268528   4.928   0.842   2.067  0.7818 -1.5287  0.5400
15705TIP3   OH268529   4.270   2.602   0.968 -0.1034 -0.1580 -0.0361
15705TIP3    H168530   4.185   2.596   0.925  0.5309 -0.4538 -1.2614
15705TIP3    H268531   4.267   2.686   1.015  0.1435  1.4103 -2.7334
15706TIP3   OH268532   1.937   6.453   3.001 -0.1337  0.1087  0.8338
15706TIP3    H168533   2.020   6.462   3.048  1.1078  1.1670 -1.4908
15706TIP3    H268534   1.957   6.395   2.928 -1.8164 -0.7876  1.0575
15707TIP3   OH268535   5.326   0.410   4.492 -0.0842 -0.1428 -0.4495
15707TIP3    H168536   5.359   0.364   4.569 -0.5542 -0.9439 -0.7199
15707TIP3    H268537   5.344   0.350   4.419  0.2845  0.5719 -0.9513
15708TIP3   OH268538   0.767   0.925   1.744 -0.3972  0.5882 -0.6318
15708TIP3    H168539   0.685   0.933   1.791 -1.5346 -1.1498 -2.2483
15708TIP3    H268540   0.743   0.927   1.652  1.6166  2.2436 -1.1705
15709TIP3   OH268541   6.301   6.109   5.359  0.2382 -0.0738  0.3896
15709TIP3    H168542   6.372   6.047   5.374 -0.8725 -1.2436  0.9198
15709TIP3    H268543   6.236   6.059   5.310 -0.8158  0.5629  1.1224
15710TIP3   OH268544   0.243   4.363   6.173  0.9865  0.4274  0.0503
15710TIP3    H168545   0.314   4.314   6.215  0.6743  0.0594  0.1515
15710TIP3    H268546   0.272   4.454   6.175  0.7314  0.4849  1.5520
15711TIP3   OH268547   4.055   3.782   1.410  0.0406  0.5066 -0.1409
15711TIP3    H168548   4.129   3.725   1.387 -0.8376 -0.6957 -0.0572
15711TIP3    H268549   4.082   3.824   1.492  0.4446 -0.2799  0.1438
15712TIP3   OH268550   3.941   0.958   6.372 -0.6107 -0.2538 -0.3494
15712TIP3    H168551   3.973   0.910   6.449 -1.0535  0.7192  0.4579
15712TIP3    H268552   3.878   1.021   6.408 -0.3045  0.6806 -1.4341
15713TIP3   OH268553   6.163   3.976   2.612  0.3164  0.0654 -0.0616
15713TIP3    H168554   6.075   3.938   2.621  0.7118 -0.7638  0.3325
15713TIP3    H268555   6.150   4.070   2.624 -0.5638 -0.0236 -0.2888
15714TIP3   OH268556   2.367   0.096   2.290 -0.1579  0.0565  0.1328
15714TIP3    H168557   2.386   0.182   2.253  1.6153 -0.6305 -0.5849
15714TIP3    H268558   2.338   0.115   2.380  0.1768  1.4000 -0.0342
15715TIP3   OH268559   6.537   5.685  14.112  0.0502  0.3946  0.5486
15715TIP3    H168560   6.467   5.623  14.132  1.0999 -0.5962  1.1697
15715TIP3    H268561   6.603   5.634  14.065  1.5632  0.6736  2.2858
15716TIP3   OH268562   4.245   5.288  11.085 -0.4443 -0.2980 -0.7654
15716TIP3    H168563   4.211   5.287  10.996 -1.1061  0.0475 -0.5186
15716TIP3    H268564   4.338   5.310  11.076 -0.6070  0.1471 -1.3293
15717TIP3   OH268565   1.790   5.829  15.941 -0.0157 -1.0156 -0.0425
15717TIP3    H168566   1.699   5.858  15.927  0.8090  1.5708 -0.4302
15717TIP3    H268567   1.785   5.734  15.945 -2.3639 -1.1219 -3.1512
15718TIP3   OH268568   5.108   6.005  11.417  0.0499  0.0051 -0.3574
15718TIP3    H168569   5.172   6.075  11.405  0.2394 -0.2700 -0.9291
15718TIP3    H268570   5.065   6.027  11.501  1.6207 -0.4067  0.5697
15719TIP3   OH268571   2.099   4.099  16.086  0.2797 -0.1209 -0.1497
15719TIP3    H168572   2.007   4.113  16.066  0.8303  2.6455 -0.8481
15719TIP3    H268573   2.103   4.098  16.182 -0.6325 -1.5121 -0.1167
15720TIP3   OH268574   4.833   1.088  12.527 -0.2666  0.2821 -0.3144
15720TIP3    H168575   4.887   1.048  12.596 -0.7778  1.9591  1.0960
15720TIP3    H268576   4.747   1.049  12.539 -0.6527  1.4163  0.7834
15721TIP3   OH268577   5.656   4.414   2.023 -0.0198 -0.2135  0.0563
15721TIP3    H168578   5.676   4.363   2.101  0.8302  0.8590  0.5603
15721TIP3    H268579   5.639   4.502   2.056 -1.6746 -0.2006 -0.7740
15722TIP3   OH268580   5.221   1.930  12.584  0.1781  0.2199 -0.6223
15722TIP3    H168581   5.253   1.841  12.591 -1.8428 -0.7203 -2.6274
15722TIP3    H268582   5.284   1.983  12.633  0.6920 -2.4380  1.6590
15723TIP3   OH268583   5.614   2.217  16.338 -0.4983  0.4436 -0.1194
15723TIP3    H168584   5.565   2.192  16.259 -1.2033  1.1562  0.0912
15723TIP3    H268585   5.705   2.214  16.310 -0.8053  2.1600 -1.4036
15724TIP3   OH268586   2.663   0.882  14.367  0.6639  0.1102  0.8824
15724TIP3    H168587   2.617   0.811  14.412  1.1285 -1.5112 -1.1213
15724TIP3    H268588   2.754   0.854  14.365  0.5618 -0.1499 -1.5616
15725TIP3   OH268589   1.748   3.209  13.206  0.7183  0.6993 -0.5169
15725TIP3    H168590   1.687   3.282  13.216  0.3650  0.3855 -0.3584
15725TIP3    H268591   1.784   3.219  13.118  0.5790  0.9935 -0.5388
15726TIP3   OH268592   6.266   0.434  13.648  0.4846 -0.0291 -0.0131
15726TIP3    H168593   6.274   0.500  13.716 -0.5170  0.0130  0.0634
15726TIP3    H268594   6.280   0.482  13.566  2.3289 -0.1967  0.1860
15727TIP3   OH268595   6.363   4.582   0.781 -0.2107  0.0465 -0.0760
15727TIP3    H168596   6.273   4.602   0.805 -0.4946 -0.3544 -0.7946
15727TIP3    H268597   6.363   4.489   0.761 -0.0955  0.4587 -2.0941
15728TIP3   OH268598   4.356   2.864   5.854  0.6555  0.2218  0.2498
15728TIP3    H168599   4.412   2.817   5.793  0.4871  3.1386 -2.2662
15728TIP3    H268600   4.379   2.828   5.940  2.5977 -2.3049 -1.2634
15729TIP3   OH268601   3.145   5.706   2.865 -0.1399  0.0517  0.0851
15729TIP3    H168602   3.108   5.635   2.917  0.2172 -1.3091 -1.4929
15729TIP3    H268603   3.240   5.690   2.865 -0.1899 -0.3592 -1.5347
15730TIP3   OH268604   5.078   4.490  11.475  0.1510 -0.2177  0.2307
15730TIP3    H168605   5.044   4.569  11.432 -0.5063 -1.0963 -0.8720
15730TIP3    H268606   5.122   4.442  11.405  0.4899 -0.8692  0.8914
15731TIP3   OH268607   0.645   2.524   3.410  0.3565  0.6482 -0.6328
15731TIP3    H168608   0.718   2.463   3.419 -0.2291 -0.0058 -0.3046
15731TIP3    H268609   0.628   2.527   3.315 -0.6863 -0.9744 -0.5157
15732TIP3   OH268610   1.243   5.545   2.938  0.0715  0.5276 -0.6108
15732TIP3    H168611   1.200   5.466   2.968  0.8483  0.0865 -0.6430
15732TIP3    H268612   1.197   5.570   2.858  0.7725 -0.7262 -1.4174
15733TIP3   OH268613   4.835   4.532   3.580 -0.1808  0.6077  0.2748
15733TIP3    H168614   4.872   4.617   3.605 -0.1834  0.9645 -0.9137
15733TIP3    H268615   4.899   4.468   3.611 -1.1550  0.8868  3.0695
15734TIP3   OH268616   0.908   6.158   1.008 -0.1840  0.2259  0.6087
15734TIP3    H168617   0.912   6.068   1.039 -0.4964  0.0334  0.0858
15734TIP3    H268618   0.838   6.159   0.943  0.6346  0.5736 -0.2833
15735TIP3   OH268619   5.712   5.582  11.807  0.5146  0.2073 -0.2732
15735TIP3    H168620   5.631   5.530  11.800  0.7439 -0.0033 -1.3451
15735TIP3    H268621   5.710   5.640  11.732  1.1887  0.4618 -0.0952
15736TIP3   OH268622   0.402   5.590   0.678 -0.0581 -0.6389  0.5364
15736TIP3    H168623   0.381   5.634   0.596  0.2185  0.6639  1.1436
15736TIP3    H268624   0.495   5.609   0.693 -0.0823 -0.9378  1.1064
15737TIP3   OH268625   1.725   0.434   2.267 -0.0824 -0.3974 -0.3372
15737TIP3    H168626   1.784   0.398   2.333 -1.3259 -0.0026  1.0381
15737TIP3    H268627   1.762   0.407   2.183  1.5853 -0.8265  0.5249
15738TIP3   OH268628   2.259   3.727   0.243  0.0501 -0.4115  0.0115
15738TIP3    H168629   2.303   3.794   0.192  0.7572 -0.5888  0.3786
15738TIP3    H268630   2.304   3.728   0.328 -1.0878 -0.1424  0.6183
15739TIP3   OH268631   0.710   1.520  16.783  0.3231  0.4467 -0.4302
15739TIP3    H168632   0.667   1.510  16.868  3.4396 -0.5801  1.0954
15739TIP3    H268633   0.741   1.610  16.781  2.7493 -0.3253  0.7954
15740TIP3   OH268634   6.178   4.092   1.339  0.3220  0.1837  0.7964
15740TIP3    H168635   6.265   4.121   1.313  0.1078  1.5557  1.5866
15740TIP3    H268636   6.138   4.169   1.381 -1.3890 -0.3168  0.1318
15741TIP3   OH268637   2.062   1.437  16.398 -0.3154 -0.3947  0.0044
15741TIP3    H168638   1.973   1.409  16.376 -1.3882  1.5235  1.7633
15741TIP3    H268639   2.071   1.522  16.355  0.9256 -0.8580 -0.6833
15742TIP3   OH268640   2.233   3.818   2.228 -0.3556  0.2934 -1.1591
15742TIP3    H168641   2.182   3.738   2.213 -0.4773 -0.5014  2.7803
15742TIP3    H268642   2.323   3.794   2.205 -0.0761 -1.6409  1.6414
15743TIP3   OH268643   5.083   2.073   0.113  0.6467 -0.3272 -1.1492
15743TIP3    H168644   5.140   2.134   0.065  0.2822  1.1678  0.3031
15743TIP3    H268645   5.098   2.093   0.205 -1.1888 -0.8956 -0.7170
15744TIP3   OH268646   4.816   4.482  15.343 -0.2270 -0.2532 -0.1627
15744TIP3    H168647   4.911   4.473  15.347 -0.1624 -0.0822 -1.1974
15744TIP3    H268648   4.784   4.427  15.415  0.6635 -0.0395  0.4034
15745TIP3   OH268649   0.321   2.006   4.226 -0.1380  0.0643  0.2416
15745TIP3    H168650   0.358   2.019   4.314  2.3052  1.4038 -0.9115
15745TIP3    H268651   0.318   1.911   4.215  1.7149 -0.1084  0.9404
15746TIP3   OH268652   4.623   4.466  15.140 -0.3416 -0.0813 -0.2124
15746TIP3    H168653   4.700   4.484  15.194  1.1590  1.3795 -2.7654
15746TIP3    H268654   4.655   4.409  15.070 -1.2004  1.7922 -2.1831
15747TIP3   OH268655   4.228   2.297  12.683 -0.0172 -0.2066 -0.3561
15747TIP3    H168656   4.186   2.271  12.766 -1.4636  0.5863 -0.8127
15747TIP3    H268657   4.166   2.358  12.644  1.9755  1.6462 -0.6856
15748TIP3   OH268658   3.333   5.168  15.183 -0.1358 -0.2052  0.4092
15748TIP3    H168659   3.353   5.200  15.271 -0.8426 -0.6717  0.7518
15748TIP3    H268660   3.246   5.128  15.192 -0.3372  0.0002 -0.5688
15749TIP3   OH268661   3.805   2.412   2.577 -0.2480  0.2617  0.5028
15749TIP3    H168662   3.853   2.450   2.503  0.1503  1.4832  1.3821
15749TIP3    H268663   3.716   2.398   2.544  0.0203  0.4533 -0.3125
15750TIP3   OH268664   5.891   5.321   4.462  0.2948 -0.1258  0.0391
15750TIP3    H168665   5.808   5.277   4.482  0.1331  0.0356 -0.2711
15750TIP3    H268666   5.958   5.260   4.493  0.0511  0.3327  1.5286
15751TIP3   OH268667   2.875   2.801   3.167  0.2214 -0.8833  0.2257
15751TIP3    H168668   2.793   2.822   3.123  0.0694 -0.2526  0.8071
15751TIP3    H268669   2.942   2.848   3.117  0.0913 -0.4446  0.4694
15752TIP3   OH268670   2.330   3.009  15.619 -0.2559  0.3174 -0.0944
15752TIP3    H168671   2.328   2.995  15.713  2.0443  1.5524  0.1779
15752TIP3    H268672   2.296   2.927  15.582  2.8737 -1.9557  1.7415
15753TIP3   OH268673   3.907   0.413  15.450 -0.0100  0.1119  0.3830
15753TIP3    H168674   3.952   0.404  15.534 -1.1539 -0.0253  1.0038
15753TIP3    H268675   3.850   0.489  15.462 -1.5582 -1.0186  0.3941
15754TIP3   OH268676   5.105   2.139   3.150  0.1531  0.9072  0.1940
15754TIP3    H168677   5.042   2.110   3.084  0.1618  0.3913  0.4090
15754TIP3    H268678   5.076   2.227   3.174 -0.1986  0.8618 -0.0629
15755TIP3   OH268679   1.889   1.815   5.215 -0.0205 -0.0178  0.5326
15755TIP3    H168680   1.927   1.761   5.146  0.2399  2.2718 -1.1554
15755TIP3    H268681   1.965   1.853   5.261 -0.2141 -0.0892  0.9152
15756TIP3   OH268682   1.289   0.474   2.485  0.5040  0.3004  0.5456
15756TIP3    H168683   1.289   0.469   2.389 -2.4136 -0.8091  0.5378
15756TIP3    H268684   1.217   0.535   2.505  0.1745 -0.5774  2.0587
15757TIP3   OH268685   5.145   0.085  11.817  0.3616 -0.0347  0.1771
15757TIP3    H168686   5.107  -0.000  11.840  1.3690 -0.0371  1.9747
15757TIP3    H268687   5.101   0.147  11.875  0.4163  0.5088 -0.3631
15758TIP3   OH268688   5.281   4.959   4.396 -0.5630 -0.3479 -0.0856
15758TIP3    H168689   5.261   5.018   4.469  1.3171  1.8108 -1.2422
15758TIP3    H268690   5.214   4.978   4.330 -1.0370 -0.8273  0.2511
15759TIP3   OH268691   5.301   5.074   3.345 -0.1904 -0.4844 -0.2930
15759TIP3    H168692   5.239   5.120   3.402 -2.0278 -2.0668 -0.9170
15759TIP3    H268693   5.371   5.045   3.403 -1.2807 -0.7722  0.9119
15760TIP3   OH268694   5.575   4.147   3.967  0.2540 -0.1003  0.2216
15760TIP3    H168695   5.557   4.096   3.888  0.0636 -0.1428  0.2940
15760TIP3    H268696   5.671   4.150   3.972  0.2673  1.0273 -0.7406
15761TIP3   OH268697   4.043   0.146   0.949 -0.4618 -0.1700  0.1358
15761TIP3    H168698   4.085   0.226   0.917  2.5282 -0.8652  2.0216
15761TIP3    H268699   3.996   0.173   1.028  2.4445 -0.5490  2.1057
15762TIP3   OH268700   6.417   0.046  15.474  0.5357  0.0816 -0.2154
15762TIP3    H168701   6.450  -0.041  15.454  3.0017  0.9634 -0.1929
15762TIP3    H268702   6.375   0.075  15.393  0.9728 -0.5639 -0.6737
15763TIP3   OH268703   2.486   4.366  11.400 -0.1634 -0.2257 -0.4256
15763TIP3    H168704   2.531   4.451  11.404  0.0345 -0.3282 -0.4341
15763TIP3    H268705   2.554   4.305  11.370  0.1367 -0.6902  1.1489
15764TIP3   OH268706   5.247   3.324  13.035  0.0606  0.0815 -0.4384
15764TIP3    H168707   5.204   3.408  13.051 -1.5776 -0.8026 -0.1497
15764TIP3    H268708   5.191   3.279  12.972 -0.0259 -1.5330  0.7589
15765TIP3   OH268709   5.624   2.895   2.337  0.3941 -0.5711 -0.1004
15765TIP3    H168710   5.691   2.960   2.314 -0.8763  0.9440  0.3504
15765TIP3    H268711   5.541   2.938   2.314 -0.5756 -1.2196  2.0891
15766TIP3   OH268712   0.382   5.762  10.472  0.2866  0.7575 -0.0567
15766TIP3    H168713   0.413   5.716  10.393 -0.8827 -0.2433  0.0471
15766TIP3    H268714   0.307   5.710  10.501  1.4680  0.3808  2.4466
15767TIP3   OH268715   1.944   5.846  12.800  0.1419  0.1922 -0.4633
15767TIP3    H168716   1.918   5.814  12.714 -1.2116  1.7064 -0.6416
15767TIP3    H268717   2.019   5.903  12.784  0.2501  0.0167 -0.5759
15768TIP3   OH268718   3.636   1.835   2.389  0.3020  0.2561  0.1818
15768TIP3    H168719   3.614   1.812   2.480  0.6089 -0.8529 -0.0241
15768TIP3    H268720   3.720   1.881   2.396 -0.1904  1.1309  0.5627
15769TIP3   OH268721   0.646   4.589  10.868 -0.5216  0.8002  0.3291
15769TIP3    H168722   0.583   4.588  10.940  0.7715  1.7266  1.5211
15769TIP3    H268723   0.693   4.506  10.876  1.2816  1.9334  2.1317
15770TIP3   OH268724   6.149   3.600  16.785 -0.5496 -0.1265  0.1742
15770TIP3    H168725   6.089   3.626  16.715 -0.3042 -1.8086 -0.6901
15770TIP3    H268726   6.145   3.504  16.785  2.4357 -0.2901 -0.1854
15771TIP3   OH268727   2.649   0.110   2.187  0.2245  0.2697 -0.3966
15771TIP3    H168728   2.559   0.092   2.161 -0.0595  1.9023 -0.5968
15771TIP3    H268729   2.686   0.024   2.206 -1.2364 -0.4554 -0.7513
15772TIP3   OH268730   0.255   4.251   2.240  0.2121  0.7022  0.2496
15772TIP3    H168731   0.262   4.175   2.298  1.3646  1.8170  1.6015
15772TIP3    H268732   0.185   4.304   2.278  0.6079  1.1738  0.3195
15773TIP3   OH268733   5.281   4.954   5.750 -0.0945  0.3856  0.0434
15773TIP3    H168734   5.194   4.982   5.720  0.8925  0.9944 -2.4087
15773TIP3    H268735   5.290   4.865   5.716  0.1034  0.1897  0.6075
15774TIP3   OH268736   5.754   4.319  17.051  0.0459  0.7076 -0.1997
15774TIP3    H168737   5.846   4.319  17.075  0.4456  0.9052 -1.6518
15774TIP3    H268738   5.707   4.306  17.133  1.4388 -1.6991  0.2636
15775TIP3   OH268739   1.686   6.122   3.772  0.0837 -0.6896 -0.6094
15775TIP3    H168740   1.755   6.116   3.706 -1.1203  0.0785 -1.9601
15775TIP3    H268741   1.659   6.031   3.786  0.0556 -0.8201 -1.4914
15776TIP3   OH268742   6.075   3.915  12.971 -0.2876 -0.5827 -0.0992
15776TIP3    H168743   6.027   3.962  12.903  0.1901 -0.8026 -0.5955
15776TIP3    H268744   6.114   3.841  12.926  1.4400  0.1962  0.0614
15777TIP3   OH268745   3.608   4.401  14.627  0.1787  0.3885 -0.3420
15777TIP3    H168746   3.588   4.490  14.656  1.0678  0.6358 -0.4863
15777TIP3    H268747   3.664   4.365  14.695 -1.4053 -0.5920  0.4612
15778TIP3   OH268748   2.543   4.828  16.255 -0.4203  0.0526 -0.0962
15778TIP3    H168749   2.488   4.836  16.333  1.0995 -1.2184  1.1568
15778TIP3    H268750   2.563   4.918  16.230 -1.2313  0.4743  0.7512
15779TIP3   OH268751   1.074   3.918   5.307 -0.1474 -0.8392  0.2375
15779TIP3    H168752   0.993   3.931   5.258  0.1928  1.0514  0.1223
15779TIP3    H268753   1.082   3.997   5.360  2.0785 -0.5936 -0.4226
15780TIP3   OH268754   3.479   6.249  15.529 -0.2343  0.5057  0.1615
15780TIP3    H168755   3.500   6.269  15.620 -1.0056 -0.0279  0.4619
15780TIP3    H268756   3.519   6.320  15.479 -0.4936  1.2328  0.9783
15781TIP3   OH268757   3.531   5.514  13.187  0.2939  0.0106  0.5196
15781TIP3    H168758   3.450   5.553  13.153 -1.3251 -3.7515 -0.2305
15781TIP3    H268759   3.570   5.470  13.112  1.0204 -1.3816  1.6831
15782TIP3   OH268760   3.893   1.497   2.330  0.1528  0.0327  0.4668
15782TIP3    H168761   3.932   1.558   2.393 -2.2407  0.7438  1.3159
15782TIP3    H268762   3.849   1.431   2.385 -0.5987 -0.2515 -0.4617
15783TIP3   OH268763   6.498   1.769   1.780  0.0214 -0.6678  0.3250
15783TIP3    H168764   6.445   1.843   1.749 -0.0751  0.0907  2.2197
15783TIP3    H268765   6.488   1.771   1.875  0.1658 -3.0362  0.4005
15784TIP3   OH268766   0.470   0.573   1.786  0.3661 -0.5927 -0.5268
15784TIP3    H168767   0.430   0.486   1.781  1.0333 -0.7821 -3.0759
15784TIP3    H268768   0.543   0.569   1.725 -0.9668  2.4605 -2.3915
15785TIP3   OH268769   6.584   4.804   3.004  0.7364 -0.0817 -0.0429
15785TIP3    H168770   6.638   4.730   3.031 -1.8878 -2.0443  0.0663
15785TIP3    H268771   6.614   4.823   2.915  0.3720 -2.3964 -0.7166
15786TIP3   OH268772   4.696   3.301   1.156  0.0267  0.0744 -0.2441
15786TIP3    H168773   4.779   3.254   1.159  0.5127  0.9341 -0.2216
15786TIP3    H268774   4.637   3.249   1.211 -0.0280 -1.6433 -1.8462
15787TIP3   OH268775   3.749   5.210   3.413 -0.3112  0.3490  0.0951
15787TIP3    H168776   3.768   5.165   3.496  0.0874  0.4512  0.0605
15787TIP3    H268777   3.825   5.192   3.358  0.1215  1.5462  0.2867
15788TIP3   OH268778   0.143   3.168  14.134  0.2016 -0.3467  0.3721
15788TIP3    H168779   0.156   3.223  14.057 -1.8662  0.2064  0.3917
15788TIP3    H268780   0.057   3.193  14.167 -0.6013 -3.3132  0.6217
15789TIP3   OH268781   4.829   3.005   4.889 -0.3887 -0.2964 -0.1269
15789TIP3    H168782   4.901   3.068   4.898  1.2639 -2.1537 -0.1626
15789TIP3    H268783   4.870   2.919   4.898 -2.4517 -1.4319 -1.1617
15790TIP3   OH268784   1.278   4.613  16.503 -0.3797 -0.2705  0.5383
15790TIP3    H168785   1.270   4.707  16.485  0.2603  0.1352  2.2759
15790TIP3    H268786   1.293   4.608  16.597 -1.9962 -2.2250  0.7309
15791TIP3   OH268787   0.230   6.382  14.515 -0.3500  0.0009 -0.5543
15791TIP3    H168788   0.163   6.426  14.463  0.2272  0.3920 -0.9784
15791TIP3    H268789   0.276   6.452  14.560  1.3257 -0.0450 -2.1353
15792TIP3   OH268790   2.435   2.890  13.794 -0.0844  0.2407  0.1549
15792TIP3    H168791   2.375   2.815  13.797  0.4687 -0.1815  0.8609
15792TIP3    H268792   2.517   2.854  13.760 -0.4956  1.0194 -1.7670
15793TIP3   OH268793   0.801   5.235  11.811  0.2250 -0.5392 -0.2100
15793TIP3    H168794   0.721   5.247  11.760  0.3575 -1.4893 -0.6574
15793TIP3    H268795   0.820   5.321  11.848 -1.0511 -0.3266 -0.0423
15794TIP3   OH268796   2.411   5.300  13.906  0.1411  0.0398 -0.4956
15794TIP3    H168797   2.332   5.295  13.852  0.6883 -0.3161 -1.2721
15794TIP3    H268798   2.423   5.211  13.939 -1.0559  0.5848  1.4801
15795TIP3   OH268799   5.942   3.370  10.865 -0.1773 -0.7837 -0.2470
15795TIP3    H168800   6.004   3.314  10.817  0.5517  0.2569 -0.5351
15795TIP3    H268801   5.873   3.389  10.802 -0.7484 -1.8614  0.0409
15796TIP3   OH268802   5.353   3.047   4.755  0.4794 -0.2331  0.0069
15796TIP3    H168803   5.407   3.119   4.785  1.1961 -0.5208 -0.5841
15796TIP3    H268804   5.393   2.969   4.794 -0.0676 -0.3579  0.3363
15797TIP3   OH268805   5.292   2.005  11.668 -0.3529  0.4626 -0.3510
15797TIP3    H168806   5.329   2.021  11.581  0.1724  0.0344 -0.2089
15797TIP3    H268807   5.285   1.910  11.673  1.6244  0.3574  0.9039
15798TIP3   OH268808   5.715   3.963   1.009 -0.5861 -0.4371 -0.6302
15798TIP3    H168809   5.643   3.975   1.072 -0.3027  0.5378 -0.4847
15798TIP3    H268810   5.786   4.017   1.044 -0.3372 -0.0964 -1.6454
15799TIP3   OH268811   4.326   5.637  12.589  0.3759  0.0325  0.1215
15799TIP3    H168812   4.331   5.712  12.648 -1.1344 -0.4710  0.9419
15799TIP3    H268813   4.363   5.564  12.639 -2.3450 -0.7463  1.1237
15800TIP3   OH268814   6.325   1.429   4.600 -0.0524  0.2444  0.0534
15800TIP3    H168815   6.384   1.354   4.586 -2.2991 -1.9269  1.7406
15800TIP3    H268816   6.248   1.410   4.546 -0.3837  1.6749 -0.0046
15801TIP3   OH268817   5.246   2.592   0.478 -0.1807 -0.3666 -0.0915
15801TIP3    H168818   5.230   2.510   0.431 -0.2822 -1.1881  1.3608
15801TIP3    H268819   5.319   2.632   0.431  0.6167 -1.8294 -0.1526
15802TIP3   OH268820   5.976   4.596  12.171 -0.1189 -0.3826 -0.2541
15802TIP3    H168821   6.071   4.590  12.180  0.0413 -2.2233 -2.4979
15802TIP3    H268822   5.950   4.509  12.142 -2.4491  0.2222 -0.0535
15803TIP3   OH268823   2.657   1.697   1.346  0.7664 -0.1374  0.2417
15803TIP3    H168824   2.704   1.615   1.326  1.5622  0.3418  0.1028
15803TIP3    H268825   2.649   1.740   1.261 -0.7942 -0.6578  0.1165
15804TIP3   OH268826   5.043   2.153  15.248 -0.0845 -0.1872  0.2627
15804TIP3    H168827   5.106   2.123  15.314  1.8861 -0.0665 -1.5189
15804TIP3    H268828   5.040   2.248  15.260  1.5546  0.0360 -0.8761
15805TIP3   OH268829   5.429   6.236   3.325 -0.2047 -0.4623 -0.4677
15805TIP3    H168830   5.340   6.207   3.346 -0.1907 -0.3359 -0.2179
15805TIP3    H268831   5.486   6.166   3.358 -0.1787 -0.2312 -0.0174
15806TIP3   OH268832   4.378   2.102  14.969 -0.0389 -0.2012 -0.2544
15806TIP3    H168833   4.292   2.144  14.972 -0.3275 -0.8205  0.4012
15806TIP3    H268834   4.438   2.167  15.005 -0.6758 -0.7724  1.9384
15807TIP3   OH268835   0.181   0.003   3.227 -0.0289 -0.0474  0.0027
15807TIP3    H168836   0.164   0.097   3.232 -1.5602 -0.3473  0.4348
15807TIP3    H268837   0.212  -0.021   3.314  2.4118  0.4214 -0.6735
15808TIP3   OH268838   0.121   5.434   5.634  0.1477 -0.3122  0.7875
15808TIP3    H168839   0.152   5.463   5.719  2.3902 -0.8804  0.1989
15808TIP3    H268840   0.054   5.369   5.654  0.6253 -0.4162  2.1184
15809TIP3   OH268841   2.264   3.421  11.384  0.2346  0.0286 -0.0153
15809TIP3    H168842   2.178   3.461  11.373 -0.0818 -0.8063 -0.6101
15809TIP3    H268843   2.277   3.415  11.478  0.2584  1.4792  0.0810
15810TIP3   OH268844   3.031   1.843   5.737 -0.0883  0.1821 -0.4166
15810TIP3    H168845   3.010   1.833   5.644  0.5463  0.6637 -0.6105
15810TIP3    H268846   3.001   1.761   5.777  1.2998 -0.8057 -1.3338
15811TIP3   OH268847   2.136   4.526  11.424  0.0261 -0.1712  0.3535
15811TIP3    H168848   2.202   4.535  11.492  1.1822 -0.3895 -0.7364
15811TIP3    H268849   2.122   4.431  11.416 -0.1062 -0.1461  0.2742
15812TIP3   OH268850   3.265   4.722  16.453 -0.1801 -0.2055  0.0023
15812TIP3    H168851   3.281   4.756  16.365 -2.6328  0.6480 -0.1637
15812TIP3    H268852   3.192   4.660  16.442  0.3292 -1.0564  1.2469
15813TIP3   OH268853   4.518   2.954  11.303 -0.5866  0.2864  0.4873
15813TIP3    H168854   4.601   3.000  11.316 -0.2240  0.1894 -1.3193
15813TIP3    H268855   4.499   2.966  11.210 -3.4736  1.7629  1.2269
15814TIP3   OH268856   4.299   4.907  13.768 -0.6118 -0.1636  0.2313
15814TIP3    H168857   4.209   4.897  13.801 -0.8497 -1.7639 -0.8525
15814TIP3    H268858   4.295   4.984  13.712 -1.7105 -1.1485 -1.0833
15815TIP3   OH268859   3.992   1.444   4.857  0.0013  0.8951  0.3115
15815TIP3    H168860   4.072   1.427   4.907  0.4613  1.1372 -0.3329
15815TIP3    H268861   4.017   1.427   4.766 -1.6257 -2.4080  0.4199
15816TIP3   OH268862   3.387   6.724  11.591  0.3371  0.8764 -0.1071
15816TIP3    H168863   3.418   6.803  11.547  0.7205  0.0856 -1.2821
15816TIP3    H268864   3.464   6.668  11.597  0.1836  0.7994  1.1953
15817TIP3   OH268865   3.843   1.643  15.555 -0.0687 -0.0403  0.6702
15817TIP3    H168866   3.887   1.694  15.487  1.0523 -0.6521  0.9128
15817TIP3    H268867   3.750   1.664  15.546  0.2530  1.1160  0.0017
15818TIP3   OH268868   1.905   0.749   2.133 -0.1412 -0.2264  0.1338
15818TIP3    H168869   1.863   0.752   2.219 -0.0805 -1.3640  0.2060
15818TIP3    H268870   1.996   0.773   2.150  0.0304 -1.1167  0.4919
15819TIP3   OH268871   4.942   2.007   4.767  0.1786 -0.2513  0.8564
15819TIP3    H168872   4.962   2.085   4.819 -1.9141  1.2993 -0.5866
15819TIP3    H268873   4.877   1.960   4.819  1.0118 -0.7667  1.4531
15820TIP3   OH268874   6.518   2.439   4.565 -0.1331 -0.2250 -0.1656
15820TIP3    H168875   6.572   2.418   4.489  0.9590  2.9548 -0.3296
15820TIP3    H268876   6.578   2.436   4.639 -0.2219  1.0921 -0.0355
15821TIP3   OH268877   0.297   0.848   6.010  0.2622 -0.4257  0.1144
15821TIP3    H168878   0.235   0.783   6.044  0.3301 -1.4644 -1.6991
15821TIP3    H268879   0.376   0.798   5.991  0.2051  0.1136 -1.6075
15822TIP3   OH268880   6.694   4.968  11.502  0.2604 -0.2883  0.5594
15822TIP3    H168881   6.784   4.978  11.472  0.6101  0.0905  1.7112
15822TIP3    H268882   6.702   4.952  11.596 -0.8407 -0.9836  0.5428
15823TIP3   OH268883   0.341   5.327   0.609  0.3439  0.0686  0.1747
15823TIP3    H168884   0.287   5.382   0.553  1.3611  0.1578 -0.7445
15823TIP3    H268885   0.379   5.388   0.673  1.6290  0.5055 -0.9659
15824TIP3   OH268886   2.709   3.800  13.108 -0.1055 -0.3119 -0.3703
15824TIP3    H168887   2.714   3.705  13.117 -0.1940 -0.1425  1.7107
15824TIP3    H268888   2.619   3.817  13.082 -0.8891 -0.6504  1.9602
15825TIP3   OH268889   4.253   6.357   2.441 -0.3000  0.3485 -0.3903
15825TIP3    H168890   4.188   6.309   2.492  0.8133 -2.2767 -1.3681
15825TIP3    H268891   4.207   6.378   2.359 -0.3973 -0.0752 -0.4419
15826TIP3   OH268892   6.662   0.128   1.470  0.1820  0.4038 -0.4359
15826TIP3    H168893   6.714   0.049   1.456  0.8414  0.9059 -0.8374
15826TIP3    H268894   6.626   0.117   1.558 -0.4230 -0.7312 -0.8024
15827TIP3   OH268895   0.444   5.833   1.088 -0.2147  0.3553  0.2809
15827TIP3    H168896   0.427   5.813   0.996 -0.4354  0.4828  0.2936
15827TIP3    H268897   0.397   5.914   1.104 -1.6697 -0.5996  0.9664
15828TIP3   OH268898   1.281   2.190   3.731 -0.2153  0.4274  0.0330
15828TIP3    H168899   1.348   2.199   3.799 -1.3509  0.3779  1.1743
15828TIP3    H268900   1.252   2.279   3.714 -0.7204  0.3406  0.4228
15829TIP3   OH268901   2.390   4.155   3.665  0.2486 -0.2259  0.2410
15829TIP3    H168902   2.391   4.072   3.713 -1.1486 -1.0430 -1.0670
15829TIP3    H268903   2.364   4.220   3.730  1.9056 -0.7073  1.4121
15830TIP3   OH268904   5.876   4.002  12.762 -0.0546  0.1096 -0.4606
15830TIP3    H168905   5.911   4.079  12.717  0.7860  0.5349  0.8773
15830TIP3    H268906   5.792   4.032  12.798  0.6017  0.6310  0.6646
15831TIP3   OH268907   4.139   2.373  11.569  0.0120  0.2037  0.1291
15831TIP3    H168908   4.111   2.417  11.489 -0.7050 -2.4328 -1.1441
15831TIP3    H268909   4.058   2.352  11.615  0.3999  1.2830  1.3478
15832TIP3   OH268910   0.860   6.741  11.898 -0.7270 -0.0717 -0.2514
15832TIP3    H168911   0.794   6.761  11.964 -1.1511  0.6815 -0.8932
15832TIP3    H268912   0.843   6.650  11.874 -0.1025 -0.5722  1.2043
15833TIP3   OH268913   1.509   6.662   0.407 -0.1265 -0.0550 -0.5200
15833TIP3    H168914   1.558   6.718   0.467 -1.3219  0.9412 -0.4530
15833TIP3    H268915   1.565   6.654   0.330  1.0804 -0.7122  0.4004
15834TIP3   OH268916   3.170   4.014   6.335 -0.2865  0.9085  0.4534
15834TIP3    H168917   3.180   4.019   6.430  1.4357 -1.4516  0.4283
15834TIP3    H268918   3.256   3.987   6.303 -1.6297 -1.2428 -1.4890
15835TIP3   OH268919   5.011   4.190  13.168 -0.2382  0.5116  0.1378
15835TIP3    H168920   5.052   4.128  13.108  1.0140  0.3776  1.1139
15835TIP3    H268921   4.929   4.149  13.194 -0.1756 -0.0029 -0.4660
15836TIP3   OH268922   2.769   0.838   4.220  0.2673  0.1661  0.3575
15836TIP3    H168923   2.711   0.762   4.227  1.4808 -0.6232  2.1274
15836TIP3    H268924   2.822   0.821   4.141 -1.7634  0.8260 -1.1864
15837TIP3   OH268925   1.873   2.300   2.148 -0.1073 -0.6795 -0.0222
15837TIP3    H168926   1.779   2.284   2.155 -0.4629  1.9009  1.3888
15837TIP3    H268927   1.883   2.355   2.070  0.0671  0.2344  0.6365
15838TIP3   OH268928   5.931   4.074  14.180 -0.2667 -0.5186  0.0515
15838TIP3    H168929   5.874   3.997  14.183 -1.0172 -0.0526 -1.2382
15838TIP3    H268930   5.873   4.144  14.150  0.9525 -0.0071 -1.1892
15839TIP3   OH268931   4.468   1.218   0.917  0.5077 -0.1478  0.0096
15839TIP3    H168932   4.513   1.217   0.833  0.3148  1.7576 -0.1318
15839TIP3    H268933   4.537   1.236   0.981  0.3662  0.1353  0.0816
15840TIP3   OH268934   2.844   6.180   0.905  0.0161  0.2778 -0.4924
15840TIP3    H168935   2.932   6.209   0.881  0.4817  0.4349  1.3863
15840TIP3    H268936   2.859   6.103   0.961 -1.1024 -0.9961 -1.8852
15841TIP3   OH268937   2.004   4.765  11.726  0.3234 -0.2786  0.1121
15841TIP3    H168938   2.073   4.706  11.697  0.4892  1.0444 -2.3443
15841TIP3    H268939   2.024   4.784  11.817  2.7121 -0.5754 -0.3356
15842TIP3   OH268940   0.732   1.217   1.102 -0.3736 -0.3915  0.4741
15842TIP3    H168941   0.773   1.304   1.098 -1.0236 -0.1058 -0.1720
15842TIP3    H268942   0.642   1.235   1.129 -0.7583 -0.7773 -0.5215
15843TIP3   OH268943   5.685   4.897  11.627  0.1831  0.3913  0.5031
15843TIP3    H168944   5.595   4.917  11.601  0.5781  2.6293  0.7987
15843TIP3    H268945   5.736   4.970  11.594  1.2921  1.2686  3.9893
15844TIP3   OH268946   6.554   5.279  12.167  0.7859  0.1245 -0.0862
15844TIP3    H168947   6.568   5.322  12.082 -1.5286  1.1454  0.0239
15844TIP3    H268948   6.545   5.351  12.229 -3.6287 -0.3995  0.0188
15845TIP3   OH268949   1.374   1.322  14.852 -0.2534 -0.4835 -0.4651
15845TIP3    H168950   1.429   1.371  14.790  0.7793 -0.3135  0.5730
15845TIP3    H268951   1.436   1.285  14.914 -1.2560 -1.0455  0.2004
15846TIP3   OH268952   0.982   6.506  12.622  0.2886 -0.1791 -0.0710
15846TIP3    H168953   0.974   6.424  12.575 -0.6405 -0.3470  0.3724
15846TIP3    H268954   0.986   6.573  12.553  0.5083 -0.5475 -0.4156
15847TIP3   OH268955   6.574   1.225   4.991 -0.3694  0.1475 -0.0561
15847TIP3    H168956   6.494   1.175   4.985 -1.8497  2.5247 -0.7917
15847TIP3    H268957   6.596   1.224   5.085 -0.9359 -0.9897  0.0667
15848TIP3   OH268958   1.240   4.249  15.783  0.2847 -0.0407  0.4980
15848TIP3    H168959   1.209   4.294  15.862  0.4711  0.1647  0.4555
15848TIP3    H268960   1.160   4.217  15.741 -0.0413  2.0767 -0.5663
15849TIP3   OH268961   2.038   0.406  14.430 -0.1741  0.2386  0.1917
15849TIP3    H168962   2.098   0.359  14.372  0.0744  0.7356  0.0402
15849TIP3    H268963   2.001   0.338  14.486  0.3186 -0.1111  0.0970
15850TIP3   OH268964   6.249   5.851  11.961 -0.7095 -0.4483  0.4550
15850TIP3    H168965   6.308   5.775  11.962 -0.1107  0.0044  1.7376
15850TIP3    H268966   6.202   5.845  11.878 -0.0944 -1.7841  0.1944
15851TIP3   OH268967   0.749   5.674   5.462 -0.8067  0.7371  0.2828
15851TIP3    H168968   0.704   5.642   5.540 -3.0291  1.0342 -0.8391
15851TIP3    H268969   0.733   5.606   5.397  1.2603  0.3689  0.1530
15852TIP3   OH268970   2.665   1.271  11.578  0.3798 -0.0815  0.2893
15852TIP3    H168971   2.738   1.321  11.615  2.0705 -0.3714 -2.4832
15852TIP3    H268972   2.707   1.202  11.527 -1.7962  0.3263 -2.1691
15853TIP3   OH268973   3.367   0.136  15.264  0.1406 -0.3758  0.4468
15853TIP3    H168974   3.367   0.221  15.307  1.8618 -0.0595 -0.1755
15853TIP3    H268975   3.434   0.085  15.309 -0.0556 -1.0191  0.0296
15854TIP3   OH268976   3.312   4.546   5.763 -0.1723  0.3105 -0.5100
15854TIP3    H168977   3.336   4.584   5.848  0.7133 -1.0376 -0.1360
15854TIP3    H268978   3.219   4.527   5.771 -0.3907  1.4009 -0.3220
15855TIP3   OH268979   3.726   2.233   6.676 -0.1697  0.2364 -0.0759
15855TIP3    H168980   3.634   2.252   6.692 -0.6794 -0.2762 -2.2254
15855TIP3    H268981   3.729   2.139   6.662  0.2024  0.6163 -2.8349
15856TIP3   OH268982   4.145   1.424  12.094  0.0685  0.2818  0.4684
15856TIP3    H168983   4.062   1.378  12.081 -0.9761  2.4305 -0.7312
15856TIP3    H268984   4.130   1.479  12.172  0.2294  0.9238  0.0528
15857TIP3   OH268985   1.751   0.313   0.953 -0.2756 -0.2959 -0.3730
15857TIP3    H168986   1.680   0.249   0.951 -1.2999  0.7543  1.0588
15857TIP3    H268987   1.826   0.267   0.914 -1.5843 -1.5919 -1.4208
15858TIP3   OH268988   5.238   0.411   4.102  0.0795 -0.2327 -0.0494
15858TIP3    H168989   5.242   0.343   4.170 -1.1558 -0.1286  0.1506
15858TIP3    H268990   5.155   0.456   4.119 -0.3061 -0.2930 -1.7034
15859TIP3   OH268991   6.587   1.237   0.538  0.5404  0.0227  0.6926
15859TIP3    H168992   6.537   1.230   0.619  0.4556 -0.2040  0.6219
15859TIP3    H268993   6.545   1.174   0.479  0.1857  0.6522  0.2603
15860TIP3   OH268994   3.325   2.982  11.090  0.4016  0.1824 -0.0469
15860TIP3    H168995   3.237   2.950  11.071 -0.3167  2.2870 -0.3819
15860TIP3    H268996   3.329   2.985  11.186  0.7967 -1.6719  0.0248
15861TIP3   OH268997   3.544   3.702   0.326 -0.0629 -0.4929  0.1280
15861TIP3    H168998   3.559   3.784   0.373 -1.1295 -1.7307  2.7399
15861TIP3    H268999   3.629   3.681   0.286  0.5400  1.2288  0.4541
15862TIP3   OH269000   5.099   6.368  12.377  0.2426 -0.0877 -0.6514
15862TIP3    H169001   5.181   6.397  12.417 -0.4791  0.2233  0.6205
15862TIP3    H269002   5.045   6.340  12.451 -0.6272 -0.7322 -1.5233
15863TIP3   OH269003   4.379   3.615   3.608  0.7871  0.5701 -0.1965
15863TIP3    H169004   4.426   3.577   3.534 -2.8233 -1.8856 -1.3309
15863TIP3    H269005   4.439   3.602   3.682  1.6533 -3.2789 -1.4095
15864TIP3   OH269006   5.525   2.468  13.749 -0.3769 -0.2443  0.0482
15864TIP3    H169007   5.550   2.521  13.673  0.6738 -0.1199  0.4742
15864TIP3    H269008   5.569   2.510  13.823  0.8149 -1.9525  0.3364
15865TIP3   OH269009   1.971   0.423   3.423  0.2859  0.0120  0.2629
15865TIP3    H169010   1.892   0.381   3.389  0.3300  1.4334 -1.6871
15865TIP3    H269011   1.954   0.432   3.517 -1.2259 -1.0555  0.1149
15866TIP3   OH269012   1.969   0.987   4.777  0.0339  0.4892  0.1647
15866TIP3    H169013   1.986   0.918   4.842 -1.6627  0.1596  0.2843
15866TIP3    H269014   2.052   0.997   4.731  0.6939 -0.6864  1.0516
15867TIP3   OH269015   3.268   1.402   2.075  0.4997 -0.7706 -0.0750
15867TIP3    H169016   3.242   1.372   1.988 -2.8676 -1.1015  0.9753
15867TIP3    H269017   3.292   1.322   2.122 -3.2689 -1.3578  1.0313
15868TIP3   OH269018   3.263   4.337  16.339 -0.2853  0.3156  0.3826
15868TIP3    H169019   3.341   4.392  16.328 -0.1466  0.4037  1.7171
15868TIP3    H269020   3.298   4.253  16.369 -0.9610  1.6679  5.2733
15869TIP3   OH269021   6.555   3.717   5.248  0.0782  0.1720 -0.4079
15869TIP3    H169022   6.523   3.807   5.244  0.7091  0.3372 -2.0831
15869TIP3    H269023   6.512   3.673   5.175  1.4473 -0.3282 -0.9277
15870TIP3   OH269024   6.334   1.143   0.117 -0.2038  0.0861  0.1743
15870TIP3    H169025   6.240   1.133   0.104 -0.1915  0.4943 -0.2535
15870TIP3    H269026   6.373   1.072   0.067 -0.2501  0.3904 -0.2937
15871TIP3   OH269027   2.760   0.107  16.099  0.2971  0.5907 -0.1676
15871TIP3    H169028   2.842   0.151  16.078 -0.6242  1.2706 -2.4235
15871TIP3    H269029   2.731   0.068  16.017 -0.2953 -1.9588  1.1992
15872TIP3   OH269030   5.324   5.518  13.764  0.2131 -0.5605 -0.0326
15872TIP3    H169031   5.260   5.477  13.706 -1.0145  0.8998  0.2713
15872TIP3    H269032   5.292   5.500  13.852 -1.0991  2.1730  0.0952
15873TIP3   OH269033   3.453   1.393   3.916 -0.0872 -0.1432 -0.3372
15873TIP3    H169034   3.425   1.375   3.826  2.0160  0.6084 -1.1637
15873TIP3    H269035   3.448   1.488   3.924  0.5120 -0.1442  0.0634
15874TIP3   OH269036   6.260   5.894   4.473  0.5016  0.4247 -0.2426
15874TIP3    H169037   6.294   5.961   4.531  1.0239 -0.4535  0.4759
15874TIP3    H269038   6.165   5.895   4.489  0.1763  2.6508 -2.0200
15875TIP3   OH269039   0.296   4.864  16.600 -0.1555  0.0502  0.3620
15875TIP3    H169040   0.348   4.826  16.671 -0.9667  0.0560  0.9645
15875TIP3    H269041   0.206   4.840  16.621 -0.3195 -0.7326 -1.1651
15876TIP3   OH269042   6.064   3.758  15.849 -0.5514  0.0891  0.1049
15876TIP3    H169043   6.134   3.820  15.870  1.5805 -1.9606 -0.6876
15876TIP3    H269044   6.018   3.745  15.932  0.4582  0.9430  0.8094
15877TIP3   OH269045   6.572   0.266  11.027 -0.1159  0.0151 -0.3390
15877TIP3    H169046   6.505   0.317  11.072 -0.4786  0.3906 -1.3021
15877TIP3    H269047   6.655   0.304  11.056 -0.3050 -0.3978  0.7953
15878TIP3   OH269048   0.243   3.355   5.176  0.2384 -0.3933  0.3703
15878TIP3    H169049   0.285   3.344   5.091  0.7417 -0.2848  0.6010
15878TIP3    H269050   0.197   3.439   5.170  0.1714 -0.4449  0.1650
15879TIP3   OH269051   5.174   4.329   5.402  0.1852  0.0122 -0.4725
15879TIP3    H169052   5.147   4.417   5.375 -0.6511 -0.4343 -1.1138
15879TIP3    H269053   5.110   4.271   5.361  0.0091 -0.8155  0.9505
15880TIP3   OH269054   1.237   5.560   4.287  0.1336  0.1120 -0.5817
15880TIP3    H169055   1.279   5.567   4.202 -1.1305 -0.5879 -1.2795
15880TIP3    H269056   1.152   5.522   4.269  0.7827 -2.3677  1.2549
15881TIP3   OH269057   2.737   1.689   5.356 -0.5776 -0.4840 -0.6525
15881TIP3    H169058   2.647   1.721   5.349 -0.5924 -0.2908  0.3812
15881TIP3    H269059   2.733   1.599   5.321 -0.9806 -0.1600 -1.4520
15882TIP3   OH269060   0.092   0.987  12.267  0.1197  0.0590 -0.5578
15882TIP3    H169061   0.016   1.045  12.267  1.2170  1.5323 -1.1630
15882TIP3    H269062   0.076   0.926  12.339 -1.3677  0.7025 -0.3364
15883TIP3   OH269063   1.906   1.442   0.898  0.1880 -0.0621  0.0316
15883TIP3    H169064   1.878   1.509   0.960 -0.0177  0.0182 -0.1486
15883TIP3    H269065   1.905   1.486   0.813  0.7070 -0.1011  0.0026
15884TIP3   OH269066   2.973   6.189  13.321 -0.4186 -0.1962 -0.3540
15884TIP3    H169067   2.986   6.123  13.388 -1.9784  0.6091  0.7504
15884TIP3    H269068   2.883   6.219  13.332  0.0585  1.6698 -1.2318
15885TIP3   OH269069   5.438   3.807  12.763 -1.2258  0.4380  0.4107
15885TIP3    H169070   5.401   3.845  12.683 -1.1965  0.1223  0.2436
15885TIP3    H269071   5.463   3.882  12.816  1.9049  0.6987 -1.3178
15886TIP3   OH269072   6.008   2.624  15.328  0.0554  0.0864  0.2553
15886TIP3    H169073   6.025   2.718  15.325  0.0334  0.0448 -1.4411
15886TIP3    H269074   5.915   2.616  15.307  0.1982 -0.3563 -0.2126
15887TIP3   OH269075   5.337   6.444   4.141 -0.1672 -0.4015 -0.4079
15887TIP3    H169076   5.420   6.470   4.101  2.4166 -3.6072  2.5952
15887TIP3    H269077   5.303   6.376   4.083  0.4541 -0.6782 -0.4516
15888TIP3   OH269078   3.696   5.946   5.491 -0.1929 -0.2377 -0.1932
15888TIP3    H169079   3.757   5.880   5.522  0.5381  0.0322 -1.0397
15888TIP3    H269080   3.732   6.029   5.522 -0.8141 -0.1828  0.3942
15889TIP3   OH269081   3.551   6.191   1.317  0.2469  0.6321 -0.0858
15889TIP3    H169082   3.499   6.121   1.356  2.4425 -0.5020  0.8715
15889TIP3    H269083   3.531   6.187   1.223 -0.7841 -0.2827  0.1652
15890TIP3   OH269084   0.743   1.945   3.727  0.0807  0.0210 -0.0633
15890TIP3    H169085   0.760   1.970   3.637 -0.1093 -0.0795 -0.1279
15890TIP3    H269086   0.656   1.906   3.725  0.9245 -1.9641 -0.2470
15891TIP3   OH269087   2.173   2.016  15.056  0.2086 -0.1109 -0.1776
15891TIP3    H169088   2.169   2.016  14.961 -0.0722  0.5000 -0.1700
15891TIP3    H269089   2.082   2.008  15.084  0.2829 -0.2130  0.0419
15892TIP3   OH269090   2.993   6.386  12.162  0.0002  0.1637 -0.5774
15892TIP3    H169091   3.038   6.302  12.166 -2.5091 -1.2412 -0.6620
15892TIP3    H269092   2.971   6.397  12.070  0.1634  0.8271 -0.5385
15893TIP3   OH269093   0.135   2.358   0.262  0.2925  0.1604  0.0123
15893TIP3    H169094   0.227   2.333   0.268 -0.8337 -4.2761  0.7261
15893TIP3    H269095   0.101   2.347   0.351 -0.8558  2.2223 -0.1354
15894TIP3   OH269096   1.052   3.963   0.715  0.3594  0.1249 -0.1596
15894TIP3    H169097   0.981   4.026   0.708  0.9570  0.7503 -0.7140
15894TIP3    H269098   1.131   4.014   0.700  0.9515 -0.5109  0.7333
15895TIP3   OH269099   4.559   1.340   6.741  0.1491 -0.1127 -0.3321
15895TIP3    H169100   4.545   1.395   6.818  1.9960 -1.2623  0.8739
15895TIP3    H269101   4.587   1.400   6.672 -0.7636  0.8269  0.1157
15896TIP3   OH269102   3.751   3.033  14.358  0.1614  0.3596  0.0473
15896TIP3    H169103   3.755   3.037  14.453  2.5554  1.2537 -0.0401
15896TIP3    H269104   3.715   3.118  14.331 -0.1089  0.2748  0.1454
15897TIP3   OH269105   4.344   2.173  15.336  0.0016  0.6281  0.2682
15897TIP3    H169106   4.305   2.182  15.423  1.4027  0.4484  0.9291
15897TIP3    H269107   4.382   2.259  15.317 -2.1522  1.3169 -1.1069
15898TIP3   OH269108   1.656   4.818   1.988 -0.0839  0.3166 -0.0582
15898TIP3    H169109   1.725   4.796   2.050 -0.4604 -0.4275  0.1045
15898TIP3    H269110   1.684   4.779   1.906 -0.2704  0.0711 -0.0082
15899TIP3   OH269111   0.624   4.833   3.223 -0.5146 -0.5384 -0.5467
15899TIP3    H169112   0.543   4.797   3.259 -1.5682 -0.1639 -2.4692
15899TIP3    H269113   0.691   4.767   3.243 -1.3441 -0.9815  0.7980
15900TIP3   OH269114   1.658   4.662  13.155  0.2515 -0.5513 -0.2994
15900TIP3    H169115   1.572   4.627  13.176  0.5199 -0.7882  0.4232
15900TIP3    H269116   1.677   4.724  13.226  0.7857 -0.6966 -0.3121
15901TIP3   OH269117   5.590   5.465  14.110  0.1155  0.4362 -0.0129
15901TIP3    H169118   5.591   5.538  14.048  1.0126  0.7872  0.4074
15901TIP3    H269119   5.500   5.433  14.108 -0.7804  2.7869  1.2405
15902TIP3   OH269120   5.859   2.830  11.283 -0.5133  0.4451 -0.1979
15902TIP3    H169121   5.870   2.768  11.355 -1.4350  1.1177  0.5424
15902TIP3    H269122   5.771   2.867  11.296  0.5395  2.9216  0.2156
15903TIP3   OH269123   0.794   1.294  11.953  0.5131 -0.2332 -0.7526
15903TIP3    H169124   0.852   1.293  12.029 -0.5800 -0.4482  0.1024
15903TIP3    H269125   0.713   1.333  11.986  0.0655 -0.2148 -1.8457
15904TIP3   OH269126   2.995   6.352   1.789  0.0077 -0.2417 -0.2674
15904TIP3    H169127   3.069   6.386   1.739 -0.0690 -0.5595 -0.6017
15904TIP3    H269128   2.944   6.302   1.725  0.7757 -2.0184  0.4823
15905TIP3   OH269129   3.075   6.070  12.909 -0.1284 -0.4339 -0.4441
15905TIP3    H169130   3.144   6.030  12.963  1.7886  0.3264 -2.3052
15905TIP3    H269131   3.059   6.005  12.840 -0.9593 -0.4026 -0.2817
15906TIP3   OH269132   5.307   5.110  15.251 -0.3042 -0.1023 -0.3399
15906TIP3    H169133   5.354   5.175  15.304 -0.3248  0.2243 -0.7276
15906TIP3    H269134   5.375   5.048  15.224 -0.1782  0.0999 -0.4904
15907TIP3   OH269135   3.523   0.643   1.682  0.1274 -0.1858 -0.1698
15907TIP3    H169136   3.540   0.673   1.772 -0.4528 -3.6289  1.1813
15907TIP3    H269137   3.430   0.660   1.668 -0.0750 -0.8031  0.3829
15908TIP3   OH269138   0.309   3.093  11.346  0.3296 -0.4026 -0.0360
15908TIP3    H169139   0.290   3.169  11.400  2.0471 -0.0972  0.1787
15908TIP3    H269140   0.268   3.113  11.261  1.8455  1.3610 -0.3983
15909TIP3   OH269141   6.784   5.228  10.668 -0.6340  0.1668  0.3140
15909TIP3    H169142   6.752   5.235  10.578  0.2243  1.1323  0.0697
15909TIP3    H269143   6.713   5.186  10.716 -0.1929 -2.4879 -1.2904
15910TIP3   OH269144   4.813   2.163  11.408  0.0948 -0.4913 -0.0652
15910TIP3    H169145   4.903   2.140  11.432  0.6491  2.8622  1.4665
15910TIP3    H269146   4.760   2.090  11.441  2.1276 -1.8925  0.1932
15911TIP3   OH269147   2.485   2.418   0.756  0.1854  0.5420 -0.3375
15911TIP3    H169148   2.469   2.325   0.744 -0.1195  0.3042  1.8136
15911TIP3    H269149   2.421   2.461   0.698 -0.5505 -0.5674 -0.3552
15912TIP3   OH269150   5.329   6.742   2.245  0.0562 -0.4609 -0.1150
15912TIP3    H169151   5.323   6.677   2.175  2.1336 -0.3714 -0.4215
15912TIP3    H269152   5.336   6.826   2.199 -1.5475 -0.1016  0.2634
15913TIP3   OH269153   2.210   2.599  11.287 -0.2836 -0.1385  0.0854
15913TIP3    H169154   2.250   2.639  11.364  1.1491 -0.2136 -0.5948
15913TIP3    H269155   2.123   2.637  11.282  0.6682  2.1293  0.0588
15914TIP3   OH269156   2.923   3.228   3.358  0.0925  0.2888 -0.2412
15914TIP3    H169157   2.993   3.186   3.308 -1.5429 -3.7081  0.6430
15914TIP3    H269158   2.964   3.258   3.439  0.9075 -1.5346  0.0326
15915TIP3   OH269159   1.725   1.978   5.831 -0.4970 -0.2843 -0.6059
15915TIP3    H169160   1.641   2.013   5.861  0.1100  1.4009 -0.8261
15915TIP3    H269161   1.730   1.891   5.871 -2.3470 -0.4137 -0.5977
15916TIP3   OH269162   3.034   4.086   0.533  0.3004 -0.2079 -0.1393
15916TIP3    H169163   2.998   4.114   0.617 -1.4137  0.8824 -1.2023
15916TIP3    H269164   3.075   4.002   0.552  0.0104  0.0550  1.8018
15917TIP3   OH269165   4.366   1.760   1.734 -0.2753  0.2313  0.4481
15917TIP3    H169166   4.455   1.764   1.697 -0.0334 -2.1514  0.6966
15917TIP3    H269167   4.378   1.775   1.827 -0.4638  2.5477  0.1282
15918TIP3   OH269168   0.428   1.185  12.254  0.2446  0.1008 -0.0079
15918TIP3    H169169   0.339   1.195  12.288 -0.4709 -1.6518 -1.2896
15918TIP3    H269170   0.435   1.250  12.184 -0.5537 -0.7572 -0.8972
15919TIP3   OH269171   4.757   0.647   3.306  0.0467  0.2022 -0.4324
15919TIP3    H169172   4.693   0.590   3.348 -1.2165  1.1028 -1.1076
15919TIP3    H269173   4.785   0.598   3.229 -0.2948  0.0685 -0.4749
15920TIP3   OH269174   4.411   6.031   4.333 -0.5676  0.6666 -0.3686
15920TIP3    H169175   4.432   5.939   4.349  0.9485  1.0721  0.0045
15920TIP3    H269176   4.353   6.029   4.257 -1.9234 -0.7190  0.6571
15921TIP3   OH269177   2.304   0.642   1.659  0.4580 -0.3464  0.4652
15921TIP3    H169178   2.328   0.553   1.686 -2.6183 -1.3397  0.1247
15921TIP3    H269179   2.216   0.633   1.622  0.5153  2.6835 -0.5385
15922TIP3   OH269180   5.244   4.665  13.032 -0.4242 -0.6777 -0.8570
15922TIP3    H169181   5.209   4.718  13.104 -1.3480 -0.7216 -1.2735
15922TIP3    H269182   5.253   4.577  13.069  0.0550 -0.4868 -0.5044
15923TIP3   OH269183   0.677   2.449  11.719  0.1612  0.0716  0.6934
15923TIP3    H169184   0.743   2.518  11.724  0.9168 -0.6615  0.9119
15923TIP3    H269185   0.727   2.368  11.704 -0.6493 -0.5432  1.2413
15924TIP3   OH269186   4.415   5.430  12.337  0.1486  0.1312 -0.4979
15924TIP3    H169187   4.430   5.455  12.428  1.0721 -0.4520 -0.4772
15924TIP3    H269188   4.492   5.463  12.290 -0.0080 -0.1337 -0.9473
15925TIP3   OH269189   6.371   2.688   0.058 -0.4010 -0.0472  0.2417
15925TIP3    H169190   6.401   2.664   0.145  1.0676 -0.9682 -0.4948
15925TIP3    H269191   6.300   2.627   0.039 -0.4920 -0.0675  0.6527
15926TIP3   OH269192   0.094   2.586   6.560 -0.0507 -0.2005  0.5122
15926TIP3    H169193   0.166   2.523   6.573 -0.4630 -0.1689  3.2996
15926TIP3    H269194   0.028   2.537   6.512  0.7704 -1.0377  0.2146
15927TIP3   OH269195   0.947   4.176  15.965  0.7785 -0.0883  0.2411
15927TIP3    H169196   0.967   4.083  15.976 -0.9941 -0.2492  2.5443
15927TIP3    H269197   1.021   4.221  16.004  0.3779 -0.5916  1.6235
15928TIP3   OH269198   5.087   5.681  16.315 -1.1509 -0.1798 -0.0191
15928TIP3    H169199   5.035   5.678  16.395  0.7573  1.8307  1.3627
15928TIP3    H269200   5.176   5.657  16.343 -0.7115 -0.7508 -1.7891
15929TIP3   OH269201   4.029   6.565   1.880 -0.2225  0.2513  0.1051
15929TIP3    H169202   3.988   6.580   1.965 -0.8848  0.0076 -0.1662
15929TIP3    H269203   4.016   6.472   1.862 -0.8449  0.4787 -0.6455
15930TIP3   OH269204   6.313   2.404  12.185 -0.2154  0.6821 -0.1234
15930TIP3    H169205   6.251   2.351  12.135  0.9202 -1.0307  0.2475
15930TIP3    H269206   6.258   2.457  12.243 -1.3463 -0.9536  0.3344
15931TIP3   OH269207   4.077   0.344   5.097 -0.3199  0.4023 -0.1855
15931TIP3    H169208   4.137   0.413   5.123 -0.8190  0.6801  0.2543
15931TIP3    H269209   4.107   0.267   5.145 -1.6811  1.0898  1.8640
15932TIP3   OH269210   3.644   3.261  14.236 -0.3122 -0.3035  0.3864
15932TIP3    H169211   3.714   3.322  14.214  0.1175 -0.2691  1.8187
15932TIP3    H269212   3.645   3.196  14.166  0.8858 -0.0876  0.2033
15933TIP3   OH269213   1.976   3.528   5.406 -0.3848 -0.3161 -0.4968
15933TIP3    H169214   2.058   3.507   5.452 -0.4017  0.0457 -0.3000
15933TIP3    H269215   1.916   3.555   5.475 -0.2387  0.7678 -0.7806
15934TIP3   OH269216   4.719   4.905  16.804 -0.3711  0.3794  0.1078
15934TIP3    H169217   4.709   4.914  16.899 -0.8614  0.7379  0.0229
15934TIP3    H269218   4.695   4.991  16.769 -0.1654  0.2571 -0.3405
15935TIP3   OH269219   5.904   4.791  11.954  0.3639 -0.1816 -0.0815
15935TIP3    H169220   5.956   4.741  12.016 -0.5581 -1.0595  0.0046
15935TIP3    H269221   5.823   4.811  12.001 -0.5580 -1.3047 -1.1438
15936TIP3   OH269222   5.773   1.592  13.274  0.1402  0.1975 -0.0818
15936TIP3    H169223   5.733   1.676  13.298 -0.7375 -0.0916 -0.5349
15936TIP3    H269224   5.852   1.588  13.328  1.2485  2.2120 -1.5013
15937TIP3   OH269225   1.662   5.683   1.337 -0.2554 -0.0186 -0.2787
15937TIP3    H169226   1.696   5.711   1.253 -0.3972 -1.1829 -0.7354
15937TIP3    H269227   1.725   5.717   1.401  1.7532 -2.0835 -1.0986
15938TIP3   OH269228   0.946   4.175   5.113 -0.3821  0.0069 -0.0979
15938TIP3    H169229   0.887   4.100   5.098  0.3119 -0.3537 -1.0935
15938TIP3    H269230   0.948   4.185   5.208  0.7254 -2.2295  0.1626
15939TIP3   OH269231   6.415   6.512  12.242  0.6690 -0.0868 -0.6633
15939TIP3    H169232   6.457   6.438  12.198 -2.1846 -1.4642 -1.1967
15939TIP3    H269233   6.434   6.587  12.186  0.1496 -1.1654 -2.3002
15940TIP3   OH269234   3.455   0.790   5.522 -0.1118 -0.0230  0.2179
15940TIP3    H169235   3.386   0.732   5.492  0.9544 -0.5679 -1.2246
15940TIP3    H269236   3.467   0.768   5.614 -1.2710 -0.5011  0.2527
15941TIP3   OH269237   4.892   5.868   3.553  0.2813 -0.1534 -0.2088
15941TIP3    H169238   4.827   5.798   3.545  0.5954 -0.4094 -0.5250
15941TIP3    H269239   4.847   5.937   3.601 -0.2643 -0.2870 -0.5206
15942TIP3   OH269240   1.418   2.122  16.028 -0.4549 -0.2251 -0.1170
15942TIP3    H169241   1.398   2.179  16.102  0.2623  1.2603 -1.0485
15942TIP3    H269242   1.335   2.113  15.981 -0.0686  2.0339 -1.3051
15943TIP3   OH269243   0.259   2.045   5.954  0.5795  0.1598 -0.2089
15943TIP3    H169244   0.324   2.072   6.020 -0.7627  1.5997  0.5692
15943TIP3    H269245   0.181   2.096   5.976 -0.2953 -0.3092 -2.1440
15944TIP3   OH269246   2.788   6.331   0.365 -0.0305  0.5188 -0.2672
15944TIP3    H169247   2.833   6.250   0.338 -2.0818 -0.2343 -1.5428
15944TIP3    H269248   2.758   6.313   0.454  0.3130  0.2242 -0.2054
15945TIP3   OH269249   3.579   5.863   2.587  0.4551 -0.0474 -0.0693
15945TIP3    H169250   3.506   5.923   2.577 -0.1024 -0.7201 -0.1013
15945TIP3    H269251   3.566   5.798   2.517  1.0830 -0.1617 -0.0773
15946TIP3   OH269252   2.684   3.303  16.486  0.3784  0.0164 -0.9035
15946TIP3    H169253   2.709   3.344  16.403 -0.9916  0.0081 -1.3336
15946TIP3    H269254   2.767   3.279  16.526  1.0021 -2.3255 -3.4364
15947TIP3   OH269255   4.814   5.525   1.280 -0.0553  0.5755 -0.2853
15947TIP3    H169256   4.755   5.482   1.342 -0.2872 -0.8331 -1.4473
15947TIP3    H269257   4.805   5.618   1.299 -2.1870  0.3425 -0.0167
15948TIP3   OH269258   6.684   5.733   4.349  0.0496 -0.1160 -0.3624
15948TIP3    H169259   6.601   5.687   4.336 -1.4089  1.3867  2.9029
15948TIP3    H269260   6.724   5.687   4.423  1.4910  0.0309 -1.0541
15949TIP3   OH269261   0.419   6.099   3.270  0.1124 -0.5227 -0.6389
15949TIP3    H169262   0.330   6.096   3.236  0.2893  1.5782 -1.3647
15949TIP3    H269263   0.475   6.092   3.193  0.5609 -0.7447 -0.2992
15950TIP3   OH269264   5.284   0.743   2.248  0.0129  0.5337  0.4118
15950TIP3    H169265   5.370   0.783   2.263 -0.0422  0.4574  0.9393
15950TIP3    H269266   5.231   0.815   2.211 -0.2105  1.0874  1.7710
15951TIP3   OH269267   4.579   4.071  16.928  0.6132  0.3844 -0.5862
15951TIP3    H169268   4.621   4.067  16.842  1.3625 -0.3705 -0.2040
15951TIP3    H269269   4.539   4.157  16.932  0.0773  0.2046 -1.9221
15952TIP3   OH269270   6.269   2.179  14.116 -0.0793 -0.3325 -0.1831
15952TIP3    H169271   6.331   2.206  14.183 -1.1401  2.0727 -0.0950
15952TIP3    H269272   6.305   2.098  14.081  2.2134  0.1154  1.0179
15953TIP3   OH269273   3.321   2.307  16.064 -0.4803 -0.2860  0.4003
15953TIP3    H169274   3.363   2.335  15.982 -0.5992 -1.1524  0.0348
15953TIP3    H269275   3.308   2.388  16.113 -0.9706  0.3219 -0.7068
15954TIP3   OH269276   5.498   4.060   4.871  0.3498 -0.5159  0.0245
15954TIP3    H169277   5.577   4.033   4.917 -0.4102 -0.1003  1.6163
15954TIP3    H269278   5.527   4.124   4.807  1.4636 -1.2812 -0.2402
15955TIP3   OH269279   1.204   4.882   6.294  0.1111 -0.9558  0.3267
15955TIP3    H169280   1.252   4.800   6.300 -0.0355 -0.9833  1.2052
15955TIP3    H269281   1.114   4.855   6.272  0.3174 -0.9502 -0.5537
15956TIP3   OH269282   3.142   2.338   1.957  0.5432 -0.7094  0.2314
15956TIP3    H169283   3.189   2.287   1.892  1.3114  0.2369  0.0334
15956TIP3    H269284   3.093   2.273   2.008  2.2074 -1.7067  0.5748
15957TIP3   OH269285   4.376   5.511  17.178  0.2229 -0.0326  0.2949
15957TIP3    H169286   4.319   5.579  17.214  0.3453  0.3729 -0.2591
15957TIP3    H269287   4.317   5.438  17.159 -0.0197  0.1672  0.2754
15958TIP3   OH269288   6.475   1.835   4.855  0.2479  0.0585  0.5808
15958TIP3    H169289   6.443   1.883   4.931  0.9885  0.5713  0.5783
15958TIP3    H269290   6.494   1.902   4.790  1.2174 -0.2377  0.5491
15959TIP3   OH269291   1.341   3.790   3.416  0.3653  0.1040  0.0968
15959TIP3    H169292   1.254   3.798   3.376  1.1076  2.6706 -1.1604
15959TIP3    H269293   1.325   3.751   3.502 -2.2398  2.0445  0.5607
15960TIP3   OH269294   3.182   3.709  11.841 -0.1981  0.7577  0.2824
15960TIP3    H169295   3.145   3.735  11.756  1.5748  4.1726  0.4427
15960TIP3    H269296   3.263   3.664  11.818 -0.5983  0.1154  0.1234
15961TIP3   OH269297   3.703   3.740   5.938  0.0783  0.3068  0.5305
15961TIP3    H169298   3.774   3.803   5.945  1.5803 -1.4005  1.1633
15961TIP3    H269299   3.657   3.746   6.022 -0.8838  1.7962 -0.0836
15962TIP3   OH269300   0.017   2.616   1.839 -0.2716  0.0849  0.0098
15962TIP3    H169301   0.005   2.547   1.775 -1.5408  0.2472  0.0657
15962TIP3    H269302  -0.026   2.584   1.918 -0.4023  0.7038  0.1974
15963TIP3   OH269303   5.841   1.560   3.299 -0.3401 -0.3469 -0.7110
15963TIP3    H169304   5.852   1.548   3.205  1.7935 -0.5114 -0.4612
15963TIP3    H269305   5.918   1.518   3.338 -0.6367  0.6926  1.0463
15964TIP3   OH269306   4.037   5.917  10.555 -0.1513 -0.5017 -0.3658
15964TIP3    H169307   3.980   5.887  10.626 -0.6160 -1.6331 -1.2035
15964TIP3    H269308   4.005   5.871  10.477  1.3304 -0.4443 -1.0213
15965TIP3   OH269309   4.488   5.986   4.942  0.0093 -0.6403 -0.5212
15965TIP3    H169310   4.487   5.988   4.847 -1.1584 -0.3633 -0.5119
15965TIP3    H269311   4.406   6.028   4.968  1.3612  1.4030  0.6316
15966TIP3   OH269312   2.814   2.461  12.016  0.3514 -0.1014 -0.4747
15966TIP3    H169313   2.887   2.434  11.960 -0.1006  0.9089 -1.5700
15966TIP3    H269314   2.810   2.556  12.006 -0.1262  0.0178  0.7975
15967TIP3   OH269315   0.491   5.893   3.622  0.4463  0.0055 -0.4886
15967TIP3    H169316   0.582   5.867   3.631 -0.1144 -1.2534  1.9645
15967TIP3    H269317   0.441   5.822   3.663 -1.4665  1.9818  0.7273
15968TIP3   OH269318   1.414   0.392   2.736 -0.3327  0.2633  0.1802
15968TIP3    H169319   1.396   0.302   2.762  2.2755 -0.4172 -0.3240
15968TIP3    H269320   1.354   0.408   2.662 -0.6315 -1.1110  0.1173
15969TIP3   OH269321   5.965   1.839   0.256  0.0142  0.7660 -0.2901
15969TIP3    H169322   5.880   1.811   0.223  0.6831 -1.3644 -0.2762
15969TIP3    H269323   5.978   1.787   0.336  2.0905 -0.2411 -1.2501
15970TIP3   OH269324   2.918   1.453   5.350 -0.4131 -0.0327  0.6454
15970TIP3    H169325   2.843   1.451   5.291 -0.3194 -0.2902  0.5308
15970TIP3    H269326   2.947   1.362   5.354  0.2629  0.1580  0.2010
15971TIP3   OH269327   4.858   1.324   3.640 -0.5124  0.5761 -0.4119
15971TIP3    H169328   4.802   1.350   3.567 -0.7061  3.4356  0.6992
15971TIP3    H269329   4.947   1.348   3.612 -0.4031  0.2790 -0.3227
15972TIP3   OH269330   3.982   2.674   0.395  0.0496 -0.5598  0.7647
15972TIP3    H169331   3.994   2.756   0.442  0.0054 -0.2322  0.1994
15972TIP3    H269332   4.036   2.682   0.316  0.0558 -1.0744  0.7096
15973TIP3   OH269333   0.131   2.851   6.419  0.7295  0.0544  0.4203
15973TIP3    H169334   0.211   2.890   6.454  0.3440  0.4484  0.8860
15973TIP3    H269335   0.124   2.767   6.463  1.4896 -0.4793 -0.4770
15974TIP3   OH269336   6.470   3.818   0.438 -0.5145 -0.0412  0.0164
15974TIP3    H169337   6.444   3.767   0.514  0.4014 -2.9828 -1.5932
15974TIP3    H269338   6.565   3.811   0.435 -0.5788 -0.3592 -1.6618
15975TIP3   OH269339   2.471   3.346  14.924  0.2992 -0.1539 -0.3296
15975TIP3    H169340   2.416   3.377  14.996 -1.4126 -1.2907 -1.1244
15975TIP3    H269341   2.445   3.400  14.849  1.8203  0.7773 -0.2098
15976TIP3   OH269342   2.715   0.682   2.329  0.1871 -0.3873 -0.2884
15976TIP3    H169343   2.803   0.700   2.297 -0.0700  1.5235  0.0636
15976TIP3    H269344   2.722   0.594   2.367  2.0824 -0.0440  0.2416
15977TIP3   OH269345   0.441   1.880  11.189  0.0775  0.9715 -0.3295
15977TIP3    H169346   0.364   1.932  11.215 -0.7065 -0.5691  0.4969
15977TIP3    H269347   0.474   1.843  11.271 -0.0126 -0.6810 -1.0134
15978TIP3   OH269348   0.863   2.170  12.591 -0.2460 -0.0214 -0.6934
15978TIP3    H169349   0.878   2.111  12.517  0.3400 -0.3330 -0.3298
15978TIP3    H269350   0.797   2.232  12.560 -0.7026 -0.7380 -1.1448
15979TIP3   OH269351   6.388   6.444   4.097  0.4566 -0.1639 -0.5045
15979TIP3    H169352   6.413   6.514   4.037  0.7960 -0.0056 -0.1779
15979TIP3    H269353   6.470   6.416   4.138  0.4034 -1.1698 -1.0796
15980TIP3   OH269354   1.698   6.378   5.265 -0.2231  0.5680 -0.8484
15980TIP3    H169355   1.785   6.396   5.230  0.2887 -1.2984 -0.6023
15980TIP3    H269356   1.663   6.464   5.290  1.4778  1.3380 -1.0930
15981TIP3   OH269357   1.462   0.845   0.574  0.3459 -0.8653  0.3883
15981TIP3    H169358   1.381   0.878   0.535  0.4525 -2.8461 -1.6237
15981TIP3    H269359   1.528   0.909   0.548 -0.4352  0.3575  1.3936
15982TIP3   OH269360   5.137   2.671  16.410 -0.6924  0.1350  0.0566
15982TIP3    H169361   5.075   2.730  16.367 -1.6892 -1.1879 -0.3804
15982TIP3    H269362   5.082   2.605  16.453  0.3514  0.4115  1.8642
15983TIP3   OH269363   2.002   6.347   6.757  0.1727  0.0906  0.3289
15983TIP3    H169364   1.986   6.272   6.699 -0.7223 -0.1503  0.8786
15983TIP3    H269365   1.933   6.410   6.735  1.0083  0.8281 -0.2347
15984TIP3   OH269366   2.553   0.082  13.298  0.2205  0.2523 -0.3756
15984TIP3    H169367   2.467   0.040  13.310  0.2237  0.5025  0.5986
15984TIP3    H269368   2.542   0.138  13.221 -0.4376  0.1344 -0.3707
15985TIP3   OH269369   3.375   4.269  13.003 -0.3737  0.2027 -0.2993
15985TIP3    H169370   3.316   4.291  13.075 -0.2755  0.4584 -0.2958
15985TIP3    H269371   3.450   4.227  13.045 -2.1874 -3.5360 -0.6159
15986TIP3   OH269372   3.763   5.935  13.728 -0.6557 -0.0998  0.2965
15986TIP3    H169373   3.768   5.884  13.647  1.6698 -0.5851  0.6966
15986TIP3    H269374   3.670   5.939  13.749 -1.0594 -2.2329 -0.9657
15987TIP3   OH269375   0.723   4.757   5.701 -0.1671 -0.4118 -0.0286
15987TIP3    H169376   0.704   4.669   5.667 -1.6811  0.5411 -1.7240
15987TIP3    H269377   0.768   4.801   5.629  0.4702  0.2561  0.7684
15988TIP3   OH269378   3.737   2.774   2.689 -0.1899  0.2285 -0.4565
15988TIP3    H169379   3.739   2.750   2.596 -0.1707 -2.5710  0.2472
15988TIP3    H269380   3.650   2.749   2.718  1.0826 -2.4160  1.1726
15989TIP3   OH269381   4.453   1.153  11.902  0.5481 -0.2371 -0.2272
15989TIP3    H169382   4.495   1.231  11.867 -0.4639 -0.1585 -1.2871
15989TIP3    H269383   4.458   1.164  11.997  2.0582  0.2190 -0.3549
15990TIP3   OH269384   5.515   5.291   5.197  0.5655  0.3120  0.4140
15990TIP3    H169385   5.430   5.263   5.230  0.0035  1.5792  0.0600
15990TIP3    H269386   5.561   5.325   5.274 -0.5937  2.9023 -0.0012
15991TIP3   OH269387   3.285   4.592  14.462  0.1191 -0.0293  0.6650
15991TIP3    H169388   3.292   4.688  14.456 -1.4567  0.0868  0.4213
15991TIP3    H269389   3.221   4.578  14.532  0.2276 -0.9140  0.5877
15992TIP3   OH269390   5.356   1.511  11.538 -0.4859  1.3451  0.0011
15992TIP3    H169391   5.369   1.580  11.603  1.0973  1.8536 -0.8359
15992TIP3    H269392   5.347   1.557  11.455  1.4147  0.5335 -0.6809
15993TIP3   OH269393   6.150   6.466   4.667  0.3073 -0.1956  0.3042
15993TIP3    H169394   6.099   6.544   4.688 -0.1921  0.0544 -1.8026
15993TIP3    H269395   6.117   6.437   4.582  3.6102 -0.0819 -1.0925
15994TIP3   OH269396   5.370   0.573   3.515  0.0636 -0.1895 -0.4521
15994TIP3    H169397   5.395   0.499   3.570 -3.6543 -0.7584  0.6174
15994TIP3    H269398   5.298   0.539   3.461 -1.9565  2.6868  0.3013
15995TIP3   OH269399   4.197   0.178   2.078 -0.5652 -0.0181  0.6202
15995TIP3    H169400   4.209   0.084   2.062 -1.8630 -0.0726 -0.0612
15995TIP3    H269401   4.212   0.219   1.992 -0.1788  0.3856  0.8787
15996TIP3   OH269402   4.299   2.671  16.053 -0.6637 -0.8785  0.0621
15996TIP3    H169403   4.266   2.688  16.141  0.5060  0.2893  0.2903
15996TIP3    H269404   4.233   2.709  15.995  0.3112  1.6007  0.5134
15997TIP3   OH269405   0.794   2.727   4.059 -0.2460 -0.4265  0.4250
15997TIP3    H169406   0.763   2.674   4.132 -1.7596  1.8198  1.4590
15997TIP3    H269407   0.873   2.770   4.091  0.4443 -1.3007 -0.0887
15998TIP3   OH269408   0.042   0.020   3.631  0.2975  0.4810 -0.2858
15998TIP3    H169409  -0.004   0.066   3.702 -1.3611 -0.2473 -0.8583
15998TIP3    H269410   0.123   0.069   3.620  1.2925 -0.2294  3.1131
15999TIP3   OH269411   0.280   3.099  10.735  0.2795 -0.0438  0.1191
15999TIP3    H169412   0.279   3.169  10.800 -2.7350 -0.9138  1.0836
15999TIP3    H269413   0.208   3.041  10.760  0.2372 -1.4255 -2.9187
16000TIP3   OH269414   1.650   6.639   5.373 -0.9042  0.4468 -0.1501
16000TIP3    H169415   1.720   6.703   5.363  1.5470 -1.9290  1.1087
16000TIP3    H269416   1.648   6.620   5.466 -1.6038 -1.2308 -0.4825
16001TIP3   OH269417   2.159   1.969  15.547 -0.5276  0.1475  0.1023
16001TIP3    H169418   2.146   2.060  15.522 -1.2675 -0.0156 -0.1322
16001TIP3    H269419   2.136   1.966  15.640 -0.1142  0.2763  0.2096
16002TIP3   OH269420   1.104   3.875  11.677  0.2934  0.1132  0.5022
16002TIP3    H169421   1.199   3.867  11.682  0.4144  1.5580  0.6499
16002TIP3    H269422   1.077   3.806  11.617  1.7014  1.4663 -1.7638
16003TIP3   OH269423   2.861   1.994   2.771  0.6592 -0.0672  0.2635
16003TIP3    H169424   2.847   2.072   2.717 -0.7953 -0.4962 -0.0054
16003TIP3    H269425   2.918   2.024   2.842 -1.5037  1.7751  1.2864
16004TIP3   OH269426   4.974   3.265   3.018  0.3050  0.0048  0.2197
16004TIP3    H169427   4.926   3.187   2.988  0.5203  0.4582 -1.3699
16004TIP3    H269428   4.907   3.322   3.054  0.3174 -1.4801  2.6581
16005TIP3   OH269429   1.606   3.620   2.697 -0.1058 -0.4074 -0.0103
16005TIP3    H169430   1.670   3.615   2.626  0.9826 -0.9434  0.9744
16005TIP3    H269431   1.552   3.542   2.685 -0.8330  0.2482 -1.0755
16006TIP3   OH269432   2.280   3.611  16.274  0.4450 -0.2622  0.5406
16006TIP3    H169433   2.248   3.542  16.332 -1.4872 -0.3338 -0.5320
16006TIP3    H269434   2.294   3.687  16.330  1.5099 -1.1980  1.5572
16007TIP3   OH269435   5.778   0.156   1.124  0.6176  0.4903  0.0218
16007TIP3    H169436   5.823   0.137   1.041 -1.0776 -1.0678 -0.5599
16007TIP3    H269437   5.757   0.249   1.119  0.2202  0.3335 -1.4619
16008TIP3   OH269438   6.469   6.269   6.264 -0.7847 -0.1913 -0.3837
16008TIP3    H169439   6.488   6.351   6.218 -0.6521 -0.6163 -1.0997
16008TIP3    H269440   6.418   6.296   6.340 -0.8841  0.5429 -0.6994
16009TIP3   OH269441   2.372   2.174   6.327  0.6410  0.1731  0.3544
16009TIP3    H169442   2.445   2.233   6.308  0.0189  0.6301 -0.6477
16009TIP3    H269443   2.389   2.096   6.274  1.0109 -0.2207  1.0300
16010TIP3   OH269444   5.878   6.189   5.271 -0.0364 -0.2111 -0.0577
16010TIP3    H169445   5.912   6.276   5.250 -1.2119  0.0435 -0.9641
16010TIP3    H269446   5.807   6.205   5.333  0.5102 -0.6176  0.6781
16011TIP3   OH269447   6.489   4.929   1.559  0.2504  0.4444  0.3312
16011TIP3    H169448   6.502   4.916   1.465 -1.1348 -1.1602  0.3292
16011TIP3    H269449   6.396   4.911   1.573  0.6949 -0.5147  2.1886
16012TIP3   OH269450   3.045   5.814   2.094  0.1852 -0.2615 -0.5615
16012TIP3    H169451   2.981   5.781   2.157  0.3524 -0.3099 -0.4159
16012TIP3    H269452   3.012   5.900   2.068 -0.2355 -0.5272 -0.9159
16013TIP3   OH269453   3.441   4.355  11.683 -0.5075  0.2055  0.0061
16013TIP3    H169454   3.372   4.288  11.677 -0.3265  0.0814 -0.7333
16013TIP3    H269455   3.479   4.358  11.595  0.0283  0.7082  0.2535
16014TIP3   OH269456   4.667   3.069  15.489  0.6017  0.0909 -0.5091
16014TIP3    H169457   4.719   3.112  15.422 -0.6381  0.5636 -1.1978
16014TIP3    H269458   4.576   3.086  15.463  0.1030 -0.7697  0.6134
16015TIP3   OH269459   1.656   6.761   3.289 -0.0564  0.4879  0.5643
16015TIP3    H169460   1.569   6.721   3.293  0.0498  0.2956  1.0742
16015TIP3    H269461   1.651   6.823   3.216 -0.5185  0.2405  0.3822
16016TIP3   OH269462   4.939   2.193   5.897  0.6510 -0.5942  0.4011
16016TIP3    H169463   4.912   2.235   5.978 -0.1657 -2.6314  1.2178
16016TIP3    H269464   4.984   2.113   5.925 -0.0071 -1.5357 -1.1461
16017TIP3   OH269465   1.283   1.811  16.761 -0.1328 -0.0018  0.2481
16017TIP3    H169466   1.198   1.796  16.802 -0.6351 -1.2917 -1.2486
16017TIP3    H269467   1.346   1.798  16.832 -1.1278  0.4048  1.2311
16018TIP3   OH269468   4.291   3.975   5.839  0.3440  0.3502 -0.0887
16018TIP3    H169469   4.217   4.017   5.881 -0.9271 -0.9115 -1.0189
16018TIP3    H269470   4.266   3.883   5.833  1.5549  0.0859 -1.3114
16019TIP3   OH269471   2.848   5.460  16.350 -0.1734  0.1714  0.6978
16019TIP3    H169472   2.896   5.423  16.276 -0.2481  1.0245  0.2160
16019TIP3    H269473   2.794   5.388  16.382 -1.2974  0.2042 -1.0437
16020TIP3   OH269474   5.997   5.059  12.251  0.0933  0.4143  0.3117
16020TIP3    H169475   6.075   5.082  12.302  0.1435 -0.6482  0.7138
16020TIP3    H269476   5.996   5.124  12.180  0.8094  1.0258  0.8419
16021TIP3   OH269477   2.477   3.023  13.408  0.2577  0.7664  0.2674
16021TIP3    H169478   2.463   2.929  13.424  1.3278  0.2240 -1.8328
16021TIP3    H269479   2.394   3.053  13.372  0.2682  0.3968 -0.0675
16022TIP3   OH269480   0.152   2.368   4.426 -0.1185 -0.6319  0.3354
16022TIP3    H169481   0.058   2.377   4.436 -0.0606  0.2264  0.1442
16022TIP3    H269482   0.164   2.332   4.338 -0.2173  0.5537 -0.1810
16023TIP3   OH269483   4.160   4.873   2.472 -0.1231  0.0477 -0.0106
16023TIP3    H169484   4.254   4.889   2.480  0.0653 -0.7386 -0.6720
16023TIP3    H269485   4.152   4.803   2.407 -1.0814 -0.9781  1.1949
16024TIP3   OH269486   2.149   2.297   4.248 -0.3175 -0.1851  0.0031
16024TIP3    H169487   2.202   2.370   4.216  0.4715  0.2963  2.3119
16024TIP3    H269488   2.211   2.225   4.260 -0.7019 -0.5312 -0.0784
16025TIP3   OH269489   5.549   2.484   4.022 -0.6561  0.1481  0.4106
16025TIP3    H169490   5.467   2.502   3.975 -0.2095 -0.6559 -0.6985
16025TIP3    H269491   5.541   2.393   4.050  0.7558 -0.6003 -1.5724
16026TIP3   OH269492   1.341   5.070   1.858  0.3585 -0.0155  0.2775
16026TIP3    H169493   1.410   5.097   1.918  2.1565  0.0162 -1.7431
16026TIP3    H269494   1.346   4.974   1.857  0.5078 -0.0046 -0.0253
16027TIP3   OH269495   1.079   1.859   6.490 -0.2759  0.4814  0.7788
16027TIP3    H169496   1.036   1.907   6.419  1.3280  0.9815  0.1149
16027TIP3    H269497   1.173   1.876   6.477  0.2795 -2.2090  0.9557
16028TIP3   OH269498   4.626   5.686  13.722  0.2630 -0.3750 -0.0439
16028TIP3    H169499   4.691   5.656  13.787 -0.2611  0.0529  0.6863
16028TIP3    H269500   4.557   5.727  13.775  0.1575  0.5985 -0.9217
16029TIP3   OH269501   1.340   1.991  15.100  0.0608  0.2630  0.4122
16029TIP3    H169502   1.340   2.062  15.036  0.9783  0.2496  0.3797
16029TIP3    H269503   1.252   1.954  15.096  0.2384 -0.0255 -1.1580
16030TIP3   OH269504   0.362   1.769   5.554 -0.0518 -0.0400 -0.5765
16030TIP3    H169505   0.421   1.704   5.590 -1.2747 -0.8393  0.0203
16030TIP3    H269506   0.283   1.720   5.531 -0.4091  0.9618 -1.5653
16031TIP3   OH269507   5.973   3.888   4.817  0.4141 -0.0806 -0.0447
16031TIP3    H169508   5.986   3.958   4.881  0.0410 -0.4136  0.3984
16031TIP3    H269509   5.907   3.923   4.757  1.1061  0.4144 -0.5277
16032TIP3   OH269510   1.082   3.256  11.862  0.9581 -0.2980  0.9468
16032TIP3    H169511   1.059   3.163  11.873  0.4416 -0.0517  2.0376
16032TIP3    H269512   1.060   3.296  11.946 -0.1817  1.0949  0.0107
16033TIP3   OH269513   0.541   0.375   4.494  0.0981 -0.0066  0.0712
16033TIP3    H169514   0.601   0.439   4.533  2.3055 -2.0693  0.1761
16033TIP3    H269515   0.486   0.346   4.568 -2.6934  3.5724 -0.4741
16034TIP3   OH269516   0.947   0.259  10.656 -0.2431  0.2192  0.1763
16034TIP3    H169517   0.991   0.181  10.690  0.2025  0.9170  1.2309
16034TIP3    H269518   0.934   0.241  10.563  0.6290 -0.7603  0.2403
16035TIP3   OH269519   1.870   4.681   5.823 -0.3869  0.0749 -0.0612
16035TIP3    H169520   1.804   4.656   5.758 -1.1490 -1.1424  1.1514
16035TIP3    H269521   1.930   4.606   5.826  0.0238  0.4096  0.1588
16036TIP3   OH269522   0.260   2.265  13.488  0.5154  0.2723 -0.0680
16036TIP3    H169523   0.175   2.276  13.530  1.1413 -0.5397  1.4341
16036TIP3    H269524   0.305   2.348  13.500 -0.3374  0.9603 -1.5222
16037TIP3   OH269525   1.576   0.950  15.478  0.4618  0.3543 -0.1746
16037TIP3    H169526   1.577   0.869  15.530 -1.3952  0.5197  0.1318
16037TIP3    H269527   1.657   0.994  15.503 -0.0610  0.1067  2.0940
16038TIP3   OH269528   6.261   3.355   2.277  0.5063  0.3103  0.4283
16038TIP3    H169529   6.174   3.364   2.316 -0.7456 -1.3216 -1.8658
16038TIP3    H269530   6.283   3.263   2.288  1.9900  0.7251  1.0305
16039TIP3   OH269531   5.475   5.740  16.892 -0.1654 -0.4203 -0.1700
16039TIP3    H169532   5.450   5.657  16.850 -2.7455 -0.8369  2.0454
16039TIP3    H269533   5.411   5.803  16.859 -0.5052 -0.1570  0.9678
16040TIP3   OH269534   4.669   2.244   3.023  0.1497 -0.6072  0.7311
16040TIP3    H169535   4.664   2.179   3.093  0.3324 -1.5530 -0.1327
16040TIP3    H269536   4.751   2.224   2.977 -0.7687 -0.9954 -0.7495
16041TIP3   OH269537   0.964   1.637  13.671 -0.4228  0.0867  0.1232
16041TIP3    H169538   0.868   1.633  13.669 -0.5037  1.7508 -2.1359
16041TIP3    H269539   0.992   1.550  13.642 -1.2272 -0.5349  1.1572
16042TIP3   OH269540   3.987   1.213  11.714 -0.6727  0.0991 -0.5839
16042TIP3    H169541   4.078   1.183  11.717 -0.7193  0.0551  0.6552
16042TIP3    H269542   3.943   1.163  11.783 -1.4873  0.6278 -0.7121
16043TIP3   OH269543   5.600   0.047  13.085  0.6390 -0.2693 -0.4332
16043TIP3    H169544   5.549  -0.031  13.064  0.0573 -0.6320  2.1368
16043TIP3    H269545   5.557   0.084  13.162  0.5786  2.9270 -1.8986
16044TIP3   OH269546   0.878   2.498  16.507 -0.0024  0.0373 -0.0315
16044TIP3    H169547   0.947   2.451  16.461 -0.0728  1.4056 -1.5894
16044TIP3    H269548   0.914   2.586  16.522 -1.4717  0.8553 -1.1056
16045TIP3   OH269549   3.254   1.812   6.172 -0.3129 -0.0368  0.2237
16045TIP3    H169550   3.311   1.861   6.231  0.9219 -0.5357 -0.5434
16045TIP3    H269551   3.166   1.845   6.191  0.3080  1.2693  0.8911
16046TIP3   OH269552   6.521   1.359   1.789 -0.4062 -0.5438  0.5198
16046TIP3    H169553   6.485   1.273   1.812 -0.2884 -0.8617 -0.4385
16046TIP3    H269554   6.555   1.394   1.871 -1.4564 -0.9404  1.1231
16047TIP3   OH269555   1.526   6.014  11.244 -0.2591 -0.1984  0.0516
16047TIP3    H169556   1.466   5.940  11.258 -1.4945  0.8157  0.2544
16047TIP3    H269557   1.511   6.040  11.153  1.0146 -0.9161 -0.3750
16048TIP3   OH269558   3.580   3.052   4.438 -0.2414  0.1596 -0.2708
16048TIP3    H169559   3.639   3.069   4.512 -0.3259 -0.5191 -0.0394
16048TIP3    H269560   3.588   3.129   4.382  0.7554  0.1391 -0.1612
16049TIP3   OH269561   5.355   2.953  10.560 -0.0635 -0.5461 -0.5615
16049TIP3    H169562   5.295   2.885  10.589 -0.1751  0.3311  1.3475
16049TIP3    H269563   5.300   3.030  10.547  0.5667  0.1622  0.8421
16050TIP3   OH269564   0.493   6.418   0.641  0.1140 -0.3000  0.2606
16050TIP3    H169565   0.473   6.407   0.548 -0.4638 -1.5868  0.5378
16050TIP3    H269566   0.533   6.505   0.646  2.2776 -1.1336 -1.5199
16051TIP3   OH269567   0.766   5.334   3.730 -0.6177  0.1391  0.2893
16051TIP3    H169568   0.842   5.324   3.674  0.0178 -0.0571  1.1687
16051TIP3    H269569   0.708   5.261   3.706 -1.0016  0.8725 -1.0843
16052TIP3   OH269570   0.701   3.213   4.833 -0.5781  0.4928 -0.3327
16052TIP3    H169571   0.670   3.273   4.765 -1.7298  2.7724  2.1183
16052TIP3    H269572   0.622   3.168   4.864 -0.1419 -0.1174 -0.0894
16053TIP3   OH269573   5.424   1.682   4.290  0.3379 -0.7837 -0.9555
16053TIP3    H169574   5.461   1.646   4.371  0.6216  0.7528 -0.3837
16053TIP3    H269575   5.481   1.648   4.220  0.6509 -1.3672 -0.4226
16054TIP3   OH269576   3.764   6.330   1.376  0.1485 -0.1168 -0.7165
16054TIP3    H169577   3.687   6.283   1.343  0.4741 -1.1671  0.0163
16054TIP3    H269578   3.735   6.421   1.382 -1.9725 -0.9233  2.3220
16055TIP3   OH269579   5.223   3.786  15.109  0.1855  0.5870  0.8137
16055TIP3    H169580   5.161   3.728  15.152 -0.4511  0.2624 -0.5110
16055TIP3    H269581   5.231   3.861  15.168 -0.3350 -0.0465  1.6939
16056TIP3   OH269582   6.156   1.625  16.497 -0.3118  0.2589  0.0443
16056TIP3    H169583   6.184   1.542  16.536  0.7633  1.5190  2.0642
16056TIP3    H269584   6.060   1.619  16.495 -0.3335 -0.3236  1.8655
16057TIP3   OH269585   5.132   1.752   5.808  0.2665  0.0038  0.0489
16057TIP3    H169586   5.066   1.683   5.812  2.2365 -1.9491  0.2504
16057TIP3    H269587   5.162   1.753   5.717  1.2482 -0.4105  0.3562
16058TIP3   OH269588   4.935   4.935   2.573  0.2538  0.1634 -0.4684
16058TIP3    H169589   4.984   4.855   2.595  0.5951  0.3266 -0.6444
16058TIP3    H269590   4.844   4.911   2.589  0.6625  1.0918  3.7880
16059TIP3   OH269591   1.106   6.660   1.731  0.5680 -0.5056  0.0337
16059TIP3    H169592   1.174   6.617   1.679  1.1438 -1.2369  1.3748
16059TIP3    H269593   1.024   6.623   1.699  0.9035 -0.8419 -0.4451
16060TIP3   OH269594   5.658   5.254  13.318 -0.1194 -0.2015  0.1349
16060TIP3    H169595   5.711   5.241  13.239  1.1034  1.3191  0.6579
16060TIP3    H269596   5.668   5.173  13.368  0.7063 -0.4125 -0.3643
16061TIP3   OH269597   6.657   2.785  16.229 -0.1396  0.2965 -0.0289
16061TIP3    H169598   6.624   2.700  16.257 -1.1555  1.0079  0.9173
16061TIP3    H269599   6.634   2.845  16.299 -0.6752  1.6393 -1.3209
16062TIP3   OH269600   5.934   1.368   4.797  0.5814  0.3638 -0.4571
16062TIP3    H169601   5.969   1.290   4.839 -0.9554 -0.0347  0.1174
16062TIP3    H269602   5.881   1.334   4.724  1.5111  0.9580 -1.4140
16063TIP3   OH269603   6.740   5.156   2.773 -0.3694  0.1108 -0.0238
16063TIP3    H169604   6.674   5.224   2.785  1.1116  1.1121  2.8328
16063TIP3    H269605   6.823   5.203   2.771  0.4950 -1.4107 -0.2841
16064TIP3   OH269606   2.464   2.170   3.695  0.0597  0.2079 -0.0178
16064TIP3    H169607   2.552   2.182   3.660  0.1978  2.8854  1.1453
16064TIP3    H269608   2.477   2.126   3.779  0.3581  1.3450  0.5366
16065TIP3   OH269609   1.085   3.212   2.696  0.2098 -0.0024  0.5580
16065TIP3    H169610   1.152   3.278   2.679  0.5852 -0.5037  0.0675
16065TIP3    H269611   1.109   3.139   2.638 -1.3827  0.2371 -0.4142
16066TIP3   OH269612   3.685   0.131  15.734  0.1289 -0.4488  0.0259
16066TIP3    H169613   3.663   0.051  15.782  0.7908  0.8220  2.5717
16066TIP3    H269614   3.755   0.105  15.674 -0.3572 -1.9950  0.1238
16067TIP3   OH269615   4.926   5.370  15.079  0.5328  0.6003 -0.2481
16067TIP3    H169616   4.907   5.461  15.058 -0.0148  0.0568 -2.2809
16067TIP3    H269617   4.857   5.321  15.034  0.4511 -0.7799  1.3358
16068TIP3   OH269618   5.545   2.838  17.181 -0.1830 -0.1684 -0.3604
16068TIP3    H169619   5.450   2.848  17.195 -0.4251 -0.9686 -1.3665
16068TIP3    H269620   5.579   2.928  17.185 -1.5150  0.5400 -3.5520
16069TIP3   OH269621   4.719   6.147   3.398  0.7419 -0.5334  0.6055
16069TIP3    H169622   4.774   6.073   3.372  1.8798  0.4255  0.2247
16069TIP3    H269623   4.775   6.224   3.387 -1.4833  0.7650 -2.3415
16070TIP3   OH269624   0.655   3.360  15.173  0.1731 -0.3703  0.1832
16070TIP3    H169625   0.620   3.448  15.171  0.1785 -0.3882 -0.8397
16070TIP3    H269626   0.587   3.305  15.135  0.0073 -0.8764  1.1693
16071TIP3   OH269627   6.370   0.589  12.860 -0.3911  0.4217  0.1538
16071TIP3    H169628   6.349   0.499  12.885 -2.1149  0.7372 -0.1081
16071TIP3    H269629   6.306   0.643  12.907  1.6651  1.6651  1.6213
16072TIP3   OH269630   3.474   0.217  10.810 -0.1074 -0.1556 -0.1215
16072TIP3    H169631   3.538   0.213  10.739  1.0353 -0.9868  0.9183
16072TIP3    H269632   3.527   0.229  10.889 -1.4900  3.1998  0.3836
16073TIP3   OH269633   5.461   4.447   3.214 -0.1892 -0.0144  0.8581
16073TIP3    H169634   5.518   4.375   3.186 -0.1688 -0.0479  0.9860
16073TIP3    H269635   5.509   4.526   3.189 -0.9860 -0.0409 -0.8664
16074TIP3   OH269636   1.867   2.330  14.155 -0.2493 -0.4223 -0.8649
16074TIP3    H169637   1.829   2.251  14.117  0.1542 -1.2662  0.4662
16074TIP3    H269638   1.844   2.326  14.248 -0.1924  0.9989 -0.7796
16075TIP3   OH269639   4.587   1.132   4.997  0.1284 -0.1420 -0.4630
16075TIP3    H169640   4.495   1.128   5.023  0.2513  1.9239  0.3462
16075TIP3    H269641   4.636   1.124   5.079  0.5898  2.1010 -0.4869
16076TIP3   OH269642   6.191   2.844   5.052  0.7798 -1.2008  0.1915
16076TIP3    H169643   6.177   2.913   5.116  1.8914 -1.4268  0.6850
16076TIP3    H269644   6.105   2.831   5.012  0.6421  0.8013 -0.2579
16077TIP3   OH269645   3.836   2.629  15.027 -0.1577  0.0119 -0.5099
16077TIP3    H169646   3.873   2.632  15.115 -0.6975 -1.0883 -0.2378
16077TIP3    H269647   3.896   2.682  14.974  0.5485  0.1096  0.3798
16078TIP3   OH269648   0.752   5.143  16.386 -0.2297  0.3610  0.4349
16078TIP3    H169649   0.821   5.181  16.440  0.7596 -1.1088  0.2489
16078TIP3    H269650   0.795   5.123  16.303 -1.0142 -0.0870  0.1330
16079TIP3   OH269651   3.127   3.908  14.581 -0.0079 -0.0833  0.1765
16079TIP3    H169652   3.189   3.869  14.642 -0.6361  0.9330  1.5041
16079TIP3    H269653   3.181   3.946  14.512  0.6868 -1.7027 -0.2019
16080TIP3   OH269654   6.348   1.228  13.352  0.1254 -0.4502 -0.5776
16080TIP3    H169655   6.363   1.259  13.441  0.9244  0.7102 -1.0943
16080TIP3    H269656   6.259   1.254  13.331  0.5900  1.0384 -0.7932
16081TIP3   OH269657   5.580   1.657   5.252  0.0029  0.3386 -0.1829
16081TIP3    H169658   5.615   1.570   5.231 -0.9119 -0.8671  2.9983
16081TIP3    H269659   5.627   1.683   5.331 -1.3256  1.8008  0.1367
16082TIP3   OH269660   1.559   0.284   1.438  0.3247 -0.4975 -0.4118
16082TIP3    H169661   1.646   0.296   1.400  0.0521  2.0448 -0.3002
16082TIP3    H269662   1.499   0.302   1.365 -0.1547  1.8417  0.5296
16083TIP3   OH269663   6.642   1.208  15.800  0.4965 -0.7486 -0.1072
16083TIP3    H169664   6.561   1.182  15.757  0.8718  0.2802 -1.4680
16083TIP3    H269665   6.621   1.291  15.842  0.4999 -1.1148  0.6337
16084TIP3   OH269666   3.884   0.820   3.879  0.2632  0.1109 -0.4784
16084TIP3    H169667   3.944   0.756   3.917  0.1231  0.5181  0.4420
16084TIP3    H269668   3.802   0.773   3.867  0.7097 -0.4096 -1.6143
16085TIP3   OH269669   2.937   5.437   4.420 -0.0481  0.3554 -0.1555
16085TIP3    H169670   2.844   5.439   4.397 -0.5403 -0.0670  1.7450
16085TIP3    H269671   2.980   5.481   4.346 -1.7352  0.5382 -1.0751
16086TIP3   OH269672   0.522   5.572  13.187  0.2619  0.0229  0.0996
16086TIP3    H169673   0.615   5.575  13.209  0.0002  1.1249  1.1005
16086TIP3    H269674   0.502   5.479  13.176  1.3681 -0.2444  0.3182
16087TIP3   OH269675   1.040   3.722   2.408 -0.4406  0.2863 -0.0273
16087TIP3    H169676   1.083   3.770   2.479  0.5215 -0.1338 -0.3250
16087TIP3    H269677   0.984   3.659   2.453 -0.1540  0.3056  0.3627
16088TIP3   OH269678   1.800   5.481  15.678  0.2035 -0.4540 -0.2188
16088TIP3    H169679   1.756   5.491  15.762  0.2522 -2.4049  0.0469
16088TIP3    H269680   1.812   5.387  15.667  0.6364 -0.1998 -2.1878
16089TIP3   OH269681   6.500   3.626   2.092 -0.6070  0.0187 -0.0772
16089TIP3    H169682   6.591   3.651   2.076 -0.6754 -0.2685 -0.9424
16089TIP3    H269683   6.449   3.694   2.049 -0.7984  0.2096  0.4572
16090TIP3   OH269684   1.455   0.937   0.263 -0.2361  0.4517  0.7232
16090TIP3    H169685   1.414   1.009   0.312 -0.8755  0.1651  0.6073
16090TIP3    H269686   1.393   0.915   0.194  0.5592  0.6868 -0.0808
16091TIP3   OH269687   5.479   4.583   2.854  0.1923 -0.0318  0.1498
16091TIP3    H169688   5.563   4.605   2.894 -0.5648  0.2445  1.6125
16091TIP3    H269689   5.477   4.487   2.854  1.3472 -0.0698 -1.6902
16092TIP3   OH269690   1.306   0.477   2.213 -0.5742 -0.4495  0.0060
16092TIP3    H169691   1.347   0.405   2.164  0.3919 -0.0730  0.2529
16092TIP3    H269692   1.227   0.498   2.163  0.1123 -0.4411 -1.0882
16093TIP3   OH269693   6.366   6.145   1.826 -0.4212  0.2644  0.4333
16093TIP3    H169694   6.378   6.056   1.795 -1.1201 -0.1586  1.3469
16093TIP3    H269695   6.271   6.153   1.839 -0.1805  0.5104  2.1530
16094TIP3   OH269696   4.249   0.197   1.496 -0.1182  0.2496 -0.0335
16094TIP3    H169697   4.201   0.276   1.474 -1.1088 -0.3098  0.1046
16094TIP3    H269698   4.182   0.135   1.525  0.9613  0.4027  2.9271
16095TIP3   OH269699   3.893   2.342   6.439 -0.2683 -0.1182 -0.0421
16095TIP3    H169700   3.915   2.435   6.434  4.9859 -1.1956  0.1667
16095TIP3    H269701   3.844   2.333   6.521 -0.6103  2.4146  0.0514
16096TIP3   OH269702   3.684   4.762  15.434 -0.8322 -0.2333  0.0722
16096TIP3    H169703   3.717   4.710  15.361 -2.1551 -0.1675 -0.5790
16096TIP3    H269704   3.657   4.698  15.500 -0.3597 -0.3103  0.1932
16097TIP3   OH269705   0.739   6.282   4.240  0.0116 -0.8042 -0.1078
16097TIP3    H169706   0.778   6.362   4.204 -0.4527 -0.3481  0.3937
16097TIP3    H269707   0.720   6.303   4.331 -1.0124 -1.1559 -0.2257
16098TIP3   OH269708   2.024   3.848  15.108  0.1577  0.3571  0.1330
16098TIP3    H169709   2.099   3.846  15.167 -0.0869  1.1842  0.4773
16098TIP3    H269710   2.006   3.756  15.088  0.3619  0.0893  1.1864
16099TIP3   OH269711   3.084   2.395  16.970  0.2439 -0.0967 -0.6720
16099TIP3    H169712   3.006   2.345  16.992 -0.7274  0.2892 -3.1593
16099TIP3    H269713   3.131   2.403  17.054 -0.0131 -4.3323 -0.0056
16100TIP3   OH269714   1.707   1.007   0.292 -0.4765 -0.1329  0.0069
16100TIP3    H169715   1.617   0.988   0.265 -0.5162 -0.2465  0.2173
16100TIP3    H269716   1.704   1.005   0.388 -0.6247  1.5561  0.0585
16101TIP3   OH269717   6.071   2.098  15.130  0.1134 -0.4200  0.4076
16101TIP3    H169718   6.102   2.178  15.088  0.4995 -1.3920 -1.2390
16101TIP3    H269719   5.976   2.105  15.130  0.1344 -0.1243 -0.0864
16102TIP3   OH269720   5.910   0.361  14.337 -0.1427  0.4584 -0.0383
16102TIP3    H169721   5.914   0.425  14.408 -0.8822 -0.7664  1.1324
16102TIP3    H269722   5.963   0.288  14.368  0.2979  0.3117 -1.1512
16103TIP3   OH269723   0.783   2.160  10.919  0.1498  0.3958  0.0618
16103TIP3    H169724   0.810   2.251  10.935 -0.2357  0.7819 -1.3733
16103TIP3    H269725   0.811   2.143  10.829  1.3945 -1.3598  0.7496
16104TIP3   OH269726   4.647   0.364  15.296  0.4421 -0.1004  0.0613
16104TIP3    H169727   4.705   0.440  15.282  0.2780  0.2397  1.2164
16104TIP3    H269728   4.692   0.292  15.252  0.4483  0.7341 -1.3294
16105TIP3   OH269729   0.024   5.458   0.861  0.0937 -0.4507  0.1697
16105TIP3    H169730   0.093   5.525   0.865  0.1016 -0.4664  0.2961
16105TIP3    H269731  -0.057   5.508   0.862  0.0951 -0.4563  0.5884
16106TIP3   OH269732   3.719   4.458  15.316 -0.5523 -0.9701  0.1937
16106TIP3    H169733   3.688   4.448  15.407 -0.1792 -1.8876  0.2326
16106TIP3    H269734   3.813   4.474  15.325 -0.4532 -1.4069 -0.0379
16107TIP3   OH269735   4.541   1.626  16.684 -0.0304 -0.0890  0.5245
16107TIP3    H169736   4.555   1.651  16.592 -0.4130  0.0288  0.4988
16107TIP3    H269737   4.468   1.680  16.712  1.3852  1.3583  1.5102
16108TIP3   OH269738   0.149   5.586  14.604 -0.2719 -0.0890 -0.0737
16108TIP3    H169739   0.077   5.617  14.549  2.3222  0.0430 -3.5967
16108TIP3    H269740   0.198   5.665  14.625  0.0222 -0.4293  0.5204
16109TIP3   OH269741   6.568   2.799  12.322  0.4899  0.1762 -0.2201
16109TIP3    H169742   6.653   2.837  12.343  1.1180 -0.5644 -1.4213
16109TIP3    H269743   6.585   2.739  12.250 -1.1054  0.2689 -0.6879
16110TIP3   OH269744   1.234   3.080   1.084 -0.1278 -0.1680  0.1174
16110TIP3    H169745   1.213   3.167   1.119  0.5783 -0.1471  0.5061
16110TIP3    H269746   1.320   3.060   1.122  0.5719 -0.2232 -1.4674
16111TIP3   OH269747   0.851   3.927   4.270  0.4255  0.7496 -0.1160
16111TIP3    H169748   0.845   3.943   4.364  3.2684 -1.9279  0.6087
16111TIP3    H269749   0.880   4.011   4.233 -0.7744  1.8418  1.3566
16112TIP3   OH269750   6.108   2.520  13.827  0.0661 -0.6813  0.3410
16112TIP3    H169751   6.051   2.544  13.901  0.0824  0.2508  0.0595
16112TIP3    H269752   6.088   2.584  13.759  2.6773  0.7571  0.8517
16113TIP3   OH269753   5.064   5.955   5.195  0.2640 -0.0989  0.3980
16113TIP3    H169754   5.048   5.892   5.265  0.5302 -0.9011 -0.2501
16113TIP3    H269755   5.035   5.910   5.116 -2.7587  1.8824  0.3138
16114TIP3   OH269756   6.392   4.598  15.657  0.2214  0.2777 -0.7479
16114TIP3    H169757   6.479   4.626  15.626  0.3093 -0.3441 -1.0851
16114TIP3    H269758   6.383   4.639  15.742  1.2235 -0.3337 -0.3250
16115TIP3   OH269759   2.170   1.075  16.491 -0.1742 -0.1188 -0.1853
16115TIP3    H169760   2.214   1.146  16.537 -0.2595  0.7932 -1.5020
16115TIP3    H269761   2.077   1.095  16.499 -0.2499 -0.6412  0.3212
16116TIP3   OH269762   2.645   4.769   6.507 -0.4640 -0.1158  0.6978
16116TIP3    H169763   2.590   4.802   6.436  0.6204  1.3969  0.5402
16116TIP3    H269764   2.601   4.689   6.536 -0.3327 -1.3644 -2.4042
16117TIP3   OH269765   6.111   0.628  14.237  1.3182 -0.2644  0.4665
16117TIP3    H169766   6.050   0.701  14.226  1.1427 -0.5297 -0.3388
16117TIP3    H269767   6.151   0.643  14.324 -0.4831 -0.5418  1.3609
16118TIP3   OH269768   4.817   1.825   0.333  0.0257  0.2202  0.2704
16118TIP3    H169769   4.798   1.918   0.319 -1.1352 -0.0651 -0.0936
16118TIP3    H269770   4.797   1.783   0.250  2.6684 -0.0646 -0.2793
16119TIP3   OH269771   4.454   3.640   5.615 -0.3119  0.0372  0.0816
16119TIP3    H169772   4.453   3.550   5.581 -0.8222  0.4080 -0.8904
16119TIP3    H269773   4.480   3.694   5.540  1.2985  0.5763  0.9986
16120TIP3   OH269774   4.103   2.245  11.112 -0.0030 -0.6890  0.2306
16120TIP3    H169775   4.056   2.174  11.155  0.7270 -0.6810  1.0425
16120TIP3    H269776   4.042   2.277  11.046 -0.7410 -1.3659  0.5743
16121TIP3   OH269777   3.689   0.041   5.016 -0.4797  0.5118  0.0275
16121TIP3    H169778   3.659   0.105   5.081  0.3124  1.1222 -0.1996
16121TIP3    H269779   3.619  -0.023   5.012 -0.0755 -0.1164  2.2677
16122TIP3   OH269780   2.565   3.524  11.860 -0.3392 -0.6218 -0.4967
16122TIP3    H169781   2.524   3.447  11.820  0.9612 -0.8954 -1.3272
16122TIP3    H269782   2.493   3.587  11.868 -1.1331 -1.4414 -1.0324
16123TIP3   OH269783   2.682   3.893  12.593 -0.1775  0.5541  0.2733
16123TIP3    H169784   2.733   3.828  12.642  0.7498  0.4173 -0.8347
16123TIP3    H269785   2.694   3.974  12.642  1.3700  0.5926 -0.1154
16124TIP3   OH269786   2.902   1.921   3.371 -0.1608  0.1884 -0.0645
16124TIP3    H169787   2.925   1.973   3.294  1.1294 -0.6954 -0.2992
16124TIP3    H269788   2.984   1.915   3.420 -0.0741 -2.3403 -0.4694
16125TIP3   OH269789   4.320   6.240  12.287  0.7334 -0.0587 -0.1805
16125TIP3    H169790   4.396   6.298  12.285 -0.2661  1.2579 -0.2793
16125TIP3    H269791   4.342   6.169  12.226  1.7967  0.4201 -0.3536
16126TIP3   OH269792   4.149   1.377  13.235 -0.1483 -0.0426 -0.6007
16126TIP3    H169793   4.076   1.341  13.186  0.2454 -0.5500 -0.8138
16126TIP3    H269794   4.130   1.353  13.326  0.7386 -1.8789 -0.8834
16127TIP3   OH269795   0.814   1.781  15.111  0.6899  0.0117 -0.1274
16127TIP3    H169796   0.817   1.685  15.102  2.5585  0.0979 -0.6915
16127TIP3    H269797   0.906   1.807  15.117  0.2967  1.9204 -1.7449
16128TIP3   OH269798   0.711   4.524  14.782  0.9013 -0.5166 -0.1236
16128TIP3    H169799   0.693   4.430  14.790 -0.0673 -0.3071  0.2943
16128TIP3    H269800   0.689   4.545  14.692  0.3691 -0.5471 -0.0052
16129TIP3   OH269801   0.367   1.957  14.174 -0.1706  0.0161 -0.1824
16129TIP3    H169802   0.422   2.035  14.177  0.6389 -0.5436 -0.4475
16129TIP3    H269803   0.307   1.973  14.101  0.0090  0.3819 -0.2518
16130TIP3   OH269804   2.198   6.630   3.068  0.1395 -0.0586 -0.5451
16130TIP3    H169805   2.249   6.704   3.101 -0.4012  0.1924 -0.2598
16130TIP3    H269806   2.230   6.617   2.979  2.2645 -1.3264  0.3489
16131TIP3   OH269807   3.126   6.395  14.804  0.3690  0.0772 -0.6882
16131TIP3    H169808   3.187   6.365  14.871  1.2571 -1.4836 -2.1580
16131TIP3    H269809   3.043   6.353  14.828  0.2236  1.0038  0.4664
16132TIP3   OH269810   3.783   4.525   5.900  0.3622 -0.0871 -0.8796
16132TIP3    H169811   3.841   4.542   5.974 -0.1337  0.7013 -0.6708
16132TIP3    H269812   3.781   4.430   5.892  1.1121 -0.1425 -0.4363
16133TIP3   OH269813   5.174   4.972  17.127  0.5164 -0.0146  0.2825
16133TIP3    H169814   5.117   5.039  17.090  0.7384  0.8498  1.4646
16133TIP3    H269815   5.124   4.891  17.119 -0.6796  0.6574  0.8352
16134TIP3   OH269816   4.709   1.082  10.653  0.3936 -0.0224 -0.1093
16134TIP3    H169817   4.747   1.014  10.598  1.1832 -1.1014  1.7303
16134TIP3    H269818   4.618   1.087  10.625  1.2215  0.8000 -2.8059
16135TIP3   OH269819   5.365   0.179   1.189  0.4354  0.0264 -0.3955
16135TIP3    H169820   5.368   0.091   1.150  0.8300 -0.2914  0.3407
16135TIP3    H269821   5.333   0.165   1.278  1.0792  0.5516 -0.0705
16136TIP3   OH269822   6.180   1.199  15.168 -0.2089 -0.1053  0.1082
16136TIP3    H169823   6.161   1.121  15.220 -2.3401  1.6308  2.0782
16136TIP3    H269824   6.163   1.272  15.228 -2.4279  1.9637 -2.8751
16137TIP3   OH269825   1.108   4.551  11.742 -0.0357  0.7010 -0.0606
16137TIP3    H169826   1.185   4.608  11.747  0.2708  0.1724  1.5925
16137TIP3    H269827   1.069   4.571  11.657  3.3539 -0.8673 -2.1215
16138TIP3   OH269828   0.824   2.214  11.710  0.1256 -0.4722  0.0397
16138TIP3    H169829   0.852   2.168  11.789 -1.8688 -0.0537  1.0097
16138TIP3    H269830   0.895   2.199  11.648  1.2502 -1.6685  1.5673
16139TIP3   OH269831   5.996   5.750  12.714 -0.2664  0.0342 -0.0025
16139TIP3    H169832   6.024   5.687  12.647 -0.5374  0.4623 -0.5186
16139TIP3    H269833   6.073   5.760  12.770 -0.4021 -1.1832  0.4098
16140TIP3   OH269834   6.520   3.277  16.449 -0.6220  0.2898 -0.4583
16140TIP3    H169835   6.611   3.305  16.460 -0.5895 -0.2444  0.7919
16140TIP3    H269836   6.504   3.284  16.355  0.8657 -0.0664 -0.7591
16141TIP3   OH269837   4.322   6.084   5.410  0.1973 -0.1109 -0.3980
16141TIP3    H169838   4.247   6.098   5.351  0.1301 -0.8127 -0.4773
16141TIP3    H269839   4.324   5.990   5.425  2.1591 -0.3194 -1.8254
16142TIP3   OH269840   1.160   3.152  14.402  0.0411 -0.3307  0.2088
16142TIP3    H169841   1.121   3.202  14.330  0.6657 -1.3156 -0.8124
16142TIP3    H269842   1.243   3.120  14.367 -0.0522 -1.5343  1.0889
16143TIP3   OH269843   2.602   3.086  14.743  0.3577 -0.7695  0.1513
16143TIP3    H169844   2.528   3.054  14.793  0.1510  1.0100  1.0251
16143TIP3    H269845   2.601   3.181  14.756  1.6353 -0.5110 -1.3948
16144TIP3   OH269846   3.575   3.673  16.680  0.2004 -0.8219 -0.4182
16144TIP3    H169847   3.617   3.684  16.595  0.7775  3.5764  0.3221
16144TIP3    H269848   3.481   3.672  16.660  0.3454 -0.3428 -1.1503
16145TIP3   OH269849   2.221   0.114  11.395 -0.1470  0.1701  0.2265
16145TIP3    H169850   2.207   0.091  11.487  1.3421  1.5795  0.8276
16145TIP3    H269851   2.309   0.084  11.376 -0.3622  0.1102 -0.6709
16146TIP3   OH269852   5.348   1.636  16.398 -0.8154  0.3256  0.0463
16146TIP3    H169853   5.359   1.730  16.388 -1.3404  0.4051  0.1563
16146TIP3    H269854   5.253   1.623  16.396 -0.7184 -0.5650 -3.4219
16147TIP3   OH269855   2.563   4.160  13.147 -0.3173 -0.3972  0.5343
16147TIP3    H169856   2.563   4.129  13.057 -2.2088  0.2222  0.2956
16147TIP3    H269857   2.470   4.172  13.168  0.1415  0.1759  2.3093
16148TIP3   OH269858   5.280   4.170   4.413 -0.1942  0.5057  0.1928
16148TIP3    H169859   5.318   4.238   4.356  0.1869 -1.1882 -1.6486
16148TIP3    H269860   5.263   4.097   4.354 -2.1088 -0.4250  1.8554
16149TIP3   OH269861   2.195   3.170  17.155  0.0796  0.1476 -0.2851
16149TIP3    H169862   2.151   3.098  17.110  1.7132 -0.8395 -0.3184
16149TIP3    H269863   2.185   3.150  17.248 -0.0659  0.2486 -0.2796
16150TIP3   OH269864   5.248   3.527   1.964 -0.5831  0.1622  0.1344
16150TIP3    H169865   5.237   3.575   2.046  0.7782 -0.0942  0.4866
16150TIP3    H269866   5.251   3.595   1.896 -1.7865  0.3697  0.2829
16151TIP3   OH269867   4.722   0.652   1.349 -0.2180  0.3005 -0.0788
16151TIP3    H169868   4.725   0.621   1.439  1.8642  2.5883  0.6679
16151TIP3    H269869   4.688   0.742   1.355 -2.5484 -0.4032 -1.8418
16152TIP3   OH269870   1.421   3.846  13.900  0.4864  0.4270 -0.1156
16152TIP3    H169871   1.397   3.810  13.985 -1.0460 -0.6205 -0.9687
16152TIP3    H269872   1.405   3.940  13.908 -2.6395 -0.0378 -0.1860
16153TIP3   OH269873   1.111   4.883   0.661  0.0485 -0.6449  0.3967
16153TIP3    H169874   1.034   4.830   0.642  0.6440 -0.0669 -4.4167
16153TIP3    H269875   1.078   4.973   0.660  0.5849 -0.4467 -0.9161
16154TIP3   OH269876   4.161   5.233  13.957  0.6175  0.1329  0.3909
16154TIP3    H169877   4.166   5.151  14.006  3.3683 -0.4385 -0.7872
16154TIP3    H269878   4.153   5.301  14.024  2.0457 -0.8184  1.5490
16155TIP3   OH269879   0.131   0.624  15.093 -0.1371  0.4039  0.6128
16155TIP3    H169880   0.075   0.548  15.076 -2.2050  2.0451 -0.1579
16155TIP3    H269881   0.121   0.679  15.015  1.2259  1.5248  1.2050
16156TIP3   OH269882   2.799   2.220   1.414  0.1675  0.3658 -0.2265
16156TIP3    H169883   2.739   2.282   1.372  1.3484 -0.4806 -3.3466
16156TIP3    H269884   2.878   2.224   1.360  1.0419 -2.2479  0.8076
16157TIP3   OH269885   4.925   0.760  13.743 -0.3776 -0.0510 -0.0114
16157TIP3    H169886   5.000   0.804  13.704 -0.1548 -0.5220 -0.1179
16157TIP3    H269887   4.879   0.829  13.791 -1.0105  0.6633 -1.6214
16158TIP3   OH269888   6.258   1.136  12.544 -0.4959  0.3970 -0.2048
16158TIP3    H169889   6.312   1.208  12.576  0.8780 -0.3164 -0.8755
16158TIP3    H269890   6.176   1.177  12.516  0.8805  1.9115 -2.1051
16159TIP3   OH269891   4.631   0.135  14.247 -0.4847  0.0970  0.1738
16159TIP3    H169892   4.634   0.048  14.208  0.7231  0.8144 -1.4360
16159TIP3    H269893   4.587   0.189  14.180  0.0582  0.9970  0.5348
16160TIP3   OH269894   6.096   1.398   5.823 -0.2918 -0.2551  0.0917
16160TIP3    H169895   6.013   1.421   5.782  0.0582  0.5806 -0.1727
16160TIP3    H269896   6.075   1.388   5.916 -0.2026  2.8428  0.5309
16161TIP3   OH269897   1.790   1.066   4.528  0.3693  0.6216 -0.2494
16161TIP3    H169898   1.866   1.117   4.498  0.8257 -1.2596 -2.4024
16161TIP3    H269899   1.824   1.015   4.601  0.6691  1.1838  0.0139
16162TIP3   OH269900   3.289   0.972  10.920 -0.1000  0.6825 -0.0975
16162TIP3    H169901   3.237   1.043  10.882  0.8539  1.5451  0.2162
16162TIP3    H269902   3.284   0.986  11.014 -2.0764 -1.1935  0.1206
16163TIP3   OH269903   5.264   2.912  12.765 -0.3584 -0.5020 -0.2349
16163TIP3    H169904   5.346   2.943  12.803 -0.1438 -0.1073 -0.9949
16163TIP3    H269905   5.210   2.887  12.840  0.1279  0.0604  0.3098
16164TIP3   OH269906   0.232   2.105   1.116  0.2415 -0.0354 -0.8855
16164TIP3    H169907   0.319   2.066   1.119  0.4315  0.4699  1.0226
16164TIP3    H269908   0.176   2.036   1.081  1.0169 -1.1425  0.0043
16165TIP3   OH269909   6.109   0.051   5.782 -0.6159 -0.1633 -0.2371
16165TIP3    H169910   6.185   0.011   5.741  0.1810  1.2034 -0.1051
16165TIP3    H269911   6.058   0.086   5.709 -0.4986  0.0033 -0.2389
16166TIP3   OH269912   4.227   2.640   0.620 -0.1913  0.0431 -0.1150
16166TIP3    H169913   4.270   2.614   0.538  0.0874 -0.6202  0.2308
16166TIP3    H269914   4.270   2.722   0.644  1.3596 -0.9453  0.5609
16167TIP3   OH269915   6.299   2.192   5.262 -0.4820  0.0806  0.5829
16167TIP3    H169916   6.374   2.251   5.268  1.2760 -1.8448 -1.4077
16167TIP3    H269917   6.245   2.229   5.193 -0.6199  0.6772  1.0086
16168TIP3   OH269918   3.706   2.388  15.244  0.1394  0.5280 -0.1615
16168TIP3    H169919   3.781   2.445  15.263 -0.1712  0.7797  0.3116
16168TIP3    H269920   3.630   2.437  15.275 -0.2066  0.1932 -0.4764
16169TIP3   OH269921   1.350   5.223  12.318 -0.0306  0.2287 -0.2874
16169TIP3    H169922   1.308   5.179  12.392  1.7592  0.4603  0.9105
16169TIP3    H269923   1.404   5.155  12.277  1.7652  0.9375  0.8144
16170TIP3   OH269924   2.838   1.920   4.371 -0.0082  0.3676  0.2953
16170TIP3    H169925   2.861   1.950   4.283 -0.6886  0.5628  0.1862
16170TIP3    H269926   2.870   1.988   4.430 -0.9312  0.9755  0.0952
16171TIP3   OH269927   1.239   6.188   0.811  0.4831 -0.3045  0.0026
16171TIP3    H169928   1.162   6.229   0.772  0.9982 -0.8870 -1.6434
16171TIP3    H269929   1.290   6.156   0.737  0.9235 -2.4202  1.1910
16172TIP3   OH269930   5.111   1.766  11.997  0.1066 -0.0680  0.0558
16172TIP3    H169931   5.122   1.747  11.904 -1.1295  0.3438 -0.1755
16172TIP3    H269932   5.028   1.725  12.021 -0.1375  0.7897  0.7088
16173TIP3   OH269933   2.830   2.322   6.800 -0.3691 -0.3388 -0.4813
16173TIP3    H169934   2.786   2.242   6.829  0.0450 -0.8126 -1.1417
16173TIP3    H269935   2.760   2.378   6.767 -0.4862 -1.0967 -1.5450
16174TIP3   OH269936   0.285   1.365   4.278  0.0218 -0.2374  0.4098
16174TIP3    H169937   0.333   1.362   4.196 -1.8114 -0.1199 -0.6854
16174TIP3    H269938   0.314   1.446   4.320  2.4690 -1.3055  0.8437
16175TIP3   OH269939   3.562   5.752   5.150  0.1039  0.0867 -0.2553
16175TIP3    H169940   3.492   5.691   5.129 -3.2040  2.7280  2.5823
16175TIP3    H269941   3.560   5.816   5.079  1.0848 -0.9780 -1.2654
16176TIP3   OH269942   2.362   4.088   5.106 -0.4016  0.0244 -0.0611
16176TIP3    H169943   2.419   4.151   5.062 -0.8970 -0.3962 -1.3160
16176TIP3    H269944   2.415   4.009   5.115 -0.5542 -0.1344 -0.5797
16177TIP3   OH269945   0.430   5.756  13.910  0.1441  0.3249 -0.3620
16177TIP3    H169946   0.518   5.781  13.882 -0.5201  2.0697 -0.9471
16177TIP3    H269947   0.374   5.829  13.884 -1.2381 -0.0468  1.4274
16178TIP3   OH269948   5.390   6.455  15.624 -0.1997 -0.3674  0.2300
16178TIP3    H169949   5.433   6.411  15.697  1.2594 -0.2569 -0.5468
16178TIP3    H269950   5.461   6.482  15.566 -1.1137  2.2742  0.2676
16179TIP3   OH269951   2.590   2.170   4.059  0.4357  1.0020  0.0016
16179TIP3    H169952   2.563   2.259   4.035  0.2124  0.5153 -1.6264
16179TIP3    H269953   2.512   2.117   4.042  1.8449 -0.1636 -3.1776
16180TIP3   OH269954   6.396   6.348   5.260 -0.1525  0.0815  0.1638
16180TIP3    H169955   6.392   6.257   5.291 -1.0877  0.2593  0.5683
16180TIP3    H269956   6.326   6.354   5.195  0.1452  0.4263 -0.1280
16181TIP3   OH269957   4.771   6.513  15.281  0.4057  0.2490 -0.3613
16181TIP3    H169958   4.842   6.576  15.268 -0.9555  1.8027 -0.4746
16181TIP3    H269959   4.721   6.516  15.199 -0.4302  0.0175  0.1334
16182TIP3   OH269960   5.044   0.766  14.513 -0.0381 -0.3148 -0.6752
16182TIP3    H169961   4.978   0.776  14.582  1.4733  1.8283  0.5561
16182TIP3    H269962   5.115   0.718  14.555  0.7157  0.6391 -0.8302
16183TIP3   OH269963   3.230   0.796  10.576  0.8033  0.1112  0.0115
16183TIP3    H169964   3.227   0.890  10.555  1.0581 -0.3485 -2.1979
16183TIP3    H269965   3.164   0.757  10.519  2.8148 -1.4477 -1.3026
16184TIP3   OH269966   0.845   1.094  12.458 -0.1558 -0.0186 -0.4790
16184TIP3    H169967   0.761   1.130  12.486 -0.0186 -0.3170  0.3039
16184TIP3    H269968   0.823   1.007  12.424 -0.0489 -0.4406  0.5166
16185TIP3   OH269969   5.860   0.553   3.981 -0.2111 -0.1996  0.4850
16185TIP3    H169970   5.827   0.640   3.958  1.1188  0.2575  0.2523
16185TIP3    H269971   5.794   0.517   4.040 -1.1067  0.6888  0.0434
16186TIP3   OH269972   0.241   0.671   2.470 -0.3907  0.1328  0.4722
16186TIP3    H169973   0.177   0.650   2.402 -0.1988 -0.1986  0.3936
16186TIP3    H269974   0.317   0.617   2.449 -0.4916 -0.2997  1.2133
16187TIP3   OH269975   6.687   5.601  12.622  0.5085 -0.2341 -0.5471
16187TIP3    H169976   6.682   5.658  12.699  1.7486 -0.9586  0.1035
16187TIP3    H269977   6.698   5.660  12.548 -1.5111  0.5143 -0.2741
16188TIP3   OH269978   1.572   2.456  13.451 -0.7730  0.2364  0.7259
16188TIP3    H169979   1.653   2.432  13.405 -1.7338 -1.8656  0.0242
16188TIP3    H269980   1.591   2.439  13.543 -0.4823 -0.5237  0.5342
16189TIP3   OH269981   6.347   5.327   1.917 -0.1010 -0.0608  0.0422
16189TIP3    H169982   6.382   5.410   1.886  0.2088  0.2539  1.1962
16189TIP3    H269983   6.418   5.289   1.969 -0.6998 -0.4414  0.5913
16190TIP3   OH269984   1.503   4.775   3.038 -0.1891 -0.6217 -0.2139
16190TIP3    H169985   1.583   4.826   3.024  0.5208 -0.8472  2.8082
16190TIP3    H269986   1.441   4.837   3.076 -0.7669 -0.9675 -0.5797
16191TIP3   OH269987   6.152   3.145   1.646  0.3624  0.3028  0.3514
16191TIP3    H169988   6.162   3.214   1.712  2.8218  1.9151 -1.6127
16191TIP3    H269989   6.169   3.189   1.563  1.6301 -2.5950 -0.9876
16192TIP3   OH269990   1.319   0.061   2.336  0.8215 -0.5926  0.8495
16192TIP3    H169991   1.237   0.077   2.290 -0.2705 -0.1118  2.8878
16192TIP3    H269992   1.369   0.142   2.325  0.2402 -0.1907  1.1799
16193TIP3   OH269993   1.494   5.791  15.636  0.0909 -0.9681 -0.8012
16193TIP3    H169994   1.508   5.844  15.714 -2.5699 -0.3191 -0.6930
16193TIP3    H269995   1.581   5.774  15.602  1.1022  1.7080  0.3352
16194TIP3   OH269996   2.311   3.264  13.216 -0.3572  0.0454 -0.6879
16194TIP3    H169997   2.352   3.325  13.155  0.9580 -0.1849 -0.0447
16194TIP3    H269998   2.229   3.306  13.241  0.1609  1.1657 -0.8772
16195TIP3   OH269999   3.243   4.257   0.019  0.2398 -0.1749 -0.4156
16195TIP3    H170000   3.171   4.292   0.072  0.2125  1.7547 -1.6890
16195TIP3    H270001   3.321   4.274   0.070  0.0208 -0.0695 -0.1142
16196TIP3   OH270002   0.739   1.200  15.561  0.0445  0.2051  0.0197
16196TIP3    H170003   0.743   1.119  15.509 -1.5859  1.1395 -1.6203
16196TIP3    H270004   0.818   1.198  15.614  0.4513 -2.0749 -0.5961
16197TIP3   OH270005   5.457   3.383  12.270 -0.1915 -0.2020  0.4019
16197TIP3    H170006   5.548   3.360  12.288 -0.2377  0.2685  1.2664
16197TIP3    H270007   5.447   3.471  12.307 -0.5291  0.4590 -1.1865
16198TIP3   OH270008   5.593   2.032   0.683 -0.3742 -0.6961  0.3866
16198TIP3    H170009   5.669   2.075   0.720 -1.3967  0.6479  0.9704
16198TIP3    H270010   5.574   1.960   0.743 -1.6535  1.0952  2.1688
16199TIP3   OH270011   4.661   2.294  14.446  0.1229 -0.1032 -0.1240
16199TIP3    H170012   4.697   2.206  14.438 -0.5190 -0.3798 -0.0338
16199TIP3    H270013   4.567   2.280  14.460 -0.1461  0.6160 -1.1459
16200TIP3   OH270014   1.939   2.552  14.441 -0.2353 -0.0430  0.0226
16200TIP3    H170015   1.917   2.459  14.441 -2.1462  0.3743  0.3975
16200TIP3    H270016   1.979   2.568  14.526 -0.2048 -0.4719  0.0862
16201TIP3   OH270017   4.895   4.562  15.918  0.9169  0.3837  0.1585
16201TIP3    H170018   4.909   4.656  15.913  1.7990  0.3235  1.4122
16201TIP3    H270019   4.938   4.526  15.841  0.4192  1.0225 -0.4149
16202TIP3   OH270020   6.600   2.977   3.444  0.3347 -0.0855  0.5327
16202TIP3    H170021   6.557   3.044   3.497  0.9480 -2.7975  4.6538
16202TIP3    H270022   6.538   2.958   3.374 -2.1204  0.9681  2.3779
16203TIP3   OH270023   0.214   2.459   1.248 -0.0986  0.2774 -0.0208
16203TIP3    H170024   0.223   2.491   1.158 -0.7555 -0.2250 -0.2646
16203TIP3    H270025   0.293   2.407   1.263 -0.8420 -1.1276 -0.9242
16204TIP3   OH270026   1.403   4.062  11.042  0.9185  0.5919  0.8092
16204TIP3    H170027   1.486   4.102  11.016  0.5658  0.0114 -1.2661
16204TIP3    H270028   1.353   4.133  11.081  1.2441  1.6253 -0.6203
16205TIP3   OH270029   3.712   4.218  10.638  0.5308 -0.1262  0.5084
16205TIP3    H170030   3.631   4.197  10.686 -0.8034  1.3705 -1.0074
16205TIP3    H270031   3.774   4.150  10.665 -0.3904  0.2263  3.7550
16206TIP3   OH270032   5.032   1.542   3.979 -0.3894  0.0112  0.7584
16206TIP3    H170033   5.076   1.616   4.020 -0.8987  0.2288  0.9160
16206TIP3    H270034   4.953   1.579   3.941 -0.5273 -0.4089  0.6326
16207TIP3   OH270035   6.716   0.933  11.511  0.2451  0.9794  0.3376
16207TIP3    H170036   6.792   0.990  11.517  0.5222  0.4079  2.4604
16207TIP3    H270037   6.658   0.978  11.448  1.5978  2.2289 -0.0524
16208TIP3   OH270038   4.369   3.032   3.092 -0.0563  0.1311  0.7434
16208TIP3    H170039   4.302   3.100   3.101 -0.7437 -0.5661  0.8850
16208TIP3    H270040   4.420   3.037   3.173  0.3100  0.9143  0.4744
16209TIP3   OH270041   4.736   4.544   1.965  0.2973  0.1831 -0.3057
16209TIP3    H170042   4.712   4.453   1.981 -0.0050  0.5417  1.3329
16209TIP3    H270043   4.653   4.587   1.943  0.6061 -0.1596 -2.2105
16210TIP3   OH270044   1.785   3.046   5.693  0.6190  0.5135 -0.3351
16210TIP3    H170045   1.801   3.141   5.690 -0.7354  0.7831  0.3969
16210TIP3    H270046   1.871   3.007   5.675  0.9318  1.8607 -1.9316
16211TIP3   OH270047   3.523   3.576  13.232 -0.1818 -0.1730  0.2935
16211TIP3    H170048   3.432   3.551  13.249 -0.4441  0.6148  0.0839
16211TIP3    H270049   3.554   3.610  13.316 -0.7965  1.6618 -0.1755
16212TIP3   OH270050   2.088   0.486   2.300 -0.0115  0.5796 -0.0766
16212TIP3    H170051   2.067   0.463   2.390  1.2537  0.6557  0.2531
16212TIP3    H270052   2.139   0.566   2.307  1.9445 -0.5770 -0.6882
16213TIP3   OH270053   1.747   3.497   0.225  0.2854  0.6111  0.1066
16213TIP3    H170054   1.656   3.468   0.229  0.5920 -1.3942 -4.3811
16213TIP3    H270055   1.744   3.577   0.173  1.0213  0.9479  0.5785
16214TIP3   OH270056   4.374   4.277  16.260  0.4969  0.1014  0.1315
16214TIP3    H170057   4.399   4.237  16.177  0.1094 -0.4851  0.2948
16214TIP3    H270058   4.293   4.232  16.285 -0.4020  1.5560 -0.1013
16215TIP3   OH270059   0.633   6.611  12.316 -0.6769 -0.2056  0.0820
16215TIP3    H170060   0.636   6.657  12.232  3.1295 -1.8504 -0.8105
16215TIP3    H270061   0.593   6.526  12.295 -3.6465  0.9544  0.8480
16216TIP3   OH270062   0.251   5.954   3.501  0.0191  0.0438  0.1764
16216TIP3    H170063   0.323   5.919   3.554 -0.3909 -0.9741  0.0686
16216TIP3    H270064   0.293   6.017   3.442  0.4864  1.1366  1.6529
16217TIP3   OH270065   1.774   1.870   0.283  0.4128  0.7828 -0.2725
16217TIP3    H170066   1.742   1.860   0.194 -0.5789  0.6598  0.0890
16217TIP3    H270067   1.768   1.964   0.300  2.3230  1.0491 -0.9548
16218TIP3   OH270068   0.969   4.160  17.232 -0.0152  0.0629  0.1402
16218TIP3    H170069   0.975   4.072  17.269 -0.1753  0.7120  1.7542
16218TIP3    H270070   1.036   4.210  17.278  0.5716  0.6352 -1.2872
16219TIP3   OH270071   4.741   4.259  13.312 -0.1083  0.3968 -0.1919
16219TIP3    H170072   4.747   4.199  13.386 -1.5951  1.1346  0.5437
16219TIP3    H270073   4.785   4.338  13.342  0.3814  0.2575 -0.5492
16220TIP3   OH270074   2.436   5.190   1.423 -0.1112  0.2261  0.0781
16220TIP3    H170075   2.354   5.208   1.377  0.3722 -0.3201 -1.0088
16220TIP3    H270076   2.500   5.245   1.378  0.1970  0.3308  0.6525
16221TIP3   OH270077   5.044   4.790  16.034  0.6433  0.5237  0.7108
16221TIP3    H170078   4.993   4.809  15.955  1.3534 -1.1338 -0.1764
16221TIP3    H270079   4.979   4.764  16.099  0.2817 -1.1387 -0.2780
16222TIP3   OH270080   1.288   0.179  16.034 -0.0219 -0.1012  0.2672
16222TIP3    H170081   1.365   0.180  16.090 -0.8725 -0.0619  1.4582
16222TIP3    H270082   1.216   0.203  16.092 -0.9414 -0.2151 -0.8087
16223TIP3   OH270083   5.020   1.197   0.649 -0.1156  0.0121 -0.2244
16223TIP3    H170084   5.052   1.250   0.722 -1.0550  1.5213 -0.8738
16223TIP3    H270085   5.021   1.107   0.682  0.4638  0.5528  1.2757
16224TIP3   OH270086   5.415   0.741   1.322  0.2949  0.0159  0.2279
16224TIP3    H170087   5.489   0.692   1.356  1.1500  3.1068  3.0734
16224TIP3    H270088   5.368   0.771   1.399 -3.7737 -1.5334 -1.5103
16225TIP3   OH270089   1.792   3.886   6.884 -0.1483  0.5761  0.0883
16225TIP3    H170090   1.841   3.904   6.964 -0.5758  1.3499  0.1777
16225TIP3    H270091   1.817   3.956   6.824 -0.7333  0.6582 -0.0553
16226TIP3   OH270092   1.121   0.319  12.154 -0.1961 -0.0699  0.6092
16226TIP3    H170093   1.196   0.348  12.205 -0.0198  1.5211 -0.5251
16226TIP3    H270094   1.154   0.310  12.065 -0.8340 -1.5008  0.4942
16227TIP3   OH270095   5.767   4.146  12.459  0.5454 -0.8260  0.2268
16227TIP3    H170096   5.718   4.187  12.530  0.2058 -0.3676 -0.2646
16227TIP3    H270097   5.858   4.154  12.484  0.4171 -0.8419  0.7038
16228TIP3   OH270098   0.410   2.871   4.900  0.1925  0.2472  0.0160
16228TIP3    H170099   0.398   2.939   4.834  1.7958  0.8497  0.3473
16228TIP3    H270100   0.440   2.917   4.978  2.1992 -0.9466 -0.0290
16229TIP3   OH270101   5.374   5.196  14.804  0.7009  0.0601 -0.3414
16229TIP3    H170102   5.453   5.144  14.819  0.0460 -0.7191  0.4909
16229TIP3    H270103   5.392   5.280  14.847  0.9332 -0.2483  0.1662
16230TIP3   OH270104   6.482   2.660  12.526  0.2708 -0.4535  0.0058
16230TIP3    H170105   6.545   2.649  12.597 -1.8544 -0.2441  1.9902
16230TIP3    H270106   6.522   2.724  12.467  1.6218  0.1577  1.5631
16231TIP3   OH270107   3.988   5.443  11.114  0.3684  0.2183 -0.9325
16231TIP3    H170108   4.060   5.410  11.060  0.3631  1.0770 -1.4733
16231TIP3    H270109   3.998   5.538  11.113 -0.5328  0.3259 -0.6738
16232TIP3   OH270110   2.728   0.541  16.920  0.7497 -0.4510  0.0417
16232TIP3    H170111   2.653   0.484  16.904  1.9524 -1.2304 -3.2609
16232TIP3    H270112   2.693   0.630  16.910 -0.3047 -0.7155  1.3246
16233TIP3   OH270113   5.843   3.386  14.912 -0.5425 -0.2578  0.2916
16233TIP3    H170114   5.836   3.367  14.818 -0.4123  0.6169  0.0972
16233TIP3    H270115   5.931   3.422  14.922 -0.6156 -0.1971  0.7227
16234TIP3   OH270116   1.751   4.442  14.652  0.3349  0.1358 -0.0762
16234TIP3    H170117   1.736   4.371  14.715  2.1212  0.5625  0.8701
16234TIP3    H270118   1.665   4.458  14.612 -0.7332 -0.4472  1.9302
16235TIP3   OH270119   3.065   5.093  15.270 -0.0706  0.3943  0.5164
16235TIP3    H170120   3.074   5.000  15.288  1.8340  0.3135 -0.8007
16235TIP3    H270121   2.975   5.114  15.298 -1.6374 -2.4960 -2.0551
16236TIP3   OH270122   6.313   0.346  12.967 -0.1092  0.0979  0.2219
16236TIP3    H170123   6.379   0.279  12.952 -1.3105 -0.6593 -1.9906
16236TIP3    H270124   6.317   0.364  13.060  2.8756 -0.2802  0.2109
16237TIP3   OH270125   1.892   1.354   3.091 -0.7486  0.4803 -0.3576
16237TIP3    H170126   1.904   1.354   3.186  0.2173  2.8174 -0.4453
16237TIP3    H270127   1.960   1.296   3.058  0.5590  1.6835  0.2110
16238TIP3   OH270128   1.707   3.113  14.821  0.2511  0.5085  0.2415
16238TIP3    H170129   1.659   3.189  14.855  0.2995  1.0655 -0.9127
16238TIP3    H270130   1.697   3.119  14.726  1.9067  0.1686  0.0278
16239TIP3   OH270131   6.326   6.144  11.768  0.2935 -0.0551 -0.2270
16239TIP3    H170132   6.366   6.221  11.810 -0.2986  0.3580 -0.4019
16239TIP3    H270133   6.396   6.079  11.764  0.9782  0.7009 -0.6456
16240TIP3   OH270134   0.348   4.395  13.760  0.1654 -0.0981 -0.8580
16240TIP3    H170135   0.440   4.418  13.763  0.1348  0.1241 -1.3920
16240TIP3    H270136   0.304   4.464  13.809  0.4204 -1.0116  0.6720
16241TIP3   OH270137   4.837   3.152  10.871 -0.5061  0.2760  0.0740
16241TIP3    H170138   4.909   3.141  10.933  0.7959  0.1144 -1.4190
16241TIP3    H270139   4.758   3.146  10.924  0.4788 -2.8382  1.3050
16242TIP3   OH270140   4.705   0.904   1.845 -0.6940  0.1349 -0.1727
16242TIP3    H170141   4.623   0.954   1.847 -1.3358 -0.9742  2.7448
16242TIP3    H270142   4.703   0.851   1.924  3.2263  0.6560  0.3559
16243TIP3   OH270143   6.554   1.627   5.226 -0.1403 -0.3180 -0.0235
16243TIP3    H170144   6.618   1.611   5.295  0.8321  1.0371 -0.5808
16243TIP3    H270145   6.471   1.596   5.262  0.1967  1.1748  2.1052
16244TIP3   OH270146   6.013   1.099   4.874 -0.1666 -0.8255 -0.6443
16244TIP3    H170147   6.043   1.081   4.785  0.2905 -0.7975 -0.4982
16244TIP3    H270148   6.045   1.024   4.926 -1.1958 -1.2877 -0.6669
16245TIP3   OH270149   0.680   1.240   0.801 -0.0864 -0.2108  0.2519
16245TIP3    H170150   0.730   1.253   0.881  0.7801 -0.7579 -0.1835
16245TIP3    H270151   0.710   1.155   0.768 -1.9934 -0.9879  0.4687
16246TIP3   OH270152   5.097   0.100  15.994 -0.0252 -0.4701 -0.0521
16246TIP3    H170153   5.186   0.095  15.960 -0.0180 -1.2198  0.0683
16246TIP3    H270154   5.107   0.129  16.085 -0.0366  1.4016 -0.6226
16247TIP3   OH270155   5.236   1.392  14.836 -0.3989 -0.2736 -0.8568
16247TIP3    H170156   5.295   1.365  14.766  1.9974  1.1846  0.5381
16247TIP3    H270157   5.196   1.473  14.804 -0.1112 -0.1806 -0.9828
16248TIP3   OH270158   2.231   6.323   3.366 -0.2773  0.0784 -0.4285
16248TIP3    H170159   2.191   6.246   3.404  0.6006 -0.2145 -0.0765
16248TIP3    H270160   2.265   6.293   3.282 -1.5493  0.5384 -1.1232
16249TIP3   OH270161   2.000   1.456   1.993  0.3134 -0.1770 -0.4965
16249TIP3    H170162   2.035   1.541   1.965 -0.8849 -0.0093 -1.5316
16249TIP3    H270163   2.028   1.395   1.925 -0.7229 -0.1892 -0.9184
16250TIP3   OH270164   1.288   3.959   0.004 -0.2881  0.2385 -0.4677
16250TIP3    H170165   1.308   3.896  -0.065  0.2886  0.6230 -0.6611
16250TIP3    H270166   1.277   3.906   0.083  0.6492 -0.0623 -0.5355
16251TIP3   OH270167   5.384   2.044  12.105  0.1106 -0.1799  0.1022
16251TIP3    H170168   5.367   1.963  12.154  0.0048  0.1817  0.6631
16251TIP3    H270169   5.379   2.113  12.170 -0.6117  0.3699 -0.5173
16252TIP3   OH270170   5.345   3.727  11.747 -0.8370  0.1208 -0.3463
16252TIP3    H170171   5.436   3.723  11.774 -0.4111 -0.8562 -1.8714
16252TIP3    H270172   5.296   3.730  11.829  0.5282 -0.1897  0.4959
16253TIP3   OH270173   3.834   5.483   4.006 -0.0860 -0.7148 -0.2551
16253TIP3    H170174   3.817   5.496   3.913 -1.4740  2.8303  0.4219
16253TIP3    H270175   3.793   5.399   4.026  0.0407 -1.4338 -2.7676
16254TIP3   OH270176   0.750   1.615   3.900  0.2952  0.1906  0.3355
16254TIP3    H170177   0.845   1.612   3.913  0.0602 -0.4538  2.1674
16254TIP3    H270178   0.739   1.635   3.808  2.2135  1.9841  0.4432
16255TIP3   OH270179   6.121   6.331   3.028 -0.0904  0.1236 -0.5059
16255TIP3    H170180   6.164   6.245   3.028 -0.9870 -0.4364  3.3764
16255TIP3    H270181   6.190   6.393   3.051  0.2829  0.2713 -2.0194
16256TIP3   OH270182   5.837   2.841  16.903  0.0930  0.1850 -0.7174
16256TIP3    H170183   5.789   2.763  16.875 -1.4945  1.4264 -1.5329
16256TIP3    H270184   5.800   2.863  16.988  1.9414 -1.0833  0.4659
16257TIP3   OH270185   3.806   4.163  15.645 -0.3255 -0.0327 -0.1484
16257TIP3    H170186   3.823   4.073  15.671 -1.0584 -0.0913  0.1286
16257TIP3    H270187   3.715   4.180  15.671 -0.1682  0.8119 -0.1083
16258TIP3   OH270188   1.303   2.468   2.036  0.0382  1.4328 -0.4372
16258TIP3    H170189   1.213   2.466   2.069  0.5820  0.6613  1.0319
16258TIP3    H270190   1.331   2.558   2.051 -0.4245  1.6256 -0.7176
16259TIP3   OH270191   0.622   1.316   5.571 -0.4170 -0.6360  0.1929
16259TIP3    H170192   0.641   1.291   5.661  0.3106 -0.5973  0.0526
16259TIP3    H270193   0.530   1.291   5.558 -0.0561 -2.1335  0.4355
16260TIP3   OH270194   0.314   0.444  11.030  0.3094 -0.4903 -0.1865
16260TIP3    H170195   0.404   0.477  11.024  0.2810  0.2494  2.6746
16260TIP3    H270196   0.288   0.462  11.120 -2.3894 -1.5789 -0.7007
16261TIP3   OH270197   6.117   4.890   4.193  0.1894 -0.5565 -0.1503
16261TIP3    H170198   6.178   4.961   4.211  0.2045 -1.4476  3.7170
16261TIP3    H270199   6.159   4.812   4.229 -1.5541 -1.8659 -0.8711
16262TIP3   OH270200   4.418   3.879   3.511  0.4987 -0.2576 -0.5199
16262TIP3    H170201   4.380   3.792   3.500  1.1593 -0.2870 -2.6005
16262TIP3    H270202   4.505   3.863   3.548  0.2784 -0.4115 -0.0564
16263TIP3   OH270203   1.004   3.896  16.000  0.5713 -0.3684  0.1190
16263TIP3    H170204   0.933   3.882  16.062  0.8111 -2.0486  0.0228
16263TIP3    H270205   1.084   3.890  16.052  0.6692  1.5397  0.2330
16264TIP3   OH270206   3.789   3.778   4.934 -0.1153 -0.6652  0.1331
16264TIP3    H170207   3.766   3.688   4.910 -1.1336 -0.1395 -0.9068
16264TIP3    H270208   3.819   3.817   4.852  0.8718 -0.2140  0.7028
16265TIP3   OH270209   0.451   1.803  11.675 -0.3435 -0.1587  0.3626
16265TIP3    H170210   0.500   1.815  11.594 -2.0908 -1.2500 -0.8890
16265TIP3    H270211   0.420   1.712  11.671 -1.7115  0.2366  1.5458
16266TIP3   OH270212   5.184   3.193  17.120 -0.2149 -0.0153  0.3056
16266TIP3    H170213   5.174   3.117  17.063 -1.2665 -0.0817  0.5814
16266TIP3    H270214   5.215   3.156  17.203 -1.0247 -0.1691  0.5372
16267TIP3   OH270215   2.940   4.797  16.641  0.1574 -0.1079  0.1157
16267TIP3    H170216   3.004   4.742  16.686  0.8831  1.1342  0.6338
16267TIP3    H270217   2.956   4.885  16.674 -1.0167  0.4204 -0.6647
16268TIP3   OH270218   6.202   2.665  14.579 -0.2591  0.0328  0.8470
16268TIP3    H170219   6.231   2.726  14.646 -0.8980  0.0207  1.1386
16268TIP3    H270220   6.273   2.663  14.516 -0.8912  2.2783  0.0248
16269TIP3   OH270221   1.681   6.490  14.197 -0.2106  0.4567 -0.2579
16269TIP3    H170222   1.625   6.482  14.119  0.5603  0.4228 -0.8087
16269TIP3    H270223   1.647   6.423  14.257 -0.0407 -0.3384 -1.0383
16270TIP3   OH270224   0.627   6.480   4.868  0.6345 -0.0931 -0.3665
16270TIP3    H170225   0.714   6.512   4.891  0.1225  0.8311  0.3417
16270TIP3    H270226   0.606   6.525   4.785 -1.9349  5.1292  2.8474
16271TIP3   OH270227   0.259   1.802   0.467 -0.0829 -0.7296  0.0227
16271TIP3    H170228   0.261   1.849   0.384 -2.2892  1.7230  1.2921
16271TIP3    H270229   0.249   1.710   0.443 -1.0411 -0.0135 -2.4177
16272TIP3   OH270230   3.932   0.188  15.293 -0.4550  0.1056  0.9099
16272TIP3    H170231   3.898   0.237  15.217 -0.3152 -1.8464 -0.4342
16272TIP3    H270232   3.920   0.248  15.367 -1.0746  1.8469 -0.5650
16273TIP3   OH270233   0.496   2.755  11.285  0.7300 -0.0055 -0.3990
16273TIP3    H170234   0.543   2.754  11.202  3.1810 -0.2790  0.9487
16273TIP3    H270235   0.564   2.759  11.352 -1.1928  0.4899  1.6140
16274TIP3   OH270236   1.486   4.548   3.260 -0.2230 -0.1126  0.2079
16274TIP3    H170237   1.403   4.526   3.217 -0.2471  0.2035  0.0932
16274TIP3    H270238   1.474   4.637   3.293 -0.2257 -0.3713  0.9246
16275TIP3   OH270239   4.773   3.191  15.260 -0.1171 -0.4301 -0.2810
16275TIP3    H170240   4.863   3.221  15.244 -0.3670  1.3254  1.3141
16275TIP3    H270241   4.728   3.205  15.177  0.9168 -0.6073 -0.8757
16276TIP3   OH270242   1.029   3.545  15.098 -0.3017  0.0119  0.1496
16276TIP3    H170243   0.968   3.481  15.062  2.5353 -1.9931 -1.3711
16276TIP3    H270244   1.106   3.539  15.041  0.8431  3.3752  1.1764
16277TIP3   OH270245   5.781   4.901   3.126  0.0149  0.1822 -0.1485
16277TIP3    H170246   5.691   4.929   3.110 -1.0646 -1.9760  1.8259
16277TIP3    H270247   5.826   4.980   3.156 -0.9681  1.4740 -1.9661
16278TIP3   OH270248   5.469   0.458  14.156  0.5816 -0.5246  0.5179
16278TIP3    H170249   5.402   0.525  14.167  0.2358 -1.0279  1.5263
16278TIP3    H270250   5.435   0.402  14.086 -0.0433 -0.7537  0.9950
16279TIP3   OH270251   3.388   4.683  12.601 -0.4515  0.1861  0.0056
16279TIP3    H170252   3.409   4.699  12.509  2.9452 -0.1195  0.6629
16279TIP3    H270253   3.351   4.766  12.632 -2.0845  0.1307 -1.7211
16280TIP3   OH270254   4.179   4.850  14.984 -0.0493 -0.3268 -0.2168
16280TIP3    H170255   4.132   4.819  15.061  1.6902  0.4693  1.2199
16280TIP3    H270256   4.111   4.888  14.928 -1.1980  0.2532  1.5215
16281TIP3   OH270257   2.102   2.669  14.064  0.2921 -0.0958  0.0201
16281TIP3    H170258   2.147   2.589  14.091 -0.7445 -1.4691 -2.2253
16281TIP3    H270259   2.123   2.733  14.133  1.0992 -2.2903  1.8490
16282TIP3   OH270260   2.946   5.505   2.120 -0.4065 -0.8429  0.0990
16282TIP3    H170261   3.041   5.496   2.124 -0.2362  0.5078 -0.6921
16282TIP3    H270262   2.923   5.552   2.200 -0.1729  0.6348 -0.6875
16283TIP3   OH270263   2.880   3.895  13.894 -0.2947  0.1845  0.1627
16283TIP3    H170264   2.883   3.934  13.982 -0.1941 -1.8770  1.1176
16283TIP3    H270265   2.933   3.815  13.902 -0.7145 -0.2951 -1.6472
16284TIP3   OH270266   3.412   6.785  11.863  0.4376 -0.2198 -0.2683
16284TIP3    H170267   3.377   6.779  11.774  0.4320  0.9718 -0.3537
16284TIP3    H270268   3.502   6.814  11.851  0.1437  0.8716  0.1620
16285TIP3   OH270269   2.228   5.226   3.639 -0.2175 -0.0733 -0.3887
16285TIP3    H170270   2.238   5.141   3.682 -0.6816  1.1018  2.0931
16285TIP3    H270271   2.318   5.255   3.624 -0.0552 -0.8486 -0.9859
16286TIP3   OH270272   4.981   1.519   0.695 -0.1247  0.6347 -0.7010
16286TIP3    H170273   4.935   1.556   0.619  1.3196 -1.0808 -2.4492
16286TIP3    H270274   5.059   1.574   0.704  0.7843 -0.4406 -1.8038
16287TIP3   OH270275   6.116   4.208   3.097 -0.2248  0.2607  0.3803
16287TIP3    H170276   6.172   4.272   3.141  2.1775 -0.2315 -1.8203
16287TIP3    H270277   6.130   4.127   3.145  1.1991  0.0832 -0.3028
16288TIP3   OH270278   2.238   3.885   1.662 -0.1713 -0.8780 -0.1124
16288TIP3    H170279   2.310   3.822   1.669  0.0502 -0.5413  0.7604
16288TIP3    H270280   2.211   3.882   1.571  2.8726  1.1014 -1.1425
16289TIP3   OH270281   4.243   3.699   1.022 -0.9855  0.5249 -0.1476
16289TIP3    H170282   4.200   3.763   1.078  0.0310  0.4367  0.7623
16289TIP3    H270283   4.176   3.671   0.960 -1.8984  1.2198  0.5213
16290TIP3   OH270284   5.486   6.629   0.362  0.0254 -0.0367 -0.3189
16290TIP3    H170285   5.513   6.564   0.427  2.1491  1.1433  0.0450
16290TIP3    H270286   5.530   6.604   0.282  1.1177  1.1084 -0.0938
16291TIP3   OH270287   1.929   2.137  15.147 -0.0067  0.3472 -0.4229
16291TIP3    H170288   1.905   2.098  15.231 -1.9771 -2.0533 -2.0121
16291TIP3    H270289   1.845   2.149  15.102  0.9068  2.8912 -1.5167
16292TIP3   OH270290   5.385   1.938  16.359  0.0179 -0.0344  0.8198
16292TIP3    H170291   5.413   2.012  16.413 -0.0926 -0.3400  1.3058
16292TIP3    H270292   5.303   1.967  16.320 -0.2814 -0.0810  1.4025
16293TIP3   OH270293   1.103   2.904  15.707  0.1453 -0.2386 -0.2200
16293TIP3    H170294   1.085   2.900  15.801 -1.6638 -0.9158 -0.5792
16293TIP3    H270295   1.110   2.998  15.689  0.3342 -0.0954  0.5682
16294TIP3   OH270296   5.158   4.591   3.846  0.1400 -0.0402 -0.0093
16294TIP3    H170297   5.176   4.518   3.787 -1.4063  0.3747 -1.0222
16294TIP3    H270298   5.219   4.579   3.919  0.0563 -2.2017 -0.2805
16295TIP3   OH270299   4.888   0.987   1.422  0.2513 -0.1510  0.1457
16295TIP3    H170300   4.976   0.981   1.459  1.4975  0.4893 -2.5592
16295TIP3    H270301   4.902   1.015   1.332 -2.6789 -1.0354 -0.6468
16296TIP3   OH270302   4.129   1.685   1.622  0.2540  0.6222 -0.3121
16296TIP3    H170303   4.153   1.626   1.551 -1.0572 -0.0984 -0.1605
16296TIP3    H270304   4.212   1.704   1.666  0.8405 -0.1950 -1.0530
16297TIP3   OH270305   2.924   5.349   5.754 -0.2659  0.5710 -0.2828
16297TIP3    H170306   2.954   5.437   5.778  1.1275  0.3052 -0.9554
16297TIP3    H270307   2.954   5.293   5.825 -0.0589  0.4649 -0.4503
16298TIP3   OH270308   3.913   6.560  15.792  0.1592 -0.4377 -0.2720
16298TIP3    H170309   3.957   6.601  15.718 -0.4576 -0.2280 -0.5235
16298TIP3    H270310   3.886   6.633  15.847  1.9105 -0.6476  0.9061
16299TIP3   OH270311   1.018   3.639   2.142  0.0391 -0.3372 -0.4096
16299TIP3    H170312   0.927   3.610   2.148  0.2576 -0.7087  1.4021
16299TIP3    H270313   1.042   3.661   2.231  1.8975 -0.7321 -0.7899
16300TIP3   OH270314   6.178   4.159   5.664  0.7329 -0.3931 -0.6184
16300TIP3    H170315   6.158   4.152   5.757  1.2963 -0.8663 -0.5310
16300TIP3    H270316   6.159   4.250   5.642  1.1241 -0.1354  0.0895
16301TIP3   OH270317   5.425   2.715  15.752 -0.4232 -0.1794  0.1364
16301TIP3    H170318   5.364   2.774  15.797  0.0727  0.7575 -0.4142
16301TIP3    H270319   5.440   2.756  15.667  0.9592 -0.4152  0.2539
16302TIP3   OH270320   2.311   3.625   4.912 -0.6871 -0.7559  0.0704
16302TIP3    H170321   2.344   3.537   4.894 -0.5670 -0.5074 -0.9785
16302TIP3    H270322   2.263   3.649   4.833 -0.2224  0.3402  0.1097
16303TIP3   OH270323   6.273   6.046   1.295  0.0798 -0.2079 -0.0035
16303TIP3    H170324   6.184   6.081   1.298 -0.1618 -0.9174  1.7308
16303TIP3    H270325   6.265   5.957   1.327  1.3466 -0.4708 -0.3680
16304TIP3   OH270326   1.075   5.555   5.135 -0.0045  0.5209  0.2552
16304TIP3    H170327   1.119   5.601   5.063  0.3721 -1.2746 -0.7046
16304TIP3    H270328   1.107   5.598   5.214  0.8767  1.4449 -0.5809
16305TIP3   OH270329   3.599   3.841  15.033  0.1915 -0.2144  0.3769
16305TIP3    H170330   3.673   3.901  15.048  1.2719 -1.5946  0.7193
16305TIP3    H270331   3.628   3.786  14.960 -0.0249 -1.5004  1.2349
16306TIP3   OH270332   5.080   1.346  15.145 -0.4362 -0.1468  0.0365
16306TIP3    H170333   5.164   1.392  15.136 -0.6419  0.5783  1.4861
16306TIP3    H270334   5.015   1.415  15.136 -0.9033 -0.8042 -1.6463
16307TIP3   OH270335   0.616   0.523  15.369  0.3534  0.0847  0.6084
16307TIP3    H170336   0.688   0.465  15.394 -0.4618 -0.3881  1.8716
16307TIP3    H270337   0.542   0.494  15.422 -0.5756  1.0580 -0.1394
16308TIP3   OH270338   3.743   2.044  13.766  0.0609 -0.6862 -0.1303
16308TIP3    H170339   3.701   2.007  13.689  2.0719 -3.4732  0.0684
16308TIP3    H270340   3.697   2.005  13.840  0.6610 -1.0265  0.0711
16309TIP3   OH270341   0.431   3.743   2.731 -0.3542  0.0603 -0.2433
16309TIP3    H170342   0.388   3.816   2.774 -0.1976 -1.0343  1.8163
16309TIP3    H270343   0.524   3.758   2.747 -0.3637 -0.9537  0.7940
16310TIP3   OH270344   2.573   3.534  11.510 -0.4442  0.1492  0.1659
16310TIP3    H170345   2.515   3.477  11.459 -1.8202  0.6099  1.1856
16310TIP3    H270346   2.636   3.474  11.549 -0.3474 -0.3852 -0.7747
16311TIP3   OH270347   6.359   1.259  13.607 -0.2571  0.0675 -0.1712
16311TIP3    H170348   6.401   1.192  13.661 -1.3513 -0.5606 -0.1029
16311TIP3    H270349   6.273   1.272  13.646 -1.2970 -0.8461 -2.1137
16312TIP3   OH270350   4.648   5.836  13.437 -0.1004 -0.1937  0.3461
16312TIP3    H170351   4.598   5.763  13.473 -1.6737 -0.2336 -1.8337
16312TIP3    H270352   4.624   5.911  13.491  0.6939 -1.0477  1.9163
16313TIP3   OH270353   3.976   5.166  12.693 -0.1814  0.4400 -0.0942
16313TIP3    H170354   4.052   5.213  12.725 -0.5795  0.8475  0.2728
16313TIP3    H270355   3.973   5.186  12.599 -0.5360  1.4227  0.1185
16314TIP3   OH270356   5.342   0.328  12.000 -0.2786  0.4571  0.2023
16314TIP3    H170357   5.388   0.329  11.916 -0.9830 -2.1302 -0.2468
16314TIP3    H270358   5.340   0.420  12.027  2.8854  0.9560 -0.9896
16315TIP3   OH270359   1.178   6.427   4.922  0.5118  0.5300 -0.4719
16315TIP3    H170360   1.181   6.493   4.991 -1.7195  0.7360 -0.5525
16315TIP3    H270361   1.268   6.394   4.918  1.3479  2.5291  0.5539
16316TIP3   OH270362   1.477   6.635   2.945  0.0372 -0.2903 -0.0892
16316TIP3    H170363   1.550   6.597   2.994  0.8716  2.1933  0.6835
16316TIP3    H270364   1.519   6.682   2.873 -0.9043  0.0307 -0.4355
16317TIP3   OH270365   4.853   4.682   3.324 -0.0591 -0.2112 -0.3534
16317TIP3    H170366   4.851   4.622   3.399 -0.2973 -1.2384 -1.1711
16317TIP3    H270367   4.763   4.716   3.319  0.3027  0.9413  0.6745
16318TIP3   OH270368   6.362   0.287   6.034  0.7306 -0.1774 -0.2127
16318TIP3    H170369   6.305   0.337   5.974  0.2497 -0.3574  0.0889
16318TIP3    H270370   6.409   0.354   6.083 -0.2630 -0.0096  0.5213
16319TIP3   OH270371   2.865   6.290  11.934 -0.6956  0.1399 -1.1670
16319TIP3    H170372   2.952   6.278  11.897  0.2975 -3.6479  2.1115
16319TIP3    H270373   2.809   6.231  11.884 -0.6065 -0.3115 -0.7346
16320TIP3   OH270374   5.717   4.766  14.810  0.1515  0.0061  0.1568
16320TIP3    H170375   5.799   4.722  14.830 -0.2821 -1.0343 -0.3071
16320TIP3    H270376   5.728   4.798  14.720  0.0163 -0.2253  0.0566
16321TIP3   OH270377   0.135   0.797   3.076 -0.5668 -0.4245  0.6225
16321TIP3    H170378   0.099   0.880   3.043 -1.2846 -1.0174 -0.1242
16321TIP3    H270379   0.228   0.801   3.053 -0.1903  0.9994  2.3039
16322TIP3   OH270380   0.546   6.084   0.295  0.6115  0.3070 -0.0247
16322TIP3    H170381   0.596   6.132   0.228  1.3624 -2.3670 -1.4389
16322TIP3    H270382   0.582   6.114   0.378  2.1766  0.9860 -0.9335
16323TIP3   OH270383   2.128   1.947   1.208  0.1352 -0.1656  0.4641
16323TIP3    H170384   2.110   2.024   1.263  2.0168  0.8692 -0.3390
16323TIP3    H270385   2.042   1.908   1.193 -0.8983  1.9653  0.6414
16324TIP3   OH270386   5.265   2.841  15.231 -0.2607 -0.6014  0.7863
16324TIP3    H170387   5.172   2.825  15.247 -0.3102  0.9874  2.1690
16324TIP3    H270388   5.303   2.852  15.318  1.3551 -1.8362  0.2793
16325TIP3   OH270389   1.079   5.541  12.831  0.2911  0.3757  0.0318
16325TIP3    H170390   1.025   5.600  12.885 -0.9127  0.2204 -0.9847
16325TIP3    H270391   1.075   5.580  12.743 -0.7284 -1.3392 -0.7072
16326TIP3   OH270392   5.967   5.125   3.248 -0.5827  0.5091  0.1711
16326TIP3    H170393   5.899   5.114   3.314  1.0688  0.7931  1.9545
16326TIP3    H270394   6.021   5.046   3.256  1.4654  1.9876  1.3837
16327TIP3   OH270395   4.371   1.348   5.327  0.3225  0.1671  0.1944
16327TIP3    H170396   4.311   1.275   5.344 -0.9999  1.5549  1.5965
16327TIP3    H270397   4.315   1.424   5.313  1.7297  1.5451  1.7654
16328TIP3   OH270398   6.503   3.205   1.759 -0.0455 -0.0970 -0.5573
16328TIP3    H170399   6.526   3.179   1.848 -1.2469 -0.7635 -0.4305
16328TIP3    H270400   6.570   3.163   1.704 -0.3223 -1.1306 -0.1086
16329TIP3   OH270401   4.810   0.579  15.277 -0.4178  0.6446 -0.0353
16329TIP3    H170402   4.774   0.653  15.326 -2.5504  0.0399 -0.6638
16329TIP3    H270403   4.817   0.611  15.187 -0.1982  0.4646 -0.0834
16330TIP3   OH270404   2.219   4.801  17.091  0.5292  0.2048  0.0909
16330TIP3    H170405   2.295   4.756  17.127  1.3468 -0.0380 -1.8959
16330TIP3    H270406   2.254   4.858  17.023 -1.0116  0.3854 -0.5828
16331TIP3   OH270407   0.460   3.550   0.050  0.2024  0.8306  0.3009
16331TIP3    H170408   0.438   3.481   0.114  0.8241  0.3211 -0.0247
16331TIP3    H270409   0.554   3.539   0.035  0.6111  2.6816  1.3461
16332TIP3   OH270410   2.253   6.245  11.220  0.1525 -0.7277 -0.0019
16332TIP3    H170411   2.235   6.268  11.128 -1.1666 -1.6966 -0.0006
16332TIP3    H270412   2.266   6.150  11.218  1.6425 -0.5361  0.5834
16333TIP3   OH270413   2.768   6.066  14.588  0.3796  0.0354  0.7948
16333TIP3    H170414   2.735   5.987  14.630  0.3863  0.4217  1.5364
16333TIP3    H270415   2.858   6.045  14.564 -0.2631 -0.9102 -0.9435
16334TIP3   OH270416   5.716   4.369   2.293  0.0177  0.4948  0.3327
16334TIP3    H170417   5.671   4.443   2.335 -0.0783  0.1413  0.8511
16334TIP3    H270418   5.804   4.372   2.329 -0.6425 -1.0592  2.1526
16335TIP3   OH270419   5.885   3.588  16.647  0.8754  0.0374 -0.3409
16335TIP3    H170420   5.843   3.505  16.626 -1.0884  1.1305 -0.9269
16335TIP3    H270421   5.874   3.598  16.742 -1.3479  0.8875 -0.6582
16336TIP3   OH270422   4.002   3.092  13.847  0.0519 -0.2417  0.1066
16336TIP3    H170423   4.015   3.047  13.931 -2.6716 -1.4464 -0.0636
16336TIP3    H270424   4.038   3.032  13.782  2.8801  1.0378  0.4251
16337TIP3   OH270425   2.536   1.983   2.453 -0.3197  0.5471  0.1819
16337TIP3    H170426   2.464   2.037   2.420 -0.4150 -0.0596 -0.6331
16337TIP3    H270427   2.493   1.906   2.490 -0.0811  0.0479 -0.5678
16338TIP3   OH270428   5.366   1.807   5.080  0.2948  0.2265  0.1071
16338TIP3    H170429   5.359   1.900   5.100  0.2232  0.4624 -0.9404
16338TIP3    H270430   5.427   1.803   5.007 -0.7985 -0.4023 -0.8009
16339TIP3   OH270431   4.457   1.239  13.149 -0.3974 -0.1309 -0.1482
16339TIP3    H170432   4.478   1.147  13.167  1.7484  0.0090 -1.7055
16339TIP3    H270433   4.420   1.272  13.232 -0.9182 -2.3065  0.5036
16340TIP3   OH270434   1.094   5.028  16.692  0.4066 -0.0050 -0.2336
16340TIP3    H170435   1.157   5.099  16.703  0.2064  0.1941 -0.3483
16340TIP3    H270436   1.026   5.046  16.757  0.4059 -0.1468 -0.1943
16341TIP3   OH270437   1.656   4.343   3.935  0.4068  0.4868  0.0080
16341TIP3    H170438   1.574   4.331   3.984  1.6889  0.5465  2.2331
16341TIP3    H270439   1.725   4.328   3.999  2.1581  1.9802 -1.4512
16342TIP3   OH270440   6.205   5.110  14.154 -0.2968  0.1280  0.3778
16342TIP3    H170441   6.245   5.168  14.220  1.1398 -1.5566  1.0080
16342TIP3    H270442   6.279   5.067  14.112 -1.2979 -0.0979 -1.1823
16343TIP3   OH270443   3.037   0.716   1.919 -0.4109  0.1303 -0.0413
16343TIP3    H170444   2.950   0.699   1.881 -0.8634  0.6522  0.7443
16343TIP3    H270445   3.073   0.628   1.934 -0.4827 -0.0880 -1.0764
16344TIP3   OH270446   1.133   2.430  13.000 -0.6362 -0.1526  0.7399
16344TIP3    H170447   1.062   2.387  12.953 -0.7637  1.3595 -0.4820
16344TIP3    H270448   1.211   2.410  12.949 -0.7413  1.2954 -0.0014
16345TIP3   OH270449   0.090   0.747  16.056  0.1910  0.2134  0.2688
16345TIP3    H170450   0.158   0.716  16.116 -2.8075 -3.3242  2.0802
16345TIP3    H270451   0.040   0.810  16.108 -0.4508 -0.4261  0.4438
16346TIP3   OH270452   1.622   0.537   1.074 -0.1488 -0.0923  0.3881
16346TIP3    H170453   1.528   0.524   1.062  0.0210  0.3325 -1.5690
16346TIP3    H270454   1.663   0.464   1.028  0.5108  1.1362 -1.0365
16347TIP3   OH270455   6.223   1.613  13.926 -0.0473  0.1409  0.0697
16347TIP3    H170456   6.293   1.644  13.868  0.8076  0.9535  1.4933
16347TIP3    H270457   6.204   1.688  13.983 -0.1990 -0.9125  1.4497
16348TIP3   OH270458   0.577   2.091  12.597  0.1767 -0.2858 -0.2589
16348TIP3    H170459   0.588   2.109  12.504  2.7277 -0.6791 -0.0523
16348TIP3    H270460   0.482   2.091  12.610 -0.2556 -1.2454 -3.0594
16349TIP3   OH270461   1.412   5.938   3.605 -0.6640  0.1879  0.6779
16349TIP3    H170462   1.395   5.866   3.665 -0.4487 -0.1009  0.3968
16349TIP3    H270463   1.385   6.016   3.652 -1.9002 -0.1796  0.5828
16350TIP3   OH270464   2.019   6.606  10.547 -0.3229  0.0807  0.9457
16350TIP3    H170465   2.055   6.686  10.508 -0.0514  0.5278  2.0931
16350TIP3    H270466   2.095   6.559  10.579 -0.4294 -0.9738 -0.3312
16351TIP3   OH270467   5.804   5.837   4.800 -0.1266  0.0257  0.1953
16351TIP3    H170468   5.766   5.821   4.886  0.7576 -3.1208  0.0544
16351TIP3    H270469   5.746   5.903   4.760 -2.2791 -0.6952  2.0271
16352TIP3   OH270470   5.764   5.323  15.712 -0.6148 -0.1845  0.0322
16352TIP3    H170471   5.795   5.277  15.634 -0.8210  1.6793 -1.1878
16352TIP3    H270472   5.669   5.328  15.701 -0.4307  2.1153 -0.7871
16353TIP3   OH270473   3.124   3.968  11.045  0.2819 -0.0930 -0.3119
16353TIP3    H170474   3.210   3.973  11.004  0.0512  2.1064 -0.5854
16353TIP3    H270475   3.122   3.881  11.086  2.4334 -0.3472 -0.6819
16354TIP3   OH270476   3.967   2.620  11.849 -0.0602 -0.0184 -0.2952
16354TIP3    H170477   3.905   2.605  11.920  2.9852 -2.9504  1.9323
16354TIP3    H270478   3.947   2.552  11.784  0.0559 -0.2097 -0.1310
16355TIP3   OH270479   5.182   1.757   6.736 -0.3236 -0.0859  0.3376
16355TIP3    H170480   5.269   1.786   6.708 -1.3672  1.6637 -1.1202
16355TIP3    H270481   5.168   1.801   6.820 -0.8188  1.5615 -0.6080
16356TIP3   OH270482   1.095   0.722  13.571  0.0191  0.3769  0.5742
16356TIP3    H170483   1.113   0.791  13.508  2.1075  0.3065  1.0524
16356TIP3    H270484   1.169   0.725  13.632  0.5149 -2.7413  0.1881
16357TIP3   OH270485   2.507   0.739  16.256  0.0635  0.0370  0.2397
16357TIP3    H170486   2.580   0.703  16.207 -0.3076 -1.1036  0.5142
16357TIP3    H270487   2.438   0.673  16.249 -0.6120  0.6683  0.7933
16358TIP3   OH270488   5.277   1.037   5.589 -0.3758  0.2134  0.6092
16358TIP3    H170489   5.225   1.050   5.509  1.0738 -1.2905 -0.6278
16358TIP3    H270490   5.316   0.950   5.577  0.2075  0.1628  2.7806
16359TIP3   OH270491   2.157   1.654   2.280 -0.4287 -0.2853  0.0171
16359TIP3    H170492   2.089   1.716   2.253  1.2990  1.4639 -0.4215
16359TIP3    H270493   2.120   1.568   2.260 -2.1495  0.6741 -1.0410
16360TIP3   OH270494   4.453   1.744  17.078 -0.1553 -0.4921  0.1693
16360TIP3    H170495   4.519   1.773  17.014 -0.4708 -0.5061 -0.1602
16360TIP3    H270496   4.451   1.649  17.070 -1.4158 -0.3722 -0.9949
16361TIP3   OH270497   6.773   2.356   1.698 -0.2537  0.8444 -0.2526
16361TIP3    H170498   6.861   2.329   1.723 -0.0118  1.0417 -0.8952
16361TIP3    H270499   6.716   2.314   1.762  0.3663  1.3275  0.6353
16362TIP3   OH270500   3.308   6.769  10.817  0.0379  0.4563 -0.6763
16362TIP3    H170501   3.215   6.783  10.834  0.6144  1.5642  1.8970
16362TIP3    H270502   3.341   6.856  10.793  0.6929  0.3997 -0.0038
16363TIP3   OH270503   3.509   0.488   2.632  0.7970  0.3816 -0.1840
16363TIP3    H170504   3.577   0.428   2.663  1.3793  0.2882 -1.6134
16363TIP3    H270505   3.555   0.569   2.611  0.3808  0.5079 -0.6210
16364TIP3   OH270506   4.765   1.170  12.043 -0.3842  0.3154  0.4924
16364TIP3    H170507   4.694   1.120  12.083 -0.1872 -0.8361 -0.5636
16364TIP3    H270508   4.776   1.130  11.957  0.0557  1.9224 -0.2080
16365TIP3   OH270509   0.148   4.263   0.020 -0.3282 -0.3096  0.4480
16365TIP3    H170510   0.229   4.213   0.008 -0.0894 -0.0307  0.9266
16365TIP3    H270511   0.110   4.267  -0.068  0.3370 -0.1603  0.1648
16366TIP3   OH270512   0.589   0.739  16.705  0.1167 -0.2853 -0.1443
16366TIP3    H170513   0.501   0.727  16.668 -0.1046  1.6405 -0.3263
16366TIP3    H270514   0.580   0.815  16.763  1.5249 -0.4486  0.3030
16367TIP3   OH270515   5.245   2.770  11.284 -0.4436  0.0958  0.1590
16367TIP3    H170516   5.204   2.684  11.287  1.0177 -0.5483  1.8172
16367TIP3    H270517   5.177   2.830  11.314 -0.7535 -0.7427  1.1386
16368TIP3   OH270518   6.522   5.535   1.526  0.4984  0.4774 -0.1706
16368TIP3    H170519   6.590   5.572   1.582  1.6526 -0.7480 -0.7461
16368TIP3    H270520   6.519   5.442   1.549  1.1351 -0.0853 -2.2600
16369TIP3   OH270521   3.841   2.043   1.260 -0.0846  0.0191  0.0148
16369TIP3    H170522   3.756   2.069   1.295  0.9831  1.7974  1.4109
16369TIP3    H270523   3.899   2.117   1.280  1.4899 -0.5858 -2.0929
16370TIP3   OH270524   2.722   6.465  16.751  0.1408  0.1518  0.6096
16370TIP3    H170525   2.641   6.415  16.764 -0.6076  0.9384 -0.9373
16370TIP3    H270526   2.735   6.511  16.834  0.1706 -1.6446  1.6240
16371TIP3   OH270527   3.982   0.994  15.405 -0.4833  0.2419 -0.1356
16371TIP3    H170528   3.994   1.005  15.310  1.4943 -0.6324 -0.0085
16371TIP3    H270529   4.051   1.047  15.444 -2.2613  1.8796  0.8985
16372TIP3   OH270530   2.995   2.438  11.814 -0.2733  0.2932  0.4633
16372TIP3    H170531   2.944   2.413  11.737 -1.3407  0.8315  0.9864
16372TIP3    H270532   3.054   2.506  11.782 -0.7545  0.5569  0.1313
16373TIP3   OH270533   5.764   6.705  14.563 -0.2180  0.2925  0.0666
16373TIP3    H170534   5.789   6.723  14.473  0.3907  0.4509  0.2714
16373TIP3    H270535   5.732   6.614  14.561 -0.9804  0.5637 -0.4641
16374TIP3   OH270536   5.546   2.707  13.080 -0.1483 -0.2763 -0.2617
16374TIP3    H170537   5.454   2.704  13.106 -0.2355  1.0279 -0.3635
16374TIP3    H270538   5.572   2.615  13.073 -1.2945 -0.6576  0.2767
16375TIP3   OH270539   1.719   0.934   2.608  0.0634  0.2098 -0.5192
16375TIP3    H170540   1.626   0.934   2.634 -0.4459  1.3132 -2.2633
16375TIP3    H270541   1.763   0.981   2.678 -0.5395 -1.1063  0.7832
16376TIP3   OH270542   3.196   6.725  13.064  0.7510 -0.1329 -0.7587
16376TIP3    H170543   3.230   6.670  13.135  0.4697  0.4565 -0.1631
16376TIP3    H270544   3.135   6.669  13.016  1.0070 -0.5580 -0.5853
16377TIP3   OH270545   0.658   4.077  14.771  0.7667  0.2570 -0.0828
16377TIP3    H170546   0.682   4.072  14.863  2.1217  3.5417 -0.1992
16377TIP3    H270547   0.563   4.088  14.772  0.7432  0.0345  0.9132
16378TIP3   OH270548   0.814   1.291   4.157 -0.2933 -0.3761  0.1349
16378TIP3    H170549   0.839   1.374   4.198  0.0104 -1.1283  1.4750
16378TIP3    H270550   0.867   1.287   4.077 -1.0764  1.2135 -0.4872
16379TIP3   OH270551   5.598   0.266   5.352  0.1896 -0.1412  0.0294
16379TIP3    H170552   5.520   0.219   5.380  0.1150 -0.7344 -1.1544
16379TIP3    H270553   5.637   0.299   5.434 -1.6852  0.7990  0.5586
16380TIP3   OH270554   0.450   1.123  11.508  0.1899  0.0687  0.0513
16380TIP3    H170555   0.499   1.094  11.431  1.9939  0.2935  1.0833
16380TIP3    H270556   0.360   1.131  11.478  0.5690 -1.5829 -1.5720
16381TIP3   OH270557   6.150   5.285  13.047  0.0583 -0.5173  0.7119
16381TIP3    H170558   6.134   5.297  13.141  0.6359 -1.4001  0.9321
16381TIP3    H270559   6.155   5.374  13.012  0.4149 -0.1657  1.6224
16382TIP3   OH270560   3.374   0.108   4.937  0.5999  0.3974  0.6351
16382TIP3    H170561   3.398   0.063   4.856 -0.4490 -0.6759  0.9210
16382TIP3    H270562   3.306   0.169   4.910  2.1235  1.9745  0.2195
16383TIP3   OH270563   0.216   2.747   6.185 -0.3041 -0.2162 -0.4125
16383TIP3    H170564   0.295   2.800   6.177 -0.0447 -0.4373  0.6692
16383TIP3    H270565   0.160   2.796   6.246 -1.0198 -0.0392 -1.2001
16384TIP3   OH270566   5.126   0.152   0.820  0.0302  0.0421  0.0868
16384TIP3    H170567   5.058   0.090   0.795  1.7542 -1.4921 -0.9606
16384TIP3    H270568   5.208   0.106   0.800  1.4135  1.0843  3.0564
16385TIP3   OH270569   4.882   0.393   4.870  0.3701  0.1545  0.6871
16385TIP3    H170570   4.916   0.311   4.833  0.6867  1.4484 -2.0401
16385TIP3    H270571   4.795   0.371   4.902  0.3643 -1.2151 -0.2247
16386TIP3   OH270572   3.925   3.987  14.053  0.0775 -0.4718  0.1267
16386TIP3    H170573   4.015   4.000  14.082 -0.5395  1.5773  1.2088
16386TIP3    H270574   3.914   4.047  13.979 -0.3454 -0.8534 -0.1223
16387TIP3   OH270575   5.537   5.718  12.596 -0.0710 -0.1709 -0.2214
16387TIP3    H170576   5.574   5.641  12.553 -0.4884  0.1437 -1.1675
16387TIP3    H270577   5.607   5.751  12.651 -0.2925 -1.9666  1.1727
16388TIP3   OH270578   4.917   4.586   1.041 -0.1782 -0.2156  0.3413
16388TIP3    H170579   4.821   4.583   1.039 -0.2255 -0.5792  1.9303
16388TIP3    H270580   4.943   4.496   1.058  0.4539 -0.1355 -0.2027
16389TIP3   OH270581   1.735   4.933   6.226 -0.1229  0.0001  0.4445
16389TIP3    H170582   1.778   4.934   6.141  2.1287  0.5349  1.5595
16389TIP3    H270583   1.641   4.939   6.206  0.3804  0.0800 -1.9740
16390TIP3   OH270584   1.004   4.994  15.309  0.0690 -0.1418 -0.1526
16390TIP3    H170585   1.028   4.939  15.383 -1.8240 -1.3997 -0.4383
16390TIP3    H270586   1.087   5.010  15.263  1.5192  1.8953  3.0109
16391TIP3   OH270587   3.088   4.519   3.907  0.8084 -0.3032 -0.1759
16391TIP3    H170588   3.012   4.505   3.964  0.9801  0.6287  0.2894
16391TIP3    H270589   3.151   4.565   3.963  0.9325  0.7240 -1.1594
16392TIP3   OH270590   1.403   6.135   2.484 -0.6867 -0.1140 -0.2234
16392TIP3    H170591   1.413   6.206   2.548  0.1618  1.1220 -1.6952
16392TIP3    H270592   1.482   6.082   2.494 -1.1141 -0.6079  0.5723
16393TIP3   OH270593   2.099   2.059  13.073 -0.4025  0.0589 -0.3597
16393TIP3    H170594   2.157   2.115  13.022  1.3472 -0.3624  1.1018
16393TIP3    H270595   2.044   2.119  13.122  0.7910  0.5211  0.4400
16394TIP3   OH270596   5.614   2.903  16.286 -0.4814 -0.2306  0.0572
16394TIP3    H170597   5.694   2.853  16.270 -0.8108  0.0536 -2.5517
16394TIP3    H270598   5.551   2.838  16.316 -0.3113 -1.0560 -1.3555
16395TIP3   OH270599   4.402   0.509  15.318  0.1106 -0.4882 -0.1125
16395TIP3    H170600   4.366   0.474  15.400  0.7316  1.6190  1.1102
16395TIP3    H270601   4.487   0.466  15.308  0.3268 -0.2665  0.7278
16396TIP3   OH270602   2.628   1.499   3.946 -0.1151  1.3250 -0.7000
16396TIP3    H170603   2.622   1.580   3.996  1.8309  1.9042 -1.3471
16396TIP3    H270604   2.642   1.431   4.013 -0.9448  1.6237 -0.2155
16397TIP3   OH270605   6.593   2.537   2.056  0.4319  0.1307  1.1093
16397TIP3    H170606   6.566   2.611   2.111  2.0398  1.1185  0.6030
16397TIP3    H270607   6.657   2.490   2.108 -0.3642 -0.7354  1.3084
16398TIP3   OH270608   2.135   5.757   1.678 -0.7891  0.3259  0.7694
16398TIP3    H170609   2.152   5.719   1.592 -1.2540  0.3375  0.6729
16398TIP3    H270610   2.100   5.844   1.660  0.7512  1.0102  0.9936
16399TIP3   OH270611   0.890   2.256   5.569  0.4546  0.1456  0.4636
16399TIP3    H170612   0.961   2.301   5.616 -0.4151  1.3395  0.6729
16399TIP3    H270613   0.935   2.205   5.502  1.5865  0.0363  1.2767
16400TIP3   OH270614   2.305   2.770  15.466 -0.2119 -0.4912 -0.0775
16400TIP3    H170615   2.335   2.705  15.529 -0.9998 -1.2464 -0.4874
16400TIP3    H270616   2.386   2.809  15.431  0.2388 -0.6664  0.7598
16401TIP3   OH270617   0.556   1.183  10.769 -0.0595 -1.0826  0.1852
16401TIP3    H170618   0.551   1.256  10.707 -0.7765 -0.3068  1.1505
16401TIP3    H270619   0.642   1.143  10.751  1.0865  1.0160  0.7976
16402TIP3   OH270620   3.928   2.489   5.004 -0.0082 -0.0003  0.5849
16402TIP3    H170621   3.992   2.417   5.004 -1.1565 -1.0479  0.3183
16402TIP3    H270622   3.876   2.474   5.083 -1.2058 -0.3415 -0.2527
16403TIP3   OH270623   2.154   5.368   1.184 -0.9241  0.0321  0.3251
16403TIP3    H170624   2.093   5.371   1.257  0.5752  0.5472  1.5751
16403TIP3    H270625   2.189   5.278   1.185 -3.8916 -1.2297 -2.2859
16404TIP3   OH270626   2.215   6.360  10.992 -0.2185 -0.3312  0.1700
16404TIP3    H170627   2.144   6.382  10.931  0.6399 -3.3523 -2.0405
16404TIP3    H270628   2.284   6.424  10.972 -1.5092  1.3014  0.8732
16405TIP3   OH270629   5.409   6.160  14.282 -0.4113 -0.2524 -0.7571
16405TIP3    H170630   5.398   6.254  14.272 -0.2187 -0.1498 -0.0835
16405TIP3    H270631   5.401   6.145  14.376  1.2533 -0.6729 -0.6597
16406TIP3   OH270632   6.276   5.056   0.479  0.2488  0.3752 -0.7576
16406TIP3    H170633   6.300   5.119   0.411  1.1903  0.2358 -0.5609
16406TIP3    H270634   6.340   5.070   0.548  0.4644 -0.8089 -0.7089
16407TIP3   OH270635   5.023   4.605  11.130  0.7361 -0.0093 -0.0109
16407TIP3    H170636   5.057   4.522  11.096  0.5371  0.2307 -0.7952
16407TIP3    H270637   5.059   4.671  11.072 -1.2179  0.2419 -0.9837
16408TIP3   OH270638   4.826   4.542   6.344  0.5331  0.5335 -0.0504
16408TIP3    H170639   4.789   4.520   6.259  1.0117 -0.2609 -0.0569
16408TIP3    H270640   4.787   4.479   6.405 -0.6481  1.7884  0.5194
16409TIP3   OH270641   2.059   6.085  15.015 -0.9087 -0.2680  0.5477
16409TIP3    H170642   2.059   6.180  15.024 -3.1805 -0.1160 -0.6612
16409TIP3    H270643   2.050   6.053  15.105 -1.9394  0.7169  0.8078
16410TIP3   OH270644   2.228   1.969   6.530  0.0013  0.8409  0.5591
16410TIP3    H170645   2.312   2.002   6.563  0.0029  0.5700  0.8252
16410TIP3    H270646   2.199   1.905   6.596  0.9727 -1.1886 -0.9290
16411TIP3   OH270647   1.262   4.908   2.394  0.0495 -0.7078 -0.9253
16411TIP3    H170648   1.330   4.846   2.420 -0.7994 -1.7893 -1.2408
16411TIP3    H270649   1.308   4.975   2.344  1.1119 -0.6245  0.1672
16412TIP3   OH270650   5.971   6.057   3.738  0.2802 -0.3196  0.0330
16412TIP3    H170651   5.924   5.986   3.694 -1.9524 -0.0672  1.9034
16412TIP3    H270652   6.030   6.012   3.798  1.7149 -0.6171 -1.5398
16413TIP3   OH270653   2.182   5.995  10.681  0.0091 -0.1697  0.2891
16413TIP3    H170654   2.274   5.977  10.699  0.3949  1.9415  0.4795
16413TIP3    H270655   2.159   5.931  10.614  1.6977 -0.5162  0.0100
16414TIP3   OH270656   4.844   4.367   3.922  0.1180 -0.0713  0.0162
16414TIP3    H170657   4.912   4.361   3.855  0.0213 -2.5681  0.1177
16414TIP3    H270658   4.864   4.449   3.968  1.4502  0.5863 -1.6593
16415TIP3   OH270659   5.839   3.696  11.520 -0.0943  0.4726 -0.3063
16415TIP3    H170660   5.773   3.628  11.531 -0.2888  0.8090  0.6080
16415TIP3    H270661   5.912   3.669  11.576 -0.7182  1.7018  1.1295
16416TIP3   OH270662   1.918   1.690  11.264  0.1049  0.2062  0.6288
16416TIP3    H170663   1.825   1.700  11.283 -0.0313  0.5421 -0.1859
16416TIP3    H270664   1.925   1.705  11.170  0.2979 -4.3799 -0.2312
16417TIP3   OH270665   2.726   4.370  15.770  0.5210  0.1062  0.2380
16417TIP3    H170666   2.703   4.463  15.762  2.0346  0.3758 -1.1677
16417TIP3    H270667   2.682   4.341  15.850  0.4001  2.1443  0.9241
16418TIP3   OH270668   0.185   0.664   4.961 -0.3182  0.1451 -0.0252
16418TIP3    H170669   0.271   0.627   4.944 -1.0917 -1.2577 -0.9374
16418TIP3    H270670   0.203   0.739   5.018  1.7292  1.3666 -2.2109
16419TIP3   OH270671   4.606   5.196   1.482  0.1611 -0.1537  0.0026
16419TIP3    H170672   4.548   5.127   1.450 -0.3294  0.2754 -0.0368
16419TIP3    H270673   4.557   5.238   1.552  0.0507  0.7975 -0.6388
16420TIP3   OH270674   6.091   4.228   2.639  0.2287  0.4392 -0.3037
16420TIP3    H170675   6.017   4.257   2.587  1.9922 -0.4671 -3.4587
16420TIP3    H270676   6.141   4.308   2.658  0.8160  0.4993 -2.0535
16421TIP3   OH270677   2.236   2.934   2.956  0.0771  0.4156  0.0445
16421TIP3    H170678   2.263   3.007   2.901 -1.4244  0.9701  0.0341
16421TIP3    H270679   2.308   2.871   2.949  0.1931  0.7367 -2.0786
16422TIP3   OH270680   4.460   2.271   2.863  0.0159 -0.8588  0.2593
16422TIP3    H170681   4.540   2.263   2.915 -0.7627 -3.4943  1.1334
16422TIP3    H270682   4.491   2.267   2.772  0.9879 -0.8327  0.5845
16423TIP3   OH270683   4.333   2.319  13.721 -0.2038 -0.3651 -0.3816
16423TIP3    H170684   4.295   2.244  13.676 -1.0683 -0.5646  0.6488
16423TIP3    H270685   4.278   2.393  13.696 -0.1055 -0.3012 -0.4111
16424TIP3   OH270686   2.952   0.971   6.434 -0.0309 -0.5713  0.6947
16424TIP3    H170687   2.961   0.880   6.406 -0.7915 -0.8715  1.3918
16424TIP3    H270688   2.906   0.966   6.518 -1.0814  0.5129  0.2076
16425TIP3   OH270689   3.224   2.967  15.484 -0.6542  0.0086 -0.0577
16425TIP3    H170690   3.180   3.011  15.412 -0.8029 -0.4091 -0.2212
16425TIP3    H270691   3.290   2.911  15.442 -2.2670 -1.9902 -0.0231
16426TIP3   OH270692   4.288   2.088   2.938  0.3796 -0.2285 -0.5874
16426TIP3    H170693   4.250   2.051   2.859  1.5632 -0.1440 -1.2153
16426TIP3    H270694   4.339   2.163   2.907 -0.4451  0.7774  0.4466
16427TIP3   OH270695   0.672   6.400   5.662 -0.1606  0.0177 -0.5210
16427TIP3    H170696   0.602   6.453   5.623 -2.7959 -2.4877  0.6496
16427TIP3    H270697   0.691   6.333   5.596 -0.4529 -0.6594  0.0813
16428TIP3   OH270698   2.496   5.700   5.044  0.3517  0.3171 -0.0260
16428TIP3    H170699   2.434   5.747   5.101  2.0496  0.3925  1.8146
16428TIP3    H270700   2.573   5.758   5.041  1.2497 -0.8895 -0.3142
16429TIP3   OH270701   6.500   3.803  12.647  0.1087 -0.7583  0.1889
16429TIP3    H170702   6.566   3.746  12.689  0.5952 -1.7414 -1.8563
16429TIP3    H270703   6.551   3.863  12.593 -0.5558  0.0736  0.4821
16430TIP3   OH270704   6.229   4.126   4.637  0.7072  0.1844  0.2053
16430TIP3    H170705   6.221   4.065   4.710 -0.4255 -0.3408 -0.3480
16430TIP3    H270706   6.152   4.109   4.584  0.4063  2.0643  0.0229
16431TIP3   OH270707   1.331   0.127   2.796 -0.0281 -0.0091 -0.2775
16431TIP3    H170708   1.251   0.143   2.847  1.2023  0.9939  1.3762
16431TIP3    H270709   1.328   0.033   2.777 -1.5989  0.0194 -0.2120
16432TIP3   OH270710   6.105   2.416   3.673 -0.2188  0.0419 -0.3662
16432TIP3    H170711   6.152   2.335   3.655  1.3708  1.0167 -0.6933
16432TIP3    H270712   6.157   2.484   3.631 -0.0266  1.5747  2.2235
16433TIP3   OH270713   5.539   0.590   4.913 -0.3365 -0.8685  0.5057
16433TIP3    H170714   5.525   0.567   5.005  1.4184  1.5598  1.4416
16433TIP3    H270715   5.627   0.559   4.893  0.0024  0.2503  0.2141
16434TIP3   OH270716   4.279   0.893  16.860 -0.8969 -0.4222 -0.4572
16434TIP3    H170717   4.232   0.936  16.932 -2.3245 -0.9296 -1.0694
16434TIP3    H270718   4.335   0.828  16.904 -0.3854  0.5192  0.3150
16435TIP3   OH270719   1.994   2.239   4.485  0.5815  0.5325 -0.0202
16435TIP3    H170720   2.064   2.261   4.422  2.4478 -0.6540  1.5858
16435TIP3    H270721   1.958   2.157   4.452 -0.0922  1.1679 -0.8790
16436TIP3   OH270722   2.661   5.639   2.506  0.2607  0.0429 -0.1515
16436TIP3    H170723   2.751   5.671   2.510  0.0597  0.6966 -0.7151
16436TIP3    H270724   2.607   5.718   2.511 -0.3100 -0.4230  1.2026
16437TIP3   OH270725   3.972   6.422   0.008 -0.3142  0.4467  0.0613
16437TIP3    H170726   4.026   6.369  -0.050 -1.1311  0.0308 -0.3233
16437TIP3    H270727   3.983   6.382   0.095  1.6963  1.6667  0.4200
16438TIP3   OH270728   3.187   3.304   5.897  0.1299  0.1863 -0.3019
16438TIP3    H170729   3.187   3.400   5.894  1.3141  0.2171  0.3718
16438TIP3    H270730   3.186   3.283   5.991  1.0218 -0.4492 -0.4259
16439TIP3   OH270731   1.698   3.837   5.698 -0.0577 -0.7745 -0.4388
16439TIP3    H170732   1.606   3.830   5.674  0.0203 -0.3365 -0.8780
16439TIP3    H270733   1.701   3.907   5.764 -0.5210 -3.1968  2.2342
16440TIP3   OH270734   6.633   6.057  14.634  0.5219  0.2287  0.3057
16440TIP3    H170735   6.638   6.021  14.546 -0.8116  3.0591 -0.9609
16440TIP3    H270736   6.640   5.980  14.691  1.9315 -1.5875 -2.2096
16441TIP3   OH270737   1.654   4.922   0.995 -0.2120 -0.0491 -0.1418
16441TIP3    H170738   1.589   4.905   1.063 -0.4174  0.1079 -0.2974
16441TIP3    H270739   1.738   4.910   1.039 -0.3443 -2.6392 -0.5446
16442TIP3   OH270740   5.581   2.958   4.360  0.1740 -0.0666 -0.0941
16442TIP3    H170741   5.512   2.947   4.425  0.3358 -0.9665 -0.0760
16442TIP3    H270742   5.537   2.998   4.285 -1.5114 -5.1252 -2.0201
16443TIP3   OH270743   6.172   5.837  15.805 -0.0933 -0.1340 -0.0214
16443TIP3    H170744   6.229   5.787  15.864 -1.3165 -0.8892  0.5332
16443TIP3    H270745   6.165   5.923  15.846  0.4217 -0.1328  0.0640
16444TIP3   OH270746   1.451   2.355  16.320  0.4566 -0.0112 -0.1495
16444TIP3    H170747   1.460   2.450  16.316  3.0316 -0.2371 -0.6777
16444TIP3    H270748   1.409   2.331  16.237  0.4223  0.5980 -0.3095
16445TIP3   OH270749   0.670   2.420   5.567  0.1502 -0.4922 -0.5700
16445TIP3    H170750   0.730   2.352   5.537  0.7684 -0.0542 -0.3382
16445TIP3    H270751   0.630   2.382   5.646  0.9742 -0.3415 -0.0683
16446TIP3   OH270752   0.202   0.209  11.277  0.1970  0.0596  0.5952
16446TIP3    H170753   0.191   0.133  11.220 -2.2176  2.1080 -1.7879
16446TIP3    H270754   0.160   0.184  11.359  0.7165 -1.6716  0.3549
16447TIP3   OH270755   5.807   2.958   1.738 -0.4191  0.0426  0.9122
16447TIP3    H170756   5.794   2.890   1.805  1.2828  0.4905  1.7388
16447TIP3    H270757   5.896   2.943   1.706  0.6769  2.9308  2.3859
16448TIP3   OH270758   0.651   2.568   2.493 -0.0895 -0.3175 -0.1332
16448TIP3    H170759   0.625   2.587   2.583  0.8971 -3.3589  0.8587
16448TIP3    H270760   0.720   2.632   2.474  0.8616 -0.7016  1.8893
16449TIP3   OH270761   4.562   6.594   5.851  0.1921  0.5352  0.7257
16449TIP3    H170762   4.644   6.579   5.805 -0.6913  2.3764 -1.5568
16449TIP3    H270763   4.568   6.541   5.930  2.0094 -2.2108 -1.1988
16450TIP3   OH270764   0.578   1.884   1.195  0.0508  0.2040  0.8862
16450TIP3    H170765   0.505   1.878   1.133  0.3750  0.2481  0.4964
16450TIP3    H270766   0.654   1.854   1.145  0.4442  0.9376  1.0332
16451TIP3   OH270767   1.930   0.637  10.555 -0.1245  0.0210  0.8282
16451TIP3    H170768   1.868   0.581  10.508 -0.7099  0.4314  1.1049
16451TIP3    H270769   1.881   0.717  10.573  1.1467  1.1540 -0.7538
16452TIP3   OH270770   0.892   0.921  15.766 -0.1685  0.4428 -0.3061
16452TIP3    H170771   0.915   0.941  15.675 -3.3451 -1.3809 -1.5636
16452TIP3    H270772   0.873   0.827  15.766  0.1348  0.3381  2.3587
16453TIP3   OH270773   3.242   5.967  15.910  0.6993 -0.1437  0.2044
16453TIP3    H170774   3.314   5.907  15.888  1.5156  1.7498 -2.6175
16453TIP3    H270775   3.262   6.047  15.861 -2.2976  1.1447  0.9724
16454TIP3   OH270776   6.006   6.153  14.545  0.1299  0.0200  0.2107
16454TIP3    H170777   6.085   6.127  14.592 -0.1025  1.3931  1.3952
16454TIP3    H270778   5.981   6.237  14.584 -1.7902 -0.2950 -0.2800
16455TIP3   OH270779   2.224   5.165   4.991 -0.2382  0.1616  0.0292
16455TIP3    H170780   2.291   5.101   4.968 -0.1537  0.3241 -0.1744
16455TIP3    H270781   2.269   5.228   5.047  0.4569  1.7429 -2.2248
16456TIP3   OH270782   3.247   0.084  13.560  0.0165 -0.0542  0.0518
16456TIP3    H170783   3.185   0.056  13.628 -1.6231 -0.0235 -1.4077
16456TIP3    H270784   3.331   0.048  13.589 -1.1323 -2.3150  0.7572
16457TIP3   OH270785   3.089   4.891  10.940  0.0644 -0.2300  0.2055
16457TIP3    H170786   3.085   4.803  10.977 -1.2482  0.1755  1.0244
16457TIP3    H270787   3.088   4.950  11.016 -0.2716  0.5341 -0.3831
16458TIP3   OH270788   2.299   4.322   4.460  0.4866  0.0134  0.0717
16458TIP3    H170789   2.343   4.393   4.506 -1.5520  1.6403 -0.4240
16458TIP3    H270790   2.207   4.346   4.462 -0.1154 -2.1300 -0.9825
16459TIP3   OH270791   2.190   0.238  15.443  0.4821 -0.1342  0.2732
16459TIP3    H170792   2.246   0.175  15.399  1.0747  0.1715  0.5846
16459TIP3    H270793   2.120   0.185  15.482  1.0976 -0.6231  0.7227
16460TIP3   OH270794   5.006   1.039   2.268  0.2605 -0.0085 -0.1931
16460TIP3    H170795   4.924   1.085   2.245 -0.7447 -2.6288 -2.0732
16460TIP3    H270796   4.992   1.011   2.359 -0.6585  0.1332 -0.2781
16461TIP3   OH270797   0.568   6.695   2.394 -0.3098 -0.0589 -0.3725
16461TIP3    H170798   0.490   6.720   2.345 -1.6266 -1.4819  0.9497
16461TIP3    H270799   0.626   6.657   2.328 -0.6213  1.2150 -1.4008
16462TIP3   OH270800   2.689   5.023  13.924  0.0595  0.4178 -0.0044
16462TIP3    H170801   2.696   4.954  13.990 -1.0593 -0.9410 -1.2742
16462TIP3    H270802   2.779   5.039  13.896  0.6043  1.3675  2.1911
16463TIP3   OH270803   0.325   6.094  15.650 -0.1991  0.4052  0.2701
16463TIP3    H170804   0.245   6.115  15.603 -0.7239  0.9380  1.3886
16463TIP3    H270805   0.302   6.016  15.701  0.7461 -0.9397 -1.3112
16464TIP3   OH270806   4.202   3.813   2.614 -0.2517 -0.5151 -0.1289
16464TIP3    H170807   4.283   3.762   2.610 -0.0449 -0.0956 -1.5739
16464TIP3    H270808   4.145   3.773   2.549 -0.4371  0.4775 -0.5917
16465TIP3   OH270809   5.206   0.574  14.664  0.6323 -0.3813 -0.3042
16465TIP3    H170810   5.158   0.495  14.690  0.8184 -0.1999  0.6039
16465TIP3    H270811   5.298   0.554  14.684  0.6011  0.3125  0.5625
16466TIP3   OH270812   5.855   4.333   5.473  0.7190  0.7071  0.4352
16466TIP3    H170813   5.893   4.396   5.534  2.0770 -0.1207  0.4680
16466TIP3    H270814   5.800   4.277   5.529  1.8370  0.0473  0.8854
16467TIP3   OH270815   4.437   2.277   1.381  0.3039 -0.4466 -0.6565
16467TIP3    H170816   4.366   2.213   1.389  0.7269 -0.8305  0.0758
16467TIP3    H270817   4.412   2.331   1.306 -0.6751 -0.6885 -0.5125
16468TIP3   OH270818   6.251   4.494  14.896  0.2091  0.3376  0.1254
16468TIP3    H170819   6.227   4.527  14.809 -2.8726  0.0977  0.8321
16468TIP3    H270820   6.251   4.572  14.952 -0.4482  0.1167  0.4374
16469TIP3   OH270821   0.432   1.057   3.987  0.3968  0.6289 -0.1674
16469TIP3    H170822   0.345   1.040   3.952  0.1186  2.5214 -0.4380
16469TIP3    H270823   0.468   0.970   4.004 -1.0602 -0.2085 -1.2200
16470TIP3   OH270824   4.883   3.223  11.848 -0.3411 -0.0097  0.0473
16470TIP3    H170825   4.903   3.138  11.888 -0.8847 -1.3466 -2.3686
16470TIP3    H270826   4.790   3.219  11.828 -0.7104  1.8082  1.3297
16471TIP3   OH270827   3.797   4.198  10.933 -0.3839  0.1973 -0.2192
16471TIP3    H170828   3.732   4.132  10.953 -0.2009  0.0245 -0.1896
16471TIP3    H270829   3.861   4.154  10.876  0.1345  0.1275  0.4053
16472TIP3   OH270830   5.469   4.012   0.400 -0.6263  0.4929  0.1648
16472TIP3    H170831   5.502   4.012   0.490  1.2565  1.8622 -0.5048
16472TIP3    H270832   5.509   3.934   0.360  1.1317  1.6680 -0.3957
16473TIP3   OH270833   6.693   5.657  14.451  0.4421  0.0294 -0.0072
16473TIP3    H170834   6.734   5.612  14.377  0.8644  0.5391 -0.0911
16473TIP3    H270835   6.599   5.642  14.439  0.5221 -0.1054 -0.5075
16474TIP3   OH270836   6.605   5.455  15.468  0.1921 -0.7764  0.0058
16474TIP3    H170837   6.576   5.459  15.559 -2.5108  1.7046 -0.8795
16474TIP3    H270838   6.557   5.382  15.430  0.4017 -1.0404  0.2418
16475TIP3   OH270839   4.624   2.352  11.462 -0.7407 -0.5013  0.2146
16475TIP3    H170840   4.536   2.316  11.470 -0.5221 -1.4752 -1.5489
16475TIP3    H270841   4.681   2.275  11.454  0.1665  0.1417  0.3386
16476TIP3   OH270842   0.120   0.823  16.511 -0.0545  0.8312  0.3765
16476TIP3    H170843   0.159   0.910  16.513 -1.6746  1.5816  0.4690
16476TIP3    H270844   0.129   0.789  16.600  2.1791  0.1514 -0.0789
16477TIP3   OH270845   3.077   5.054  13.497  0.3039 -1.2277  0.2720
16477TIP3    H170846   3.045   5.144  13.505 -1.4087 -1.8018  0.1194
16477TIP3    H270847   2.997   5.000  13.499  1.3830 -2.8296  1.7324
16478TIP3   OH270848   5.632   1.031   3.971  0.6289  0.1520  0.0787
16478TIP3    H170849   5.652   1.115   4.012 -0.1760  0.0990  0.5756
16478TIP3    H270850   5.541   1.039   3.942  0.6671 -0.4158 -0.2016
16479TIP3   OH270851   5.333   3.107   3.389  0.1144  0.0148  0.4988
16479TIP3    H170852   5.342   3.195   3.426 -1.0695  0.6842 -0.7350
16479TIP3    H270853   5.263   3.116   3.325  2.1373 -1.0979 -1.9351
16480TIP3   OH270854   5.609   5.346   4.204 -0.5646 -0.0482 -0.3065
16480TIP3    H170855   5.561   5.359   4.122 -0.8353 -1.1652 -0.3304
16480TIP3    H270856   5.636   5.434   4.230 -0.8577  0.3616 -1.3646
16481TIP3   OH270857   3.332   0.181  13.982 -0.3160  0.0874 -0.3713
16481TIP3    H170858   3.305   0.256  14.034 -0.4345  0.2071 -0.6061
16481TIP3    H270859   3.307   0.105  14.035  0.1064  0.2165  0.0129
16482TIP3   OH270860   4.181   2.914   1.620 -0.1295 -0.5596  0.1306
16482TIP3    H170861   4.264   2.962   1.629  1.5439 -3.5487  1.0918
16482TIP3    H270862   4.146   2.910   1.709 -0.8814 -0.0831 -0.1382
16483TIP3   OH270863   0.348   4.842   4.414 -0.2837 -0.3195 -0.2249
16483TIP3    H170864   0.332   4.772   4.478  2.2798 -1.2275 -0.5339
16483TIP3    H270865   0.341   4.923   4.466  1.0195 -1.0068  1.0582
16484TIP3   OH270866   6.744   5.059  12.179 -0.2486  0.1622  0.3806
16484TIP3    H170867   6.714   4.988  12.122 -1.1343 -0.3185  1.4257
16484TIP3    H270868   6.674   5.124  12.175 -0.6537 -0.1979  1.4814
16485TIP3   OH270869   2.684   4.571   4.859 -0.1510 -0.0596  0.1401
16485TIP3    H170870   2.679   4.666   4.852  2.4395  0.0219 -1.2864
16485TIP3    H270871   2.714   4.556   4.949  2.0775  0.6414 -0.4409
16486TIP3   OH270872   0.904   0.992  15.494 -0.2663 -0.6277  0.3084
16486TIP3    H170873   0.948   1.001  15.409 -0.1897  1.3964  0.5510
16486TIP3    H270874   0.855   0.910  15.486 -1.6574  0.3818 -2.3364
16487TIP3   OH270875   1.682   2.725   5.223  0.2243 -0.1110  0.1111
16487TIP3    H170876   1.650   2.673   5.149  1.4075 -0.2573 -0.3112
16487TIP3    H270877   1.711   2.660   5.287  1.2025  0.0013 -0.1969
16488TIP3   OH270878   0.460   5.967   5.843 -0.3337  0.1244 -0.0277
16488TIP3    H170879   0.403   5.890   5.842 -0.9872  0.6159 -0.4771
16488TIP3    H270880   0.534   5.940   5.898 -0.8648 -0.6042  0.3455
16489TIP3   OH270881   4.675   5.705   3.540  0.4250  0.3483 -0.2486
16489TIP3    H170882   4.646   5.614   3.544  2.9256 -0.4130  1.4918
16489TIP3    H270883   4.599   5.755   3.571  0.0419 -1.3822  1.6980
16490TIP3   OH270884   1.872   2.797  12.134 -0.8007 -0.0878 -0.3497
16490TIP3    H170885   1.946   2.753  12.093 -1.8995 -0.8403 -1.5857
16490TIP3    H270886   1.881   2.778  12.228  1.6074  1.4427 -0.2371
16491TIP3   OH270887   3.951   5.556  16.012 -0.1565 -0.1995  0.6247
16491TIP3    H170888   3.872   5.590  16.054 -0.4269  0.8847 -0.7052
16491TIP3    H270889   3.948   5.462  16.027 -1.7504 -0.1753  0.5144
16492TIP3   OH270890   2.296   5.956  15.113  0.2395  0.3813  0.1525
16492TIP3    H170891   2.228   5.913  15.163  1.6538 -1.0311  0.8867
16492TIP3    H270892   2.254   6.036  15.079 -2.1767 -1.1735 -0.6357
16493TIP3   OH270893   2.344   5.417   0.382 -0.5108 -0.1630  0.2325
16493TIP3    H170894   2.282   5.485   0.407  0.6652  1.4463 -1.0755
16493TIP3    H270895   2.310   5.381   0.301 -0.0930  0.2483 -0.1262
16494TIP3   OH270896   5.316   0.388   0.058  0.0441 -0.4387 -0.2575
16494TIP3    H170897   5.392   0.375   0.000 -1.0371 -0.6525 -1.6485
16494TIP3    H270898   5.304   0.303   0.100  1.0142 -0.2031  0.5264
16495TIP3   OH270899   6.291   0.068   4.304 -0.6270 -0.6037 -0.0275
16495TIP3    H170900   6.338   0.096   4.226 -0.6255 -2.7597 -0.8481
16495TIP3    H270901   6.199   0.080   4.282 -0.5581  0.6631  0.3889
16496TIP3   OH270902   1.571   2.893   1.942 -0.3498 -0.3146 -0.5713
16496TIP3    H170903   1.620   2.819   1.905 -0.0338  0.1794 -1.1422
16496TIP3    H270904   1.539   2.941   1.865  0.4878  0.8424 -0.1993
16497TIP3   OH270905   5.270   5.702   1.159 -0.7939 -0.3758 -0.0456
16497TIP3    H170906   5.293   5.739   1.244  0.2593  1.3340 -1.0320
16497TIP3    H270907   5.342   5.642   1.138  0.7480  1.8080 -1.2419
16498TIP3   OH270908   1.164   2.279  13.882  0.2913  0.1274 -0.1063
16498TIP3    H170909   1.088   2.272  13.940  0.0223  2.0641 -0.1851
16498TIP3    H270910   1.130   2.322  13.803  1.3379  0.4212 -0.3980
16499TIP3   OH270911   2.306   0.164  12.554 -0.1689 -0.4353 -0.4469
16499TIP3    H170912   2.266   0.118  12.627 -1.0664 -1.1783 -1.3875
16499TIP3    H270913   2.368   0.101  12.516  1.0633  0.3079  0.2969
16500TIP3   OH270914   5.301   0.332  15.877 -0.0795  0.1385 -0.5709
16500TIP3    H170915   5.245   0.320  15.953  0.0437 -0.7406 -0.6202
16500TIP3    H270916   5.368   0.265  15.885 -0.2714 -0.1894 -1.6460
16501TIP3   OH270917   2.973   6.611  14.124 -0.3603 -1.1285  0.4574
16501TIP3    H170918   2.938   6.687  14.171 -1.8316 -2.0863  0.9341
16501TIP3    H270919   2.972   6.637  14.032 -0.6514 -0.4870  0.6402
16502TIP3   OH270920   5.656   4.640   3.201 -0.0137 -0.0176  0.0143
16502TIP3    H170921   5.704   4.706   3.151  0.7655 -1.7043 -1.5485
16502TIP3    H270922   5.715   4.616   3.272 -1.0377  2.2381  1.6645
16503TIP3   OH270923   4.815   3.064   6.028  0.0596 -0.1344 -0.4329
16503TIP3    H170924   4.889   3.004   6.039 -0.7239 -0.8552  1.0219
16503TIP3    H270925   4.848   3.149   6.056  0.3954 -0.4159  0.0204
16504TIP3   OH270926   6.709   4.846   3.763 -0.4335  0.2449  0.3084
16504TIP3    H170927   6.768   4.778   3.796  0.2388  1.2142  1.1397
16504TIP3    H270928   6.764   4.898   3.704 -0.6508  0.7110  0.5133
16505TIP3   OH270929   5.896   1.963  11.110 -0.0862  0.3907  0.4427
16505TIP3    H170930   5.844   1.940  11.033 -1.1604  0.8794  1.0035
16505TIP3    H270931   5.927   2.052  11.093  0.0732  0.3192  0.3621
16506TIP3   OH270932   0.318   6.327  16.279  0.0419 -0.5892 -0.7392
16506TIP3    H170933   0.413   6.323  16.267  0.0512 -0.7752 -0.5899
16506TIP3    H270934   0.283   6.275  16.207  0.0049  0.6124 -1.6162
16507TIP3   OH270935   6.286   0.046  12.831  0.3765  0.2681 -0.1157
16507TIP3    H170936   6.274   0.114  12.764  3.2687  1.2536  0.3159
16507TIP3    H270937   6.377   0.055  12.859  1.0036 -4.0759 -0.3510
16508TIP3   OH270938   1.219   1.436   5.907 -0.3552 -0.4958 -0.1133
16508TIP3    H170939   1.191   1.345   5.918 -2.0692  0.3574  3.2578
16508TIP3    H270940   1.304   1.441   5.952  0.9665 -0.9629 -2.4784
16509TIP3   OH270941   4.960   1.655   2.932 -0.0358 -0.8087  0.2814
16509TIP3    H170942   5.024   1.690   2.994  0.7826 -0.4698 -0.7425
16509TIP3    H270943   4.996   1.570   2.906 -2.2187 -2.6940  3.0773
16510TIP3   OH270944   4.081   5.226  14.524  0.0204 -0.1272  0.0349
16510TIP3    H170945   4.107   5.318  14.526 -0.5831  0.0292  0.5437
16510TIP3    H270946   3.987   5.227  14.541  0.1846 -0.9111  1.0061
16511TIP3   OH270947   2.269   6.727  16.353 -0.1046  0.2525  0.3759
16511TIP3    H170948   2.197   6.781  16.321  0.7020  0.5074 -1.0795
16511TIP3    H270949   2.298   6.771  16.432 -1.8871 -0.1553  1.2813
16512TIP3   OH270950   0.656   5.868  14.150 -0.7080  0.1548 -0.4701
16512TIP3    H170951   0.597   5.943  14.151 -3.7478 -2.1483  0.5251
16512TIP3    H270952   0.668   5.848  14.057  2.6162  3.6485 -0.8988
16513TIP3   OH270953   5.053   1.101   3.035 -0.4339 -0.0588  0.0243
16513TIP3    H170954   5.137   1.106   2.989  0.2157  0.0434  1.2022
16513TIP3    H270955   5.034   1.008   3.042 -0.7980 -0.0544 -0.9266
16514TIP3   OH270956   6.037   0.320   1.978  0.0578 -0.6423  0.0030
16514TIP3    H170957   6.132   0.330   1.986 -0.2179  0.1347  2.8590
16514TIP3    H270958   6.018   0.345   1.888  2.2205  2.3828  0.3129
16515TIP3   OH270959   5.652   1.244  17.132 -0.3083  0.0117  0.7967
16515TIP3    H170960   5.626   1.157  17.100 -0.5395  0.4916 -0.3222
16515TIP3    H270961   5.738   1.259  17.093 -1.2649  1.2620 -0.8910
16516TIP3   OH270962   4.478   4.648   1.919  0.1006  0.0105 -0.0478
16516TIP3    H170963   4.468   4.598   2.000  0.8577  0.3165  0.2390
16516TIP3    H270964   4.393   4.690   1.906  0.3307  0.9167  1.2366
16517TIP3   OH270965   1.722   2.736  14.625 -0.0691  0.1422  0.7414
16517TIP3    H170966   1.697   2.825  14.602 -0.3738  0.0927  0.8735
16517TIP3    H270967   1.812   2.727  14.593 -0.0277  0.5057  0.7547
16518TIP3   OH270968   4.866   2.164  14.864  0.1048 -0.4860  0.1243
16518TIP3    H170969   4.789   2.116  14.833 -0.5642 -0.4953  1.7682
16518TIP3    H270970   4.898   2.112  14.938  1.7791 -0.5507 -0.6350
16519TIP3   OH270971   4.397   4.164  15.677 -0.0571  0.2233 -0.2316
16519TIP3    H170972   4.311   4.168  15.719 -0.3057 -0.0507 -0.7218
16519TIP3    H270973   4.383   4.198  15.589  0.1237 -0.8616 -0.6742
16520TIP3   OH270974   5.459   3.103   1.469 -0.6109 -0.6593 -0.4907
16520TIP3    H170975   5.445   3.105   1.564 -0.1689 -1.2856 -0.4074
16520TIP3    H270976   5.408   3.028   1.438 -1.1491 -0.1586 -0.8170
16521TIP3   OH270977   5.986   4.836  15.471  0.3366 -0.0108 -0.2917
16521TIP3    H170978   6.066   4.857  15.518 -0.3176  1.9473  0.0026
16521TIP3    H270979   6.005   4.857  15.380  0.7547 -1.3371 -0.5218
16522TIP3   OH270980   3.251   1.012  15.041 -0.7509 -0.3599 -0.1730
16522TIP3    H170981   3.197   1.019  14.962  0.1919  1.4613 -0.6664
16522TIP3    H270982   3.276   1.102  15.061 -0.7818 -0.8388  2.0764
16523TIP3   OH270983   3.603   3.672   0.812  0.6406  0.9619  0.0075
16523TIP3    H170984   3.642   3.654   0.897 -0.6730 -0.8250  0.2725
16523TIP3    H270985   3.535   3.737   0.831 -0.0157  0.1634  0.4294
16524TIP3   OH270986   2.379   3.672   1.552  0.2007 -0.4573  0.0739
16524TIP3    H170987   2.395   3.578   1.555  0.5295 -0.3824  0.9995
16524TIP3    H270988   2.347   3.689   1.464 -1.6966 -1.7495  0.4657
16525TIP3   OH270989   5.775   3.334  16.546 -0.2822  0.3103  0.2553
16525TIP3    H170990   5.701   3.298  16.497  0.5532  1.2021 -1.7079
16525TIP3    H270991   5.849   3.278  16.522 -0.0960  0.0291  1.4372
16526TIP3   OH270992   0.626   2.239  14.981  0.7962 -0.9965 -0.0048
16526TIP3    H170993   0.605   2.226  15.073 -0.0171 -0.2859 -0.0715
16526TIP3    H270994   0.646   2.152  14.948 -2.0463 -1.7393  0.1020
16527TIP3   OH270995   4.525   0.849  13.464 -0.3895  0.2656  0.4114
16527TIP3    H170996   4.494   0.781  13.524 -2.3697  1.9483  1.3679
16527TIP3    H270997   4.455   0.915  13.465  1.2590  2.0710 -0.8560
16528TIP3   OH270998   5.959   0.561   6.390 -0.4460  0.0137 -0.6200
16528TIP3    H170999   5.984   0.623   6.321 -0.0309  0.8340  0.2704
16528TIP3    H271000   5.967   0.611   6.471 -0.5504 -1.0807  0.0608
16529TIP3   OH271001   1.956   3.718   4.940  0.2583  0.3262  0.1656
16529TIP3    H171002   2.021   3.786   4.957 -0.1958 -0.1150  4.1934
16529TIP3    H271003   2.008   3.640   4.917  1.0190  0.7526  0.4337
16530TIP3   OH271004   0.004   1.900  14.156  0.9256 -0.1121 -0.1428
16530TIP3    H171005   0.070   1.966  14.135  0.8709 -0.6294 -2.0716
16530TIP3    H271006   0.052   1.818  14.162  1.0774  0.1549  2.8286
16531TIP3   OH271007   1.738   6.358  12.894 -0.2432  0.5249  0.3051
16531TIP3    H171008   1.771   6.279  12.937  1.4098  1.0198  0.0032
16531TIP3    H271009   1.702   6.327  12.811  1.9472  0.2509 -0.5859
16532TIP3   OH271010   5.886   0.059  15.563  0.2723  0.6573 -0.0743
16532TIP3    H171011   5.929  -0.024  15.540 -0.1968  0.3502  0.1395
16532TIP3    H271012   5.954   0.125  15.551  0.1607  0.4545 -1.9288
16533TIP3   OH271013   5.931   0.574   1.392 -0.3834 -0.2349  0.2476
16533TIP3    H171014   6.022   0.545   1.380 -0.3701 -0.2769  0.4354
16533TIP3    H271015   5.878   0.497   1.370 -0.3530 -0.3624  0.6155
16534TIP3   OH271016   1.395   4.308  13.417 -0.4672  0.3128  0.1834
16534TIP3    H171017   1.415   4.328  13.325  0.2659 -0.6262  0.1253
16534TIP3    H271018   1.475   4.331  13.464 -1.0291  1.2998  0.6671
16535TIP3   OH271019   0.460   6.620   1.459 -0.4151  0.4930 -0.4432
16535TIP3    H171020   0.440   6.666   1.378 -0.5784 -1.7672 -1.7139
16535TIP3    H271021   0.376   6.585   1.489  0.0140 -0.6865 -0.5750
16536TIP3   OH271022   6.774   0.284  13.398  0.2006 -0.1560  0.7056
16536TIP3    H171023   6.692   0.240  13.379  1.1623 -1.4335 -0.5273
16536TIP3    H271024   6.780   0.283  13.494 -1.7248  0.9257  0.8670
16537TIP3   OH271025   5.415   1.541  10.851  0.8024 -0.0554  0.4569
16537TIP3    H171026   5.453   1.454  10.836 -0.3486 -0.5942  0.5856
16537TIP3    H271027   5.486   1.602  10.830  0.8164 -0.9291 -2.2632
16538TIP3   OH271028   6.609   3.667   6.338 -0.4013  0.1433 -0.3296
16538TIP3    H171029   6.704   3.666   6.351 -0.1827  2.7436 -1.5316
16538TIP3    H271030   6.573   3.646   6.425  1.2464 -0.3210  0.2662
16539TIP3   OH271031   6.737   1.492   1.575  0.1458  0.6579 -0.3861
16539TIP3    H171032   6.733   1.434   1.651 -0.7974 -0.9067 -1.5960
16539TIP3    H271033   6.830   1.516   1.568  0.2182  0.9538  1.3263
16540TIP3   OH271034   2.593   1.012   4.331  0.1014  0.4078 -0.0592
16540TIP3    H171035   2.637   0.974   4.255 -0.5192 -1.1667  0.3367
16540TIP3    H271036   2.604   1.106   4.321  2.4453  0.1032 -0.6331
16541TIP3   OH271037   2.366   3.776   0.835  0.2093  0.1676  0.2109
16541TIP3    H171038   2.273   3.761   0.852  0.2136  2.0530  2.1709
16541TIP3    H271039   2.404   3.788   0.922  1.9491  1.2551 -0.6761
16542TIP3   OH271040   2.999   3.171   6.459  0.1006  0.3970 -0.1017
16542TIP3    H171041   2.970   3.254   6.422  0.4449  1.2985  1.6174
16542TIP3    H271042   3.060   3.195   6.528 -1.1293 -1.2254  1.5888
16543TIP3   OH271043   2.738   1.668   0.710 -0.2571 -0.0689 -0.5422
16543TIP3    H171044   2.717   1.658   0.802 -0.9550  1.0144 -0.5607
16543TIP3    H271045   2.825   1.631   0.700 -0.4268 -0.7409  0.4299
16544TIP3   OH271046   2.514   6.765   3.750  0.3351  0.7978  0.0894
16544TIP3    H171047   2.420   6.753   3.736  0.4733  0.2896 -0.4207
16544TIP3    H271048   2.521   6.804   3.837 -0.2558 -0.7369  0.8468
16545TIP3   OH271049   3.150   2.042   0.945  0.3113 -0.1346 -0.1824
16545TIP3    H171050   3.222   2.104   0.956 -1.6180  2.4427 -1.6560
16545TIP3    H271051   3.077   2.081   0.993  0.1429 -3.2996  2.3276
16546TIP3   OH271052   2.139   3.795  16.064  0.1564  0.1586 -0.1731
16546TIP3    H171053   2.193   3.776  16.140 -1.2383 -0.2720  0.7351
16546TIP3    H271054   2.136   3.890  16.059 -0.9226  0.2221  1.2035
16547TIP3   OH271055   0.573   3.478   1.901 -0.1150 -0.4275 -0.0890
16547TIP3    H171056   0.651   3.447   1.947  0.9821  0.7762 -1.1043
16547TIP3    H271057   0.584   3.574   1.897 -0.6655 -0.4194 -1.9521
16548TIP3   OH271058   4.254   1.921  14.496  0.5076  0.4648  0.5257
16548TIP3    H171059   4.325   1.964  14.449  0.3791  0.7514  0.5907
16548TIP3    H271060   4.291   1.899  14.581  0.2463  1.4636  0.9107
16549TIP3   OH271061   1.931   1.643   3.762 -0.2373  0.1952 -0.0294
16549TIP3    H171062   1.909   1.579   3.830 -2.1711 -0.4603 -1.2317
16549TIP3    H271063   1.876   1.618   3.687  1.0909  1.5284 -1.4823
16550TIP3   OH271064   3.201   3.094   5.655 -0.4355 -0.2375  1.0843
16550TIP3    H171065   3.170   3.132   5.737  1.3039  2.2621  0.6260
16550TIP3    H271066   3.138   3.123   5.590 -0.6933 -0.5324  1.2019
16551TIP3   OH271067   0.196   6.758  11.140 -0.1083 -0.5574  0.0233
16551TIP3    H171068   0.162   6.723  11.222 -1.6474  2.2515  0.6555
16551TIP3    H271069   0.118   6.775  11.087  0.8206 -1.4680 -1.6953
16552TIP3   OH271070   3.733   4.716   2.393 -0.3547  0.4185  0.2370
16552TIP3    H171071   3.706   4.627   2.371 -1.0836  0.7347 -0.1780
16552TIP3    H271072   3.683   4.738   2.471 -1.1604  0.9304 -0.4127
16553TIP3   OH271073   2.230   0.204  14.370  0.3075 -0.1290 -0.1324
16553TIP3    H171074   2.153   0.169  14.324 -0.5693  0.8545  0.5752
16553TIP3    H271075   2.230   0.158  14.454 -0.6970  1.3322  0.6945
16554TIP3   OH271076   0.777   1.849   5.538 -0.2058  0.2583  0.5246
16554TIP3    H171077   0.815   1.798   5.466 -2.8910 -1.8654  0.5261
16554TIP3    H271078   0.829   1.929   5.540  2.5755 -1.4056 -1.0901
16555TIP3   OH271079   5.238   4.388   0.101  0.4460 -0.0346 -0.2612
16555TIP3    H171080   5.224   4.341   0.183  0.4203  0.1905 -0.1354
16555TIP3    H271081   5.263   4.477   0.128 -0.9464  0.4450 -0.4987
16556TIP3   OH271082   5.477   2.445  12.598  0.1601  0.1031  0.2332
16556TIP3    H171083   5.566   2.480  12.602  0.5324 -0.5845 -1.6827
16556TIP3    H271084   5.453   2.431  12.690  2.6342 -1.2115  0.7266
16557TIP3   OH271085   2.850   3.257  12.341  0.0380 -0.0662 -0.6216
16557TIP3    H171086   2.883   3.347  12.333 -1.2708  0.6640  1.5134
16557TIP3    H271087   2.820   3.234  12.254  2.1698  0.8415 -1.6376
16558TIP3   OH271088   3.216   6.622   5.876  0.0082  0.5540  0.3253
16558TIP3    H171089   3.299   6.650   5.916  0.5689 -0.9104  0.1964
16558TIP3    H271090   3.200   6.535   5.911 -0.6324  0.1551 -0.9412
16559TIP3   OH271091   2.069   1.171  15.302 -0.7306 -0.0574 -0.1750
16559TIP3    H171092   2.144   1.113  15.317 -0.7566 -0.3129 -1.0384
16559TIP3    H271093   2.102   1.239  15.244 -0.1962  1.8352  2.2525
16560TIP3   OH271094   4.578   0.285   5.243 -0.4167  0.0748  0.0678
16560TIP3    H171095   4.645   0.265   5.307  0.2953  0.0429 -0.6771
16560TIP3    H271096   4.495   0.272   5.289  0.0157 -2.8362  0.1344
16561TIP3   OH271097   6.177   2.870   2.235 -0.0138 -0.6433  0.2180
16561TIP3    H171098   6.226   2.807   2.287  0.0421  0.0986  1.0713
16561TIP3    H271099   6.085   2.846   2.249  0.0091 -0.5650  0.5057
16562TIP3   OH271100   4.514   6.637   5.140  0.6179 -0.0830  0.6416
16562TIP3    H171101   4.463   6.671   5.214 -2.0198 -1.9754 -0.2010
16562TIP3    H271102   4.572   6.708   5.116 -2.0021  2.4099  1.3691
16563TIP3   OH271103   3.284   2.154   6.920  1.1121 -0.0963 -0.3910
16563TIP3    H171104   3.363   2.206   6.936  0.8123  0.5225 -0.8625
16563TIP3    H271105   3.227   2.213   6.870  0.0781 -0.3057  0.5341
16564TIP3   OH271106   2.775   5.703  13.989 -0.5276  0.5847 -0.8838
16564TIP3    H171107   2.744   5.668  13.905  0.0752 -1.1131 -0.4011
16564TIP3    H271108   2.706   5.680  14.051 -0.2379  0.4770 -0.6045
16565TIP3   OH271109   5.219   2.717  14.442 -0.9330  0.3468 -0.4247
16565TIP3    H171110   5.166   2.661  14.385  0.3154 -0.5474 -0.7079
16565TIP3    H271111   5.166   2.796  14.453 -3.5029 -1.4915  1.2904
16566TIP3   OH271112   5.449   1.711   0.594  0.4522 -0.1880 -0.0448
16566TIP3    H171113   5.500   1.631   0.585  0.2123 -0.5089  1.2892
16566TIP3    H271114   5.465   1.739   0.684  1.7279  2.0965 -0.9656
16567TIP3   OH271115   3.769   3.571   0.203 -0.5128  0.2002  0.4177
16567TIP3    H171116   3.770   3.544   0.111 -0.1475  1.6639 -0.0298
16567TIP3    H271117   3.824   3.650   0.205  1.3139 -1.0536  2.2929
16568TIP3   OH271118   6.502   6.352  12.537  0.3391  0.0111  0.5364
16568TIP3    H171119   6.520   6.441  12.568  1.3343 -0.4821  1.4010
16568TIP3    H271120   6.454   6.311  12.609 -0.1835 -0.1346  0.1068
16569TIP3   OH271121   4.150   1.996  17.011 -0.2234  0.0888 -0.1843
16569TIP3    H171122   4.104   1.926  17.058 -0.1851  0.2242  0.0532
16569TIP3    H271123   4.240   1.992  17.043  0.5922 -1.8687 -2.5440
16570TIP3   OH271124   4.112   1.114   4.842 -0.2257  0.0873 -0.4410
16570TIP3    H171125   4.050   1.045   4.818 -2.3385  2.4374 -2.0456
16570TIP3    H271126   4.075   1.153   4.921  1.1917 -0.8734  0.7121
16571TIP3   OH271127   3.866   6.666   3.931 -0.1686  0.7083 -0.5298
16571TIP3    H171128   3.912   6.684   4.013 -0.0107 -0.9241 -0.2449
16571TIP3    H271129   3.933   6.676   3.863  0.7431 -2.0339 -0.0833
16572TIP3   OH271130   4.303   5.064   4.780  0.3130  0.1578  0.0574
16572TIP3    H171131   4.300   4.973   4.751  0.8162  0.7939 -2.1353
16572TIP3    H271132   4.371   5.065   4.848  2.1154 -0.6893 -1.6497
16573TIP3   OH271133   2.345   4.870   4.061 -0.6962 -0.0809 -0.0584
16573TIP3    H171134   2.365   4.833   4.147  1.4064  0.4377 -0.2815
16573TIP3    H271135   2.345   4.794   4.003  0.8598 -0.0960 -0.0652
16574TIP3   OH271136   1.476   2.958  12.828  0.4241 -0.0021 -0.6926
16574TIP3    H171137   1.536   2.906  12.881 -0.0946  0.4673  0.3812
16574TIP3    H271138   1.524   3.040  12.811  0.7289 -0.2956 -1.2589
16575TIP3   OH271139   2.308   0.244   0.287 -0.5134 -0.8239  0.5613
16575TIP3    H171140   2.229   0.278   0.246  0.7136 -0.8925 -1.9572
16575TIP3    H271141   2.376   0.252   0.220  1.1916 -2.5371  2.0019
16576TIP3   OH271142   0.774   2.889  14.558  0.0912 -0.3353  0.7184
16576TIP3    H171143   0.817   2.970  14.587 -0.7459 -0.4205  2.3050
16576TIP3    H271144   0.686   2.894  14.596 -0.4723 -1.2913 -0.4331
16577TIP3   OH271145   3.929   2.361  14.990 -0.4545  0.2593  0.5284
16577TIP3    H171146   3.879   2.282  15.011 -1.6180  0.7065 -0.4983
16577TIP3    H271147   3.874   2.434  15.019 -0.2584  0.7559 -0.3198
16578TIP3   OH271148   3.170   3.479  14.805 -0.3074  0.1264 -0.1726
16578TIP3    H171149   3.227   3.548  14.774  0.5561 -0.5833 -0.1822
16578TIP3    H271150   3.216   3.440  14.880 -0.9862 -0.1390  0.1158
16579TIP3   OH271151   3.374   5.942  17.050  0.2567  0.0684  0.4075
16579TIP3    H171152   3.456   5.987  17.070 -0.0657  1.4262 -1.1657
16579TIP3    H271153   3.393   5.893  16.971 -1.2388  2.8174 -1.7446
16580TIP3   OH271154   4.581   5.729  15.500  0.2485 -0.2650  0.0926
16580TIP3    H171155   4.595   5.683  15.583 -2.5791 -0.7686  0.3424
16580TIP3    H271156   4.644   5.801  15.502  2.3697 -2.1023  1.2421
16581TIP3   OH271157   1.093   1.589  11.441  0.3268 -0.0074 -0.0736
16581TIP3    H171158   1.050   1.606  11.357  1.6105  0.9491 -0.5495
16581TIP3    H271159   1.064   1.660  11.498  0.3940  0.0145 -0.0659
16582TIP3   OH271160   3.471   4.717  12.334  0.5314  0.8268 -0.1170
16582TIP3    H171161   3.401   4.653  12.321  1.3874 -0.0989 -0.2329
16582TIP3    H271162   3.454   4.785  12.269 -0.5158  0.8379  0.1531
16583TIP3   OH271163   0.106   3.828   3.324  0.2574  0.1277  0.2391
16583TIP3    H171164   0.093   3.768   3.250  0.1700  0.8716 -0.3544
16583TIP3    H271165   0.080   3.913   3.291 -0.1769  0.4004  1.2643
16584TIP3   OH271166   1.706   3.251  14.038  0.1565  0.3998 -0.4881
16584TIP3    H171167   1.749   3.193  14.101 -0.7628  0.3578  0.1143
16584TIP3    H271168   1.739   3.338  14.058  1.5060  0.0937 -1.3601
16585TIP3   OH271169   2.585   0.750   2.023  0.1984  0.2472  0.3489
16585TIP3    H171170   2.505   0.782   1.981  1.0281  1.3612 -0.4337
16585TIP3    H271171   2.556   0.709   2.105 -1.0309  1.8169  0.7057
16586TIP3   OH271172   3.825   4.196   2.042 -0.5768  0.4603 -0.1739
16586TIP3    H171173   3.808   4.167   2.132  0.0210  1.6977  0.3465
16586TIP3    H271174   3.789   4.126   1.987 -0.5343 -0.5263  1.0297
16587TIP3   OH271175   6.276   1.250  12.946 -0.4289  0.7749 -0.3877
16587TIP3    H171176   6.182   1.257  12.932 -0.6313 -0.9376  0.0572
16587TIP3    H271177   6.286   1.183  13.014  1.1544  0.1167 -1.2274
16588TIP3   OH271178   1.238   6.405  14.480 -0.5873  0.3544 -0.1776
16588TIP3    H171179   1.309   6.352  14.516 -0.4986  0.8667  0.4104
16588TIP3    H271180   1.161   6.348  14.484  0.0902 -0.7827 -2.3147
16589TIP3   OH271181   1.330   0.348   3.429  0.2925 -0.1110  0.0818
16589TIP3    H171182   1.341   0.418   3.494 -1.4868 -1.5077  1.9740
16589TIP3    H271183   1.403   0.288   3.446 -1.0912 -1.3206  1.9761
16590TIP3   OH271184   5.573   4.381  13.224  0.0892 -0.0362 -0.8776
16590TIP3    H171185   5.669   4.379  13.224  0.1109 -0.5963  1.4547
16590TIP3    H271186   5.548   4.295  13.259 -1.2835 -0.1224 -2.0449
16591TIP3   OH271187   0.468   5.072  13.282 -0.0382  0.1188 -0.0976
16591TIP3    H171188   0.376   5.093  13.298  0.8840  3.3243  1.5092
16591TIP3    H271189   0.467   4.983  13.247 -3.5808 -0.5717  1.5684
16592TIP3   OH271190   1.229   0.245  14.716 -0.1797  0.4321  0.3634
16592TIP3    H171191   1.171   0.171  14.731  0.7914 -0.1867  1.0928
16592TIP3    H271192   1.260   0.270  14.803 -0.4832  1.6848  0.1188
16593TIP3   OH271193   5.829   3.498  17.196 -0.1993  0.5636  0.0361
16593TIP3    H171194   5.876   3.521  17.276 -1.4384  1.2143  0.5988
16593TIP3    H271195   5.744   3.465  17.227  0.0244 -0.9798 -0.9375
16594TIP3   OH271196   2.678   0.348   3.935 -0.1172  0.2159 -0.4214
16594TIP3    H171197   2.599   0.377   3.890 -0.5030 -1.4394 -0.8346
16594TIP3    H271198   2.707   0.271   3.886  1.0756  0.1025  0.4397
16595TIP3   OH271199   3.960   0.254   5.632 -0.0182 -0.1984  0.4325
16595TIP3    H171200   4.023   0.186   5.608  1.0644  1.0033 -0.1498
16595TIP3    H271201   3.880   0.232   5.583  0.3146 -1.0609  0.2781
16596TIP3   OH271202   3.065   2.761   5.563 -0.2466  0.1352 -0.6642
16596TIP3    H171203   3.018   2.686   5.598  2.5240 -1.5547 -0.3936
16596TIP3    H271204   3.123   2.725   5.496  0.6422  2.1270 -1.0244
16597TIP3   OH271205   1.438   1.865  12.451  0.0285 -0.1622 -0.1821
16597TIP3    H171206   1.533   1.874  12.460  0.1266 -0.2601 -0.9981
16597TIP3    H271207   1.409   1.826  12.533  0.8395 -1.1721 -0.3616
16598TIP3   OH271208   1.814   4.296   5.568 -0.5869 -0.4253  0.1574
16598TIP3    H171209   1.837   4.343   5.487  0.7715 -0.7916  0.3133
16598TIP3    H271210   1.861   4.343   5.637 -2.1168  0.1680  0.8179
16599TIP3   OH271211   3.139   2.106  12.737 -0.4445 -0.5551  0.4669
16599TIP3    H171212   3.205   2.070  12.797 -1.3423 -2.1962  0.5115
16599TIP3    H271213   3.057   2.098  12.785 -0.7334  1.1440  0.2679
16600TIP3   OH271214   1.006   1.862   1.612  0.3982  0.0672 -0.4620
16600TIP3    H171215   0.940   1.799   1.581 -0.8123  0.5283  1.1048
16600TIP3    H271216   1.025   1.834   1.702 -0.2404  1.9878  0.2983
16601TIP3   OH271217   3.761   0.963   5.824 -0.5894  0.0337 -0.4545
16601TIP3    H171218   3.769   0.918   5.740  0.5346  0.4666 -0.5796
16601TIP3    H271219   3.819   0.915   5.883 -2.0646 -0.8320  0.3268
16602TIP3   OH271220   3.231   2.032   2.547 -0.0448  0.6475  0.2362
16602TIP3    H171221   3.182   1.958   2.582  0.2385  0.3001 -0.0945
16602TIP3    H271222   3.306   1.992   2.503 -0.3994  1.0646 -0.7713
16603TIP3   OH271223   4.099   1.903  11.378  0.4986  0.0718  0.4086
16603TIP3    H171224   4.040   1.968  11.338  0.0806  0.1522  1.1520
16603TIP3    H271225   4.041   1.846  11.428  0.7851 -1.2786 -0.7515
16604TIP3   OH271226   2.674   3.755   0.214 -0.0256  0.3067  0.2331
16604TIP3    H171227   2.643   3.829   0.266 -2.2441 -0.4909  0.1076
16604TIP3    H271228   2.664   3.679   0.271  0.0776 -0.2098 -0.4254
16605TIP3   OH271229   6.663   2.094   1.875 -0.2285 -0.2268 -0.2163
16605TIP3    H171230   6.691   2.010   1.911  0.9186 -0.2985 -1.2293
16605TIP3    H271231   6.612   2.071   1.797  1.3229  0.0096 -1.3467
16606TIP3   OH271232   3.257   1.386  11.522 -0.3485  0.3826  0.2583
16606TIP3    H171233   3.266   1.420  11.433 -0.9139 -0.9457 -0.3197
16606TIP3    H271234   3.211   1.456  11.570 -1.5764  0.4103 -0.9267
16607TIP3   OH271235   6.107   0.663   4.083  0.2774 -0.9631  0.6651
16607TIP3    H171236   6.028   0.667   4.138 -0.5863  1.2854 -0.6887
16607TIP3    H271237   6.081   0.608   4.009  0.2526 -0.9233  0.6438
16608TIP3   OH271238   0.134   3.438  13.965  0.1892  0.2339 -0.5715
16608TIP3    H171239   0.078   3.505  13.925 -0.8197 -0.7429 -0.8434
16608TIP3    H271240   0.221   3.455  13.930 -0.2761  0.7137 -1.5223
16609TIP3   OH271241   4.171   1.404  15.275  0.2626  0.6351 -0.0796
16609TIP3    H171242   4.108   1.438  15.211 -0.3949 -0.7317 -0.1728
16609TIP3    H271243   4.121   1.341  15.327  1.0630  0.9813  1.1129
16610TIP3   OH271244   1.631   2.509   1.469 -0.2664  0.4596  0.1813
16610TIP3    H171245   1.670   2.456   1.538 -1.1695  1.1323  1.2354
16610TIP3    H271246   1.668   2.597   1.482 -0.2602  0.5397 -0.3427
16611TIP3   OH271247   4.635   5.789  14.848 -0.0434  0.0741  0.6820
16611TIP3    H171248   4.543   5.775  14.871 -0.7774 -0.0071 -2.1459
16611TIP3    H271249   4.658   5.714  14.792  1.2783  0.8954  0.0967
16612TIP3   OH271250   5.786   4.515  14.251  0.1397 -0.5285  0.1365
16612TIP3    H171251   5.806   4.546  14.162 -1.0016  2.9588  1.0160
16612TIP3    H271252   5.868   4.526  14.298  0.2412 -0.5972 -0.0224
16613TIP3   OH271253   6.273   3.147   1.310  0.3831  0.2044  0.1350
16613TIP3    H171254   6.181   3.125   1.320  0.0600  0.8452 -1.2933
16613TIP3    H271255   6.291   3.206   1.383 -0.3934  0.2554  0.2912
16614TIP3   OH271256   2.413   3.638  12.071 -0.1006 -0.2266 -0.0314
16614TIP3    H171257   2.391   3.609  12.160 -1.3310  0.5413 -0.0849
16614TIP3    H271258   2.477   3.573  12.041  0.3128 -0.5086  1.4006
16615TIP3   OH271259   3.612   0.223  17.060  0.0665 -0.1703  0.5694
16615TIP3    H171260   3.530   0.256  17.096 -0.4628 -0.7665 -0.1008
16615TIP3    H271261   3.648   0.167  17.129 -0.0938  0.0752  0.8504
16616TIP3   OH271262   4.882   3.834  12.815 -0.1728 -0.3163  0.5150
16616TIP3    H171263   4.928   3.788  12.745 -1.4626 -2.6608  1.1616
16616TIP3    H271264   4.852   3.916  12.775  2.3573  0.1085 -0.5919
16617TIP3   OH271265   2.768   3.533  13.160  0.1923  0.6520 -0.1240
16617TIP3    H171266   2.848   3.497  13.123  0.2179 -0.1458  0.6890
16617TIP3    H271267   2.698   3.481  13.121  0.1070  0.8824 -0.2839
16618TIP3   OH271268   1.143   4.307   2.728  0.5221 -0.2924  0.4990
16618TIP3    H171269   1.208   4.366   2.690  0.5276  0.6785  1.9810
16618TIP3    H271270   1.073   4.303   2.663  1.0022  0.5242 -0.0673
16619TIP3   OH271271   0.997   4.706  14.459 -0.1752  0.0169 -0.5352
16619TIP3    H171272   0.902   4.697  14.449 -0.0715 -1.5316 -0.1827
16619TIP3    H271273   1.019   4.781  14.404 -1.9650  2.1342  1.5131
16620TIP3   OH271274   4.024   6.779   1.677  0.2275 -0.2716  0.2441
16620TIP3    H171275   4.010   6.723   1.753  1.4217  0.2472  0.8629
16620TIP3    H271276   4.090   6.734   1.625  1.0330  0.4396  0.6364
16621TIP3   OH271277   0.668   6.166   0.525  0.6029 -0.0343  0.1365
16621TIP3    H171278   0.611   6.214   0.585  0.6292 -0.8462  0.8250
16621TIP3    H271279   0.757   6.192   0.549  0.5148  1.8778 -1.4928
16622TIP3   OH271280   1.272   1.388  13.145 -0.5675 -0.2216  0.7922
16622TIP3    H171281   1.300   1.438  13.221  0.5290  0.2758  0.0692
16622TIP3    H271282   1.341   1.324  13.131 -0.6685 -0.1904  0.1105
16623TIP3   OH271283   5.281   3.127   6.434 -0.5953 -0.0349  0.1244
16623TIP3    H171284   5.219   3.087   6.373 -2.3010  1.0090  1.1342
16623TIP3    H271285   5.279   3.220   6.411 -3.3099  0.8367  3.4420
16624TIP3   OH271286   3.048   3.395  12.692 -0.5991 -0.3361  0.1231
16624TIP3    H171287   3.110   3.338  12.738  1.5662  2.3349  0.6982
16624TIP3    H271288   3.092   3.416  12.609 -2.6420 -1.7523 -1.3713
16625TIP3   OH271289   4.030   1.007   5.742  0.2816  0.5775  0.2211
16625TIP3    H171290   4.031   0.926   5.690 -0.4591  1.8912 -1.8946
16625TIP3    H271291   3.973   0.986   5.817  0.2289 -0.9048 -0.2093
16626TIP3   OH271292   2.166   4.073   3.441  0.3574 -0.3481  0.5898
16626TIP3    H171293   2.112   4.068   3.362  0.6142 -0.6630  0.4322
16626TIP3    H271294   2.211   4.157   3.434  1.2247 -0.8596 -0.1569
16627TIP3   OH271295   0.329   5.270  13.512  0.1486 -0.3645  0.0099
16627TIP3    H171296   0.372   5.353  13.493 -0.9315  0.6985  1.9532
16627TIP3    H271297   0.388   5.225  13.573  0.5313 -0.8466 -0.7076
16628TIP3   OH271298   2.001   6.478   0.438 -0.2325  0.4598  0.3463
16628TIP3    H171299   2.022   6.450   0.349 -0.4776 -2.5341  1.1665
16628TIP3    H271300   1.911   6.450   0.453 -0.4302  1.5335  1.3288
16629TIP3   OH271301   6.724   0.532  11.653 -0.2090  0.2444  0.6259
16629TIP3    H171302   6.696   0.616  11.618 -1.1913 -0.0251  0.7420
16629TIP3    H271303   6.773   0.554  11.732  2.8167  0.9018 -1.3797
16630TIP3   OH271304   0.747   1.869  12.726 -0.2384 -0.0482  0.6063
16630TIP3    H171305   0.728   1.956  12.689 -1.6646 -0.0680  1.2539
16630TIP3    H271306   0.700   1.809  12.669  2.6369 -0.6300 -1.2446
16631TIP3   OH271307   3.267   3.761  13.760  0.3119  0.0105 -0.3402
16631TIP3    H171308   3.300   3.803  13.839  3.6102 -1.8820 -0.6247
16631TIP3    H271309   3.253   3.669  13.786 -2.8626  0.3135 -0.8023
16632TIP3   OH271310   6.697   0.549  13.617 -0.6024  0.2778 -0.9574
16632TIP3    H171311   6.716   0.557  13.711 -2.2179  1.5416 -0.6956
16632TIP3    H271312   6.781   0.527  13.577  0.0633 -0.5184  0.8118
16633TIP3   OH271313   3.537   2.600   4.287  0.3222 -0.0774  0.0673
16633TIP3    H171314   3.581   2.536   4.342  0.8305  0.1306 -0.1013
16633TIP3    H271315   3.491   2.547   4.221  1.7746 -0.2272 -0.8548
16634TIP3   OH271316   4.721   6.549  14.898 -0.2465 -0.2993 -0.3579
16634TIP3    H171317   4.814   6.562  14.881  0.3895 -1.0788  2.2939
16634TIP3    H271318   4.679   6.625  14.859  1.6401  0.7416 -0.4284
16635TIP3   OH271319   3.080   1.191  14.501  0.2632  0.9049 -0.0968
16635TIP3    H171320   2.984   1.196  14.497  0.4380  2.5659 -2.7891
16635TIP3    H271321   3.103   1.126  14.435  1.0590  0.8860  0.1973
16636TIP3   OH271322   5.220   0.688   1.971  0.1498  0.6431  0.2175
16636TIP3    H171323   5.237   0.675   2.064 -1.5827  0.8735  0.5863
16636TIP3    H271324   5.130   0.722   1.967 -0.2286 -0.4591 -1.6025
16637TIP3   OH271325   3.132   2.792   4.710 -0.4702 -0.2257 -0.3028
16637TIP3    H171326   3.159   2.756   4.795 -0.4547  1.8307  0.5763
16637TIP3    H271327   3.090   2.875   4.731 -0.8807  0.0948 -2.2928
16638TIP3   OH271328   2.783   6.437   5.888 -0.0149  0.1054 -0.1884
16638TIP3    H171329   2.709   6.485   5.923 -0.5284 -2.2653  2.1374
16638TIP3    H271330   2.745   6.360   5.845  0.9001  0.5539 -1.8315
16639TIP3   OH271331   4.160   2.142   6.043 -0.0176 -0.1555 -0.0704
16639TIP3    H171332   4.096   2.108   5.981  0.5423  1.6504 -1.7150
16639TIP3    H271333   4.108   2.189   6.108 -0.4233  0.9157 -1.1454
16640TIP3   OH271334   0.454   1.667   2.680 -0.5322 -0.3323  0.1754
16640TIP3    H171335   0.386   1.642   2.618  0.4994 -1.2828 -0.6064
16640TIP3    H271336   0.523   1.602   2.667  1.3954  1.7837 -0.5031
16641TIP3   OH271337   0.833   6.382  16.357  0.3599  0.1682 -0.0462
16641TIP3    H171338   0.836   6.478  16.353 -1.1261  0.3540  2.1853
16641TIP3    H271339   0.921   6.354  16.335  1.2937  2.1537  1.0408
16642TIP3   OH271340   6.461   3.380  14.871 -0.1182  0.1589  0.0373
16642TIP3    H171341   6.423   3.292  14.872 -0.5166  0.3215 -0.8204
16642TIP3    H271342   6.421   3.424  14.946  0.0299 -0.3619  0.4255
16643TIP3   OH271343   0.087   0.391   5.983 -0.0509  0.4547 -0.3392
16643TIP3    H171344   0.003   0.430   5.958  0.4636  3.2865  2.1022
16643TIP3    H271345   0.120   0.448   6.053  3.0634 -1.6456 -0.0161
16644TIP3   OH271346   3.756   1.534  16.717  0.2087  0.1657  0.1301
16644TIP3    H171347   3.804   1.565  16.794  1.1742 -2.0420  0.4316
16644TIP3    H271348   3.815   1.549  16.644 -0.0845  0.7877  0.0171
16645TIP3   OH271349   4.770   4.525   1.364 -0.2871 -0.1921  0.2231
16645TIP3    H171350   4.783   4.436   1.398 -0.6408  0.3693  1.8673
16645TIP3    H271351   4.718   4.512   1.284 -1.0008 -1.4070  0.8652
16646TIP3   OH271352   1.670   0.476  13.746  0.5710 -0.1316  0.4265
16646TIP3    H171353   1.698   0.567  13.754  0.2729  0.1782 -1.7265
16646TIP3    H271354   1.751   0.425  13.753  0.9900  0.4230 -0.3100
16647TIP3   OH271355   4.655   2.912   6.443 -0.4843  0.1966 -0.1418
16647TIP3    H171356   4.723   2.893   6.508  0.0361 -0.1977 -0.7941
16647TIP3    H271357   4.585   2.849   6.462 -0.3992  0.1842  0.1320
16648TIP3   OH271358   5.554   5.924  16.498  0.1037  0.0965  0.1031
16648TIP3    H171359   5.591   5.848  16.543  0.4986  0.8590  1.0908
16648TIP3    H271360   5.589   5.999  16.546  2.4683  1.0360 -2.9397
16649TIP3   OH271361   5.035   4.872   3.999 -0.2054 -0.4563 -0.1984
16649TIP3    H171362   5.063   4.935   3.933 -0.8672  0.4399  0.3644
16649TIP3    H271363   4.998   4.799   3.949 -0.6666  0.2000 -0.8130
16650TIP3   OH271364   6.017   3.301   4.580  0.2107 -0.1377  0.0089
16650TIP3    H171365   5.960   3.265   4.513 -1.1419  1.3054  0.3546
16650TIP3    H271366   6.061   3.375   4.537 -0.2748  0.4715  0.5440
16651TIP3   OH271367   4.529   6.690   2.132  0.3744  0.1830  0.2904
16651TIP3    H171368   4.541   6.613   2.188 -1.3011  0.4685  1.0554
16651TIP3    H271369   4.521   6.653   2.044  2.5250 -0.2998  0.2544
16652TIP3   OH271370   0.490   6.743   0.934 -0.0689  0.2533  0.2686
16652TIP3    H171371   0.580   6.745   0.900 -0.2095  0.0346 -0.1224
16652TIP3    H271372   0.473   6.833   0.961 -0.9515  1.0759 -2.8856
16653TIP3   OH271373   2.798   6.470  14.259  0.1319  0.2872 -0.0865
16653TIP3    H171374   2.840   6.406  14.317  0.9618  1.9326  1.1921
16653TIP3    H271375   2.867   6.494  14.197 -0.3751 -0.5312 -0.9731
16654TIP3   OH271376   1.269   0.043   1.010 -0.3076 -0.2748  0.9999
16654TIP3    H171377   1.347   0.089   1.040  0.7504 -1.5450  0.2581
16654TIP3    H271378   1.207   0.112   0.987  0.5893  0.7361  1.6074
16655TIP3   OH271379   0.629   5.589   2.538  0.0474 -0.2348 -0.2028
16655TIP3    H171380   0.565   5.647   2.496  1.1611  1.8758  0.9522
16655TIP3    H271381   0.593   5.572   2.625 -0.6229 -1.9028 -0.7820
16656TIP3   OH271382   6.364   4.521   4.543  0.1081 -0.3929 -0.7820
16656TIP3    H171383   6.419   4.585   4.499  0.2547 -0.0093 -0.0429
16656TIP3    H271384   6.413   4.498   4.622  0.2768 -1.7546 -1.2591
16657TIP3   OH271385   0.549   1.823  13.502  0.0913 -0.0607  0.6443
16657TIP3    H171386   0.475   1.805  13.444  1.2043 -0.3335 -0.7247
16657TIP3    H271387   0.554   1.918  13.506  2.0262  0.0214 -2.4078
16658TIP3   OH271388   0.634   2.613   4.272 -0.0714  0.1663  0.0124
16658TIP3    H171389   0.663   2.597   4.361  0.3785 -0.7114 -0.2855
16658TIP3    H271390   0.658   2.534   4.224 -1.6645  0.0068 -0.5604
16659TIP3   OH271391   0.395   1.361   0.522 -0.4681 -0.0236 -0.2315
16659TIP3    H171392   0.299   1.361   0.516 -0.6650  0.0192  2.1379
16659TIP3    H271393   0.419   1.268   0.522 -0.6662 -0.0849  0.7818
16660TIP3   OH271394   5.100   1.606  14.722  0.7242  0.1505  0.9409
16660TIP3    H171395   5.145   1.668  14.665  1.8873 -1.7511 -0.2886
16660TIP3    H271396   5.040   1.659  14.774 -0.1513  1.9816 -1.8435
16661TIP3   OH271397   2.627   1.205  12.520  0.1043  0.3001  0.3510
16661TIP3    H171398   2.567   1.148  12.568  0.1651 -0.2737 -0.2471
16661TIP3    H271399   2.601   1.293  12.544  0.0442  0.0183  1.3339
16662TIP3   OH271400   6.390   0.064   1.236 -0.1262 -0.0197 -0.1346
16662TIP3    H171401   6.352  -0.010   1.189  0.5370 -1.2456  1.2078
16662TIP3    H271402   6.329   0.136   1.221 -0.6428 -0.7555 -1.6960
16663TIP3   OH271403   3.682   3.837  12.986 -0.2300 -0.1280 -0.0905
16663TIP3    H171404   3.705   3.750  13.018 -2.5411 -1.2037 -1.2944
16663TIP3    H271405   3.631   3.877  13.056  0.1005 -0.0618  0.1137
16664TIP3   OH271406   5.223   2.627  11.601  0.3711 -0.0946 -0.3551
16664TIP3    H171407   5.208   2.640  11.694  0.0809 -0.2589 -0.3779
16664TIP3    H271408   5.313   2.656  11.587 -0.5078  2.5948 -0.5603
16665TIP3   OH271409   4.549   0.565   2.741  0.0824  0.3020 -0.3102
16665TIP3    H171410   4.490   0.506   2.789  0.6560  0.1204  0.1704
16665TIP3    H271411   4.536   0.542   2.649  0.6454 -0.8904 -0.0963
16666TIP3   OH271412   0.423   1.699  14.888 -0.1498  0.3324 -0.2469
16666TIP3    H171413   0.381   1.689  14.973 -0.8701 -0.4654 -0.6841
16666TIP3    H271414   0.471   1.781  14.894 -0.0512  0.1907  0.9889
16667TIP3   OH271415   6.036   6.663   3.971  0.1792  0.3207  0.1931
16667TIP3    H171416   5.956   6.692   4.013 -1.5876  0.3493 -3.0089
16667TIP3    H271417   6.043   6.570   3.994  0.2508  0.7545  1.9843
16668TIP3   OH271418   4.921   3.324   2.319 -0.2028  0.2652 -0.4122
16668TIP3    H171419   4.948   3.408   2.356 -0.0616  0.6717 -1.4086
16668TIP3    H271420   4.939   3.260   2.388 -1.3135  1.1899  0.7548
16669TIP3   OH271421   1.848   5.959  16.190  0.3772  0.3795  0.4908
16669TIP3    H171422   1.875   5.940  16.100 -0.5428  1.9091 -0.1230
16669TIP3    H271423   1.753   5.971  16.185  0.5089  1.9375  1.3967
16670TIP3   OH271424   2.524   0.116   4.566  0.6610 -0.0033 -0.1244
16670TIP3    H171425   2.449   0.164   4.533 -0.1172 -0.4891  0.9245
16670TIP3    H271426   2.590   0.125   4.497 -0.2405  0.6809 -0.9131
16671TIP3   OH271427   4.354   6.039  13.641 -0.0785 -0.6090 -0.1057
16671TIP3    H171428   4.341   6.049  13.546 -1.4921 -2.3009 -0.1155
16671TIP3    H271429   4.273   6.072  13.680 -0.1651 -1.4560  0.4310
16672TIP3   OH271430   4.533   6.676   2.569  0.2376 -0.6238 -0.1878
16672TIP3    H171431   4.477   6.750   2.592  1.1791 -0.3055  1.1301
16672TIP3    H271432   4.597   6.712   2.507 -1.4359 -1.1575 -2.2713
16673TIP3   OH271433   4.294   0.914  12.225 -0.2743 -0.1893  0.1141
16673TIP3    H171434   4.364   0.978  12.210  1.7632 -2.2304  0.6914
16673TIP3    H271435   4.262   0.935  12.313 -1.1196  1.3955 -0.5460
16674TIP3   OH271436   3.332   5.313  15.434  0.5133 -0.3123  0.1881
16674TIP3    H171437   3.310   5.250  15.503  0.9629 -0.0238  0.5915
16674TIP3    H271438   3.375   5.385  15.480 -1.4761  1.0574 -0.0296
16675TIP3   OH271439   0.509   4.629  11.328 -0.5986  0.4888 -0.2134
16675TIP3    H171440   0.552   4.706  11.364 -0.9335  0.1805  0.8570
16675TIP3    H271441   0.580   4.566  11.313 -0.5813  0.2437  0.8776
16676TIP3   OH271442   2.904   2.967   1.174  0.6819 -0.2450 -0.0505
16676TIP3    H171443   2.853   3.006   1.103 -0.4028 -0.0624  0.8239
16676TIP3    H271444   2.980   2.928   1.130  0.4728  0.6185 -1.2147
16677TIP3   OH271445   4.363   1.520   3.884 -0.3905  0.6092 -0.3017
16677TIP3    H171446   4.286   1.575   3.867 -1.1545 -0.4428 -0.3528
16677TIP3    H271447   4.414   1.569   3.949 -0.7615  1.6341 -0.7813
16678TIP3   OH271448   1.248   1.308   6.194 -0.0583 -0.4704  0.0110
16678TIP3    H171449   1.157   1.286   6.177  0.0764 -1.7698  0.8975
16678TIP3    H271450   1.274   1.250   6.265  1.1907  0.5378  0.4068
16679TIP3   OH271451   5.762   6.074  12.586 -0.1411  0.0266  0.2168
16679TIP3    H171452   5.749   5.989  12.628  3.5586 -0.9926 -0.5499
16679TIP3    H271453   5.822   6.121  12.644  1.2985  0.3986 -1.5194
16680TIP3   OH271454   3.408   6.441  13.492  0.0146  0.3243 -0.2529
16680TIP3    H171455   3.328   6.426  13.441 -0.2381  0.0310  0.2188
16680TIP3    H271456   3.469   6.480  13.430 -0.2921 -0.0191 -0.7808
16681TIP3   OH271457   3.177   4.361   5.410  0.2048 -0.0137 -0.7603
16681TIP3    H171458   3.268   4.340   5.430 -0.1585 -0.6367  0.3325
16681TIP3    H271459   3.148   4.289   5.353  0.1961 -0.2017 -0.5211
16682TIP3   OH271460   5.768   0.656   5.424  0.0258  0.1281 -0.5105
16682TIP3    H171461   5.764   0.734   5.479 -0.0766  1.0131 -1.7483
16682TIP3    H271462   5.676   0.628   5.415  0.1820 -0.8928  0.9838
16683TIP3   OH271463   1.214   6.574   5.429  0.2806 -0.1869  0.8302
16683TIP3    H171464   1.245   6.654   5.472 -1.9179  0.6372  0.9558
16683TIP3    H271465   1.138   6.547   5.480 -0.1319 -1.2939 -0.3355
16684TIP3   OH271466   2.485   4.155   2.514 -0.2049 -0.2822  0.4882
16684TIP3    H171467   2.505   4.087   2.578  2.7111  0.8602  0.8889
16684TIP3    H271468   2.407   4.123   2.468 -0.0896 -2.9076  2.0139
16685TIP3   OH271469   0.493   4.395   2.200 -0.1664 -0.1961 -0.1073
16685TIP3    H171470   0.416   4.366   2.249  1.3898 -0.8919  1.9930
16685TIP3    H271471   0.506   4.486   2.228  0.6570 -0.5584  0.7239
16686TIP3   OH271472   0.141   3.318  16.043  0.1134 -0.1920 -0.3550
16686TIP3    H171473   0.162   3.229  16.071  1.2362  0.0061 -0.5470
16686TIP3    H271474   0.168   3.373  16.117 -0.1614  0.0283 -0.4187
16687TIP3   OH271475   6.684   3.975  14.955  0.2582  0.1417  0.0130
16687TIP3    H171476   6.629   3.997  15.030 -0.4252  1.4128 -0.8457
16687TIP3    H271477   6.738   4.053  14.941 -0.1604  0.2127 -1.2787
16688TIP3   OH271478   2.634   2.131  12.021 -0.3710 -0.2472 -0.3870
16688TIP3    H171479   2.599   2.179  12.096  1.6541  1.0789 -0.2702
16688TIP3    H271480   2.644   2.041  12.053  0.8189  0.3834  1.0476
16689TIP3   OH271481   1.299   1.395   4.899 -0.2656 -0.5798 -0.1101
16689TIP3    H171482   1.345   1.332   4.955 -0.1848 -1.2900 -0.9704
16689TIP3    H271483   1.206   1.381   4.919 -0.1149  0.9268  1.7036
16690TIP3   OH271484   2.323   6.184  11.589 -0.0995  0.6078 -0.1508
16690TIP3    H171485   2.318   6.235  11.508  1.3111  1.6076  0.3744
16690TIP3    H271486   2.323   6.250  11.658 -0.0844 -0.1960  0.6184
16691TIP3   OH271487   0.389   0.392   4.906  0.3566 -0.3115  0.3322
16691TIP3    H171488   0.395   0.471   4.852 -0.8780 -0.5427 -0.1636
16691TIP3    H271489   0.394   0.320   4.843 -0.1533 -0.5957  0.6122
16692TIP3   OH271490   2.453   0.784  14.740  0.1496 -0.6185  0.4311
16692TIP3    H171491   2.369   0.826  14.761  0.4439  0.0027  0.3763
16692TIP3    H271492   2.518   0.853  14.753  0.5499 -0.8151 -0.4861
16693TIP3   OH271493   2.258   6.185   5.702  0.4467  0.6966  0.3134
16693TIP3    H171494   2.295   6.273   5.712 -1.4929  1.5513  0.2120
16693TIP3    H271495   2.187   6.181   5.766 -0.5811 -0.1704 -0.8486
16694TIP3   OH271496   5.992   4.498   0.555 -0.2551 -0.0158  0.0613
16694TIP3    H171497   5.901   4.527   0.555 -0.4918 -0.7499 -0.7293
16694TIP3    H271498   5.998   4.437   0.482  0.6168 -0.7899  0.7663
16695TIP3   OH271499   1.032   3.316  11.382 -0.2323 -0.2991  0.1568
16695TIP3    H171500   0.962   3.365  11.425 -1.0031  1.8452 -3.3149
16695TIP3    H271501   1.023   3.338  11.289  2.6612 -3.0301 -0.8644
16696TIP3   OH271502   1.113   6.257  12.495  0.0295 -0.0022 -0.0083
16696TIP3    H171503   1.136   6.201  12.569  0.4764  0.1406 -0.0389
16696TIP3    H271504   1.197   6.294  12.466 -0.1764  0.1399 -0.4227
16697TIP3   OH271505   1.837   5.009   0.353  0.3751 -0.0154 -0.1487
16697TIP3    H171506   1.771   4.946   0.382  0.3915  0.2459  0.4538
16697TIP3    H271507   1.860   5.059   0.432 -0.2313  1.2848 -0.7636
16698TIP3   OH271508   4.024   4.706   0.771 -0.3403  0.0180  0.3028
16698TIP3    H171509   3.956   4.677   0.710 -0.8957  0.4636  0.6996
16698TIP3    H271510   3.988   4.686   0.858  0.5908 -0.9304  0.4817
16699TIP3   OH271511   0.546   2.089  13.477  0.3462 -0.1739  0.6608
16699TIP3    H171512   0.605   2.152  13.519  1.8434 -0.5896 -0.7743
16699TIP3    H271513   0.506   2.139  13.406  0.9087 -0.6074  0.0402
16700TIP3   OH271514   5.165   3.744   1.801  0.3325 -0.1568 -0.1310
16700TIP3    H171515   5.105   3.779   1.867  0.6147  1.1225 -0.5488
16700TIP3    H271516   5.147   3.796   1.722  1.6183 -0.1356 -0.4126
16701TIP3   OH271517   5.945   2.342   1.104 -0.1512  0.6598 -0.6424
16701TIP3    H171518   5.966   2.398   1.029  0.0141  1.3881 -0.0657
16701TIP3    H271519   5.895   2.400   1.163 -0.2639  0.1022 -0.1900
16702TIP3   OH271520   0.437   4.652  17.100  0.1009 -0.3849  0.0604
16702TIP3    H171521   0.464   4.581  17.041 -0.7425 -0.6692  0.0117
16702TIP3    H271522   0.484   4.635  17.181  1.4413  0.1253 -0.5879
16703TIP3   OH271523   6.002   4.697  16.047  0.0173  0.3761 -0.2782
16703TIP3    H171524   6.037   4.707  15.958  0.3538 -2.1380 -0.4502
16703TIP3    H271525   5.926   4.755  16.049  0.3803  0.9507 -1.9995
16704TIP3   OH271526   0.322   5.681   3.708  0.4243  0.5849 -0.2615
16704TIP3    H171527   0.272   5.725   3.776 -1.1814  0.4429 -1.3070
16704TIP3    H271528   0.336   5.592   3.741  2.5548  1.4621  1.2947
16705TIP3   OH271529   4.617   3.639  12.570  0.0665 -0.3678 -1.1383
16705TIP3    H171530   4.626   3.717  12.515 -1.8385 -0.8041 -2.1190
16705TIP3    H271531   4.702   3.595  12.563  0.5161  0.6241 -2.1286
16706TIP3   OH271532   4.544   3.573  14.251  0.1479  0.2183  1.2696
16706TIP3    H171533   4.612   3.591  14.315  0.1830 -0.5482  1.4447
16706TIP3    H271534   4.558   3.482  14.225  0.9894  0.9022 -0.8319
16707TIP3   OH271535   0.135   5.069  11.303  0.0873  0.4257 -0.4111
16707TIP3    H171536   0.174   5.146  11.262 -1.6365  0.7131 -1.5641
16707TIP3    H271537   0.166   5.072  11.394 -1.0768  3.2745 -0.0554
16708TIP3   OH271538   1.106   1.695  12.748  0.1264 -0.6661 -0.0773
16708TIP3    H171539   1.116   1.611  12.794 -1.2767 -1.0165 -0.3777
16708TIP3    H271540   1.012   1.710  12.748  0.4675  1.7037  1.3480
16709TIP3   OH271541   1.211   0.551  11.103 -0.2647 -0.2188 -0.2026
16709TIP3    H171542   1.135   0.495  11.090 -1.2748  0.8080  1.1412
16709TIP3    H271543   1.206   0.615  11.032 -2.0526  1.3269  1.2460
16710TIP3   OH271544   3.408   5.493  15.623 -0.3158 -0.0825 -0.3314
16710TIP3    H171545   3.383   5.585  15.615  0.5533  0.0476 -1.6435
16710TIP3    H271546   3.363   5.463  15.702 -1.4730  1.1771 -0.4905
16711TIP3   OH271547   4.738   4.029   1.892  0.2404  0.1160  0.1446
16711TIP3    H171548   4.687   4.045   1.812 -0.6386  1.1702  0.8978
16711TIP3    H271549   4.681   3.974   1.946  0.3772  0.3192  0.4980
16712TIP3   OH271550   6.749   6.460  15.511 -0.7527 -0.4462  0.7982
16712TIP3    H171551   6.809   6.509  15.567 -1.2126 -1.6770  2.3808
16712TIP3    H271552   6.807   6.410  15.452 -0.2512 -0.1725  1.0569
16713TIP3   OH271553   3.503   2.278   5.581 -0.2588  0.2750 -0.8030
16713TIP3    H171554   3.425   2.223   5.586 -0.7457  1.0761  0.9292
16713TIP3    H271555   3.497   2.334   5.658  1.9913  0.4029 -0.6934
16714TIP3   OH271556   0.029   5.682  15.061  0.2050 -0.1772  0.1107
16714TIP3    H171557   0.111   5.634  15.053  0.1967 -0.5110  1.7953
16714TIP3    H271558  -0.003   5.659  15.149 -1.3687  0.4353 -0.2909
16715TIP3   OH271559   1.849   0.024  11.510  0.2789  0.7382  0.0745
16715TIP3    H171560   1.910  -0.048  11.495 -0.5455  0.2554 -0.9713
16715TIP3    H271561   1.771  -0.018  11.547 -0.6772  0.9325 -1.7048
16716TIP3   OH271562   6.505   1.799  15.537  0.0561  0.0422  0.4624
16716TIP3    H171563   6.527   1.877  15.486 -1.1387 -0.3862 -0.7433
16716TIP3    H271564   6.475   1.736  15.472  0.4131 -1.2085  1.4925
16717TIP3   OH271565   3.880   4.339   0.186 -0.3564  0.0100 -0.9319
16717TIP3    H171566   3.882   4.422   0.138 -2.7522  2.2156  2.5067
16717TIP3    H271567   3.961   4.337   0.236 -1.5666  1.7560  1.1769
16718TIP3   OH271568   0.495   3.491   0.941  0.8076  0.1410  0.1162
16718TIP3    H171569   0.477   3.401   0.968  2.1101 -0.3376 -0.5334
16718TIP3    H271570   0.560   3.482   0.871  0.5703  1.5615 -0.3061
16719TIP3   OH271571   6.464   1.349  12.071 -0.2889  0.1548 -0.2176
16719TIP3    H171572   6.480   1.287  11.999 -1.8305 -0.7443  0.1977
16719TIP3    H271573   6.537   1.410  12.066  0.2437 -0.5819 -1.8391
16720TIP3   OH271574   6.732   3.189   1.227  0.5574 -0.5954 -0.1326
16720TIP3    H171575   6.782   3.156   1.303  1.3072 -0.6031 -0.6241
16720TIP3    H271576   6.675   3.116   1.204 -0.6699 -0.1035  1.2804
16721TIP3   OH271577   0.213   2.919   1.565 -0.0019 -0.3093 -0.0656
16721TIP3    H171578   0.162   2.890   1.641 -1.7509  0.8247 -0.7757
16721TIP3    H271579   0.293   2.867   1.569 -1.1262 -2.0126  1.1971
16722TIP3   OH271580   0.778   1.409   5.889 -0.0262 -0.6026 -0.0197
16722TIP3    H171581   0.775   1.496   5.849 -2.1771  0.6819  2.7255
16722TIP3    H271582   0.868   1.400   5.919  0.3605  0.4570 -0.8168
16723TIP3   OH271583   1.312   3.533   5.812  0.2226  0.0798 -0.1473
16723TIP3    H171584   1.333   3.550   5.720  2.0789 -0.0717  0.2450
16723TIP3    H271585   1.341   3.611   5.859 -1.8699  0.7061  0.1922
16724TIP3   OH271586   5.085   4.194  13.438  0.2090 -0.2083 -0.3104
16724TIP3    H171587   5.150   4.253  13.475  0.5635 -0.5689 -0.3483
16724TIP3    H271588   5.090   4.209  13.344  0.5509 -0.5475 -0.3498
16725TIP3   OH271589   1.326   0.759  11.817  0.7841 -0.0261  0.3579
16725TIP3    H171590   1.265   0.806  11.760  1.8510 -0.5568 -1.2457
16725TIP3    H271591   1.372   0.828  11.865 -1.1139  0.3769  1.6561
16726TIP3   OH271592   1.235   0.883   2.214  0.2370  0.2350  0.1899
16726TIP3    H171593   1.232   0.790   2.191  0.1869  0.4362 -0.6178
16726TIP3    H271594   1.144   0.907   2.231  0.4949 -0.4429  2.7634
16727TIP3   OH271595   0.555   4.288  15.439 -0.1438 -0.1535 -0.3544
16727TIP3    H171596   0.515   4.243  15.513  0.0368  0.3855  0.0718
16727TIP3    H271597   0.559   4.379  15.466  1.0626 -0.1503 -0.5247
16728TIP3   OH271598   0.809   6.156  14.234 -0.3847  0.3349  0.3170
16728TIP3    H171599   0.805   6.071  14.277 -3.9401 -1.5673 -3.4111
16728TIP3    H271600   0.737   6.206  14.274  0.1956  0.7447  0.8505
16729TIP3   OH271601   5.614   5.932  12.263 -0.5246 -0.4618 -0.3798
16729TIP3    H171602   5.568   6.015  12.252 -1.8626 -0.8465  1.9915
16729TIP3    H271603   5.624   5.898  12.174 -1.8041  1.2532 -1.2099
16730TIP3   OH271604   5.707   5.678   1.867  0.0654  0.3468  0.8213
16730TIP3    H171605   5.732   5.596   1.908 -1.1814  0.3363  1.5819
16730TIP3    H271606   5.704   5.658   1.773 -0.8281 -0.6315  1.0526
16731TIP3   OH271607   2.050   0.086  14.779 -0.3367  0.2489 -0.2663
16731TIP3    H171608   2.110   0.135  14.834 -1.0937  0.7914  0.0871
16731TIP3    H271609   1.973   0.071  14.834 -0.0306 -1.5247 -0.2988
16732TIP3   OH271610   0.236   6.242  17.195 -0.0045 -0.1096 -0.0027
16732TIP3    H171611   0.256   6.185  17.121  0.2321 -0.8334  0.6116
16732TIP3    H271612   0.160   6.202  17.237 -1.3347  1.3393 -0.9483
16733TIP3   OH271613   2.659   3.342   2.442 -0.6963 -0.3019 -0.8878
16733TIP3    H171614   2.653   3.410   2.375  2.6504  0.8779 -0.0795
16733TIP3    H271615   2.642   3.388   2.524 -2.3246 -1.2525 -0.6788
16734TIP3   OH271616   4.582   4.555  14.740 -0.0026  0.0486  0.5939
16734TIP3    H171617   4.614   4.494  14.673 -2.2554  1.2749 -1.6654
16734TIP3    H271618   4.490   4.531  14.752 -1.1523  3.4557 -0.9076
16735TIP3   OH271619   1.462   0.480  15.496 -0.3782  0.2893 -0.1997
16735TIP3    H171620   1.542   0.430  15.509  0.0898  1.7153  2.9321
16735TIP3    H271621   1.410   0.463  15.574 -1.1618  2.8373 -0.1045
16736TIP3   OH271622   5.711   5.221  11.374  0.0378 -0.3186  0.5724
16736TIP3    H171623   5.769   5.251  11.304 -0.3585  0.1892  0.4654
16736TIP3    H271624   5.664   5.299  11.402 -0.3272 -0.6603  0.9203
16737TIP3   OH271625   6.684   1.105   6.361 -0.2997  0.7553 -0.1913
16737TIP3    H171626   6.709   1.178   6.419 -1.3040  0.9201  0.0387
16737TIP3    H271627   6.589   1.102   6.366 -0.3193  0.0339 -0.9575
16738TIP3   OH271628   1.739   5.226  13.109  0.1848 -0.0514 -0.8436
16738TIP3    H171629   1.669   5.227  13.043  0.9427  0.1115 -1.6484
16738TIP3    H271630   1.820   5.239  13.059  0.7065  0.7587  0.1902
16739TIP3   OH271631   0.688   3.835   4.009 -0.5470  0.2858  0.4126
16739TIP3    H171632   0.747   3.898   4.049  0.5007 -0.4492  0.0551
16739TIP3    H271633   0.694   3.757   4.064 -2.0018  0.5518  0.9781
16740TIP3   OH271634   1.073   0.838  12.369  1.3727  0.0659 -0.1793
16740TIP3    H171635   1.139   0.810  12.433  1.0381  0.4845  0.3563
16740TIP3    H271636   0.991   0.836  12.417  1.1089  0.3344 -0.6136
16741TIP3   OH271637   0.677   6.484   4.476 -0.0386  0.4483 -0.2636
16741TIP3    H171638   0.629   6.540   4.537  2.1240  1.4654  0.5840
16741TIP3    H271639   0.648   6.511   4.389  1.3651  3.3359  0.1012
16742TIP3   OH271640   0.165   1.930   0.720  0.3639 -0.4041  0.5148
16742TIP3    H171641   0.087   1.876   0.708  1.6347 -2.8863  2.8393
16742TIP3    H271642   0.221   1.907   0.646 -0.0043 -0.6162  0.3008
16743TIP3   OH271643   0.520   0.231   3.867  0.2114  0.2520  0.0340
16743TIP3    H171644   0.538   0.197   3.779 -1.5906 -0.1131 -0.1966
16743TIP3    H271645   0.599   0.281   3.889  1.1578 -0.5882 -1.3190
16744TIP3   OH271646   2.732   3.370   5.203  0.3040  0.6003 -0.2151
16744TIP3    H171647   2.748   3.276   5.193 -0.7972  0.3375  0.3707
16744TIP3    H271648   2.730   3.404   5.114  0.2197 -0.0150 -0.4492
16745TIP3   OH271649   0.556   6.719  11.623  0.5202  0.0190  0.0744
16745TIP3    H171650   0.648   6.745  11.634  0.0661  1.7006  0.0943
16745TIP3    H271651   0.537   6.737  11.531  0.5083 -1.3608 -0.2006
16746TIP3   OH271652   2.959   3.697   3.764 -0.3748 -0.2904 -0.6767
16746TIP3    H171653   2.910   3.769   3.804 -0.0704 -0.8923  0.8323
16746TIP3    H271654   3.049   3.708   3.796 -0.2993 -1.2671 -0.5204
16747TIP3   OH271655   3.299   5.774   3.643 -0.2478  0.8321 -0.3516
16747TIP3    H171656   3.319   5.738   3.729 -1.5379  0.1539 -0.3171
16747TIP3    H271657   3.233   5.714   3.607  0.0398  1.2906 -1.6743
16748TIP3   OH271658   6.048   4.821  12.889  0.1830 -0.5156 -0.0697
16748TIP3    H171659   6.009   4.895  12.842  0.1651 -1.0920 -0.9728
16748TIP3    H271660   5.976   4.783  12.939  0.5338  1.0645  1.6999
16749TIP3   OH271661   3.045   4.160  12.762 -0.0475 -0.8605 -0.8503
16749TIP3    H171662   3.047   4.231  12.827 -1.2410  0.2160 -1.9747
16749TIP3    H271663   3.137   4.138  12.749  0.2824 -0.2133  0.2626
16750TIP3   OH271664   2.658   0.707  11.650 -0.0267  0.0441  0.3424
16750TIP3    H171665   2.618   0.624  11.674 -1.0608 -0.2373 -2.1516
16750TIP3    H271666   2.590   0.772  11.667 -0.3708 -0.0240 -0.7595
16751TIP3   OH271667   3.752   2.042  12.170 -0.5048 -0.1203  0.2189
16751TIP3    H171668   3.685   2.040  12.102 -0.6821 -3.6833  0.4167
16751TIP3    H271669   3.835   2.037  12.122 -0.5776 -0.9951  0.1766
16752TIP3   OH271670   2.208   3.403   3.366 -0.1215 -0.0446  0.3560
16752TIP3    H171671   2.196   3.320   3.320 -2.9412  0.2507  0.4844
16752TIP3    H271672   2.250   3.379   3.448 -0.0229 -1.2270 -0.0369
16753TIP3   OH271673   6.376   2.310   1.625  0.6632 -0.0671 -0.3618
16753TIP3    H171674   6.430   2.381   1.662 -0.3571  0.0877  0.8343
16753TIP3    H271675   6.369   2.332   1.532  0.2693  1.4756  0.0178
16754TIP3   OH271676   5.732   3.292  12.382  0.1176  0.4010 -0.1034
16754TIP3    H171677   5.804   3.355  12.388 -1.3281  1.9544  1.2654
16754TIP3    H271678   5.703   3.280  12.472 -1.6819  0.2126 -0.6862
16755TIP3   OH271679   2.429   3.313  17.074  0.1809 -0.5159  0.5304
16755TIP3    H171680   2.457   3.360  17.152  1.8315  0.7048 -0.7553
16755TIP3    H271681   2.351   3.264  17.102  0.1104  0.7312  2.6383
16756TIP3   OH271682   4.460   2.743  14.560  0.2709 -0.5339 -0.0817
16756TIP3    H171683   4.533   2.803  14.577  0.4132 -1.0311  1.0970
16756TIP3    H271684   4.445   2.700  14.644 -0.9195 -0.9459 -0.5065
16757TIP3   OH271685   1.275   4.368  14.354 -0.2562  0.2883  0.2511
16757TIP3    H171686   1.197   4.348  14.406 -0.4232  1.0201  0.2890
16757TIP3    H271687   1.244   4.428  14.286 -0.0405 -0.7015 -0.7294
16758TIP3   OH271688   3.841   0.070  12.538  0.0654  0.7214 -0.0220
16758TIP3    H171689   3.873  -0.015  12.509 -0.7353 -0.4720  2.4850
16758TIP3    H271690   3.916   0.129  12.526  0.5170 -0.2385 -2.0698
16759TIP3   OH271691   4.718   1.058  13.098  0.0537 -0.1128 -0.3631
16759TIP3    H171692   4.694   0.974  13.138 -0.2489  0.1414 -0.0116
16759TIP3    H271693   4.764   1.106  13.167 -0.1841  0.1948 -0.4145
16760TIP3   OH271694   1.000   0.719  14.345  0.1153  0.0229 -0.3213
16760TIP3    H171695   1.030   0.654  14.282 -1.1370  0.2599 -1.1886
16760TIP3    H271696   1.075   0.778  14.356  0.3134  0.0479 -1.6851
16761TIP3   OH271697   1.451   1.962  11.352 -0.6374 -0.3900 -0.0777
16761TIP3    H171698   1.441   2.018  11.275  0.3563  0.5298  0.4465
16761TIP3    H271699   1.392   1.888  11.336  0.2764 -0.7067 -2.1756
16762TIP3   OH271700   6.361   5.993  14.388  0.0116 -0.5037  0.3791
16762TIP3    H171701   6.349   6.063  14.452 -0.3483 -0.2613  0.0493
16762TIP3    H271702   6.454   5.971  14.394  0.3681  0.7251 -0.2321
16763TIP3   OH271703   5.295   1.674  12.569 -0.5213  0.1470 -0.3946
16763TIP3    H171704   5.348   1.631  12.635 -2.2352  1.7007  2.0766
16763TIP3    H271705   5.229   1.609  12.544 -0.4655 -0.1121  0.1450
16764TIP3   OH271706   3.791   0.265  11.605 -0.1347 -0.5029 -0.1955
16764TIP3    H171707   3.851   0.225  11.667 -0.7726 -0.2841  0.5836
16764TIP3    H271708   3.775   0.198  11.539 -2.4638 -2.1617  1.9498
16765TIP3   OH271709   3.601   2.274   6.283 -0.3144  0.0049 -0.2642
16765TIP3    H171710   3.556   2.318   6.355 -0.6964  1.9794 -1.6800
16765TIP3    H271711   3.693   2.273   6.310 -0.6930 -0.9009  1.0478
16766TIP3   OH271712   0.270   1.711   2.102  0.3243  0.1460 -0.0164
16766TIP3    H171713   0.287   1.622   2.133 -1.9548 -0.1770  0.3847
16766TIP3    H271714   0.285   1.706   2.007 -0.0298 -0.7347 -0.0341
16767TIP3   OH271715   0.061   0.335   3.426 -1.4186 -0.1397 -0.3724
16767TIP3    H171716   0.071   0.331   3.331  0.5341  1.0852 -0.2523
16767TIP3    H271717   0.013   0.417   3.442 -0.4582  0.3956 -0.2225
16768TIP3   OH271718   3.173   1.249  13.363 -0.7641  0.1656 -0.6001
16768TIP3    H171719   3.252   1.194  13.369 -1.1119 -0.2036  0.8155
16768TIP3    H271720   3.105   1.189  13.332 -0.8863  0.0770 -0.1543
16769TIP3   OH271721   0.447   2.275  16.450 -0.7346  0.0597 -0.2768
16769TIP3    H171722   0.386   2.233  16.390  0.0525  1.1831 -1.9167
16769TIP3    H271723   0.529   2.226  16.439 -0.2296  1.0435 -1.1134
16770TIP3   OH271724   2.954   0.611   3.433 -0.0740 -0.4652  0.1805
16770TIP3    H171725   2.950   0.650   3.520  0.8847 -0.9401  0.4447
16770TIP3    H271726   2.883   0.547   3.432  1.0567 -1.7766  1.2816
16771TIP3   OH271727   1.896   0.789  15.069 -0.3604  0.6596 -0.0799
16771TIP3    H171728   1.952   0.722  15.030 -0.4719  0.6626 -0.2444
16771TIP3    H271729   1.884   0.761  15.160  0.0797  0.7688  0.0154
16772TIP3   OH271730   4.074   1.753  15.759 -0.1324 -0.6958 -0.6195
16772TIP3    H171731   4.137   1.681  15.758 -0.7666 -1.2949  0.9404
16772TIP3    H271732   4.002   1.723  15.703 -0.6409 -1.5236  0.4579
16773TIP3   OH271733   4.578   2.905   2.099 -0.2971 -0.8613  0.2131
16773TIP3    H171734   4.487   2.931   2.088  0.6973  1.5979 -3.1430
16773TIP3    H271735   4.628   2.978   2.062  2.9655 -2.9828  0.2410
16774TIP3   OH271736   6.190   2.276  16.003  0.2941  0.1817  0.1839
16774TIP3    H171737   6.154   2.280  15.914 -1.0390 -0.2757  0.6847
16774TIP3    H271738   6.275   2.320  15.996 -0.2377  1.0676 -1.0967
16775TIP3   OH271739   4.505   0.824  15.059  0.2999 -0.1186 -0.0202
16775TIP3    H171740   4.570   0.753  15.054 -0.6632 -1.0510  0.3559
16775TIP3    H271741   4.527   0.872  15.139  2.1359  1.1930 -1.2983
16776TIP3   OH271742   5.541   6.010   2.232  0.4195  0.4008  0.1050
16776TIP3    H171743   5.515   5.945   2.167  1.5440  0.6895 -0.6706
16776TIP3    H271744   5.625   6.043   2.199 -0.3543  2.5822  0.2125
16777TIP3   OH271745   2.709   0.854  10.420 -0.2086 -0.7044  0.6180
16777TIP3    H171746   2.778   0.824  10.360  0.2968 -2.6873  2.1310
16777TIP3    H271747   2.640   0.789  10.410 -0.9875  0.1129  0.6772
16778TIP3   OH271748   4.979   5.206  11.570  0.0933 -0.3484  0.6478
16778TIP3    H171749   4.967   5.144  11.642  1.2080 -0.9750  0.3019
16778TIP3    H271750   4.965   5.154  11.491 -1.7044  0.4660  0.4088
16779TIP3   OH271751   3.449   2.760   2.042  0.4875 -0.2864 -0.3548
16779TIP3    H171752   3.440   2.830   2.106  0.4072 -0.6541  0.0399
16779TIP3    H271753   3.360   2.727   2.030  0.7258 -1.3509  0.6354
16780TIP3   OH271754   2.155   6.234  14.729 -0.2081 -0.2503 -0.6842
16780TIP3    H171755   2.193   6.147  14.737  2.5693  0.9107 -0.6827
16780TIP3    H271756   2.146   6.248  14.635  1.0308  0.1590 -0.7419
16781TIP3   OH271757   2.912   3.986  13.182 -0.4842  0.4010  0.1264
16781TIP3    H171758   2.862   4.023  13.255 -0.6876  1.1163 -0.3749
16781TIP3    H271759   2.850   3.931  13.135 -1.0095  1.8539 -0.9145
16782TIP3   OH271760   5.576   3.386  15.859  0.2001  0.1825 -0.2767
16782TIP3    H171761   5.490   3.375  15.900 -0.8551  1.7028 -1.9687
16782TIP3    H271762   5.626   3.437  15.923  1.0844 -3.5959  2.2367
16783TIP3   OH271763   6.607   6.570  12.691 -0.0179  0.3658  0.3265
16783TIP3    H171764   6.595   6.635  12.621  0.8364  0.5490  0.3445
16783TIP3    H271765   6.669   6.611  12.751 -0.6279  0.1419  1.1171
16784TIP3   OH271766   3.262   3.469   4.410 -0.5533 -1.0203 -0.1469
16784TIP3    H171767   3.244   3.382   4.374  0.4301 -2.6501  3.1301
16784TIP3    H271768   3.179   3.496   4.449 -0.4349 -1.1909  0.2255
16785TIP3   OH271769   2.797   0.024   0.742 -0.2960 -0.0373  0.6011
16785TIP3    H171770   2.746   0.096   0.780  0.1096  0.6608 -0.1579
16785TIP3    H271771   2.850  -0.009   0.814  1.4571  2.1390  0.3600
16786TIP3   OH271772   4.794   2.281  16.519 -0.0819 -0.2246  0.3807
16786TIP3    H171773   4.829   2.233  16.594 -0.9198  1.0365  1.5954
16786TIP3    H271774   4.735   2.219  16.476  0.8908 -1.1613  0.3918
16787TIP3   OH271775   0.108   4.176  14.343  0.0560 -0.0948 -1.3486
16787TIP3    H171776   0.023   4.217  14.359  0.2619 -0.4322  0.6873
16787TIP3    H271777   0.094   4.084  14.362  1.1682  0.0322  0.1253
16788TIP3   OH271778   5.591   5.122   0.114  0.2170 -0.1396  0.8070
16788TIP3    H171779   5.638   5.176   0.051  2.8262 -0.0596  2.7606
16788TIP3    H271780   5.524   5.180   0.150  1.2622  0.9753  0.9601
16789TIP3   OH271781   5.401   4.053   0.662  0.9769 -0.0131 -0.6687
16789TIP3    H171782   5.380   4.144   0.685  2.0839  0.3343 -1.0296
16789TIP3    H271783   5.319   4.006   0.677  0.7530  0.7992  0.8462
16790TIP3   OH271784   1.775   3.815   1.331  0.5257 -0.3904 -0.0882
16790TIP3    H171785   1.717   3.779   1.264  0.8588  0.2375 -0.7284
16790TIP3    H271786   1.743   3.778   1.413 -1.0507  0.2726 -0.3823
16791TIP3   OH271787   2.874   6.618  13.172  0.0494 -0.7013  0.0976
16791TIP3    H171788   2.911   6.702  13.201 -0.1012 -0.2520 -0.9762
16791TIP3    H271789   2.822   6.588  13.246 -0.1631  0.3165  0.3714
16792TIP3   OH271790   0.537   4.292  16.639  0.1597  0.0592 -0.0221
16792TIP3    H171791   0.583   4.213  16.612  0.9903 -0.0032  1.5259
16792TIP3    H271792   0.447   4.264  16.654  0.1214 -0.2869 -0.9138
16793TIP3   OH271793   2.817   2.755   0.046 -0.4979 -0.1008 -0.2181
16793TIP3    H171794   2.805   2.678   0.102 -0.7603  0.8055  0.9912
16793TIP3    H271795   2.774   2.731  -0.037  0.2169 -1.5893 -0.1657
16794TIP3   OH271796   4.098   4.238  17.166 -0.6437 -0.2998  0.6594
16794TIP3    H171797   4.067   4.279  17.085 -0.7014  0.2303  0.9432
16794TIP3    H271798   4.019   4.197  17.204 -1.0187  1.0686  1.3922
16795TIP3   OH271799   5.404   4.121   1.640 -0.0624  0.4510 -0.1274
16795TIP3    H171800   5.443   4.171   1.711  1.0160 -0.5456 -0.0104
16795TIP3    H271801   5.473   4.114   1.574 -0.6502  0.2813 -0.7307
16796TIP3   OH271802   4.856   2.024  12.761  0.0745  0.3451 -0.3441
16796TIP3    H171803   4.771   2.063  12.779  1.4061  2.1946  2.2157
16796TIP3    H271804   4.904   2.092  12.714  0.4131 -0.4299 -1.1375
16797TIP3   OH271805   0.248   6.482   3.704  0.1635 -0.1066 -0.0265
16797TIP3    H171806   0.243   6.392   3.736  1.4796  0.3857  1.6627
16797TIP3    H271807   0.292   6.474   3.620  0.9140 -0.9927  0.4341
16798TIP3   OH271808   6.379   3.364  15.256  0.2695 -0.1957 -0.2010
16798TIP3    H171809   6.457   3.415  15.234  0.5550 -0.6024 -0.1335
16798TIP3    H271810   6.364   3.383  15.349  0.0526  0.1938 -0.3126
16799TIP3   OH271811   0.945   0.243   3.784  0.1348  0.1193  0.0930
16799TIP3    H171812   0.912   0.156   3.763  2.1099 -0.2146 -1.8856
16799TIP3    H271813   0.994   0.232   3.865  0.6416 -0.6840 -0.3198
16800TIP3   OH271814   0.805   4.914   3.953  0.1457 -0.5682  0.5937
16800TIP3    H171815   0.875   4.887   4.013 -0.5964  1.3501  2.3685
16800TIP3    H271816   0.736   4.848   3.964  0.3781 -0.7092  1.1795
16801TIP3   OH271817   3.499   0.912   3.021 -0.0051 -0.0965 -0.4368
16801TIP3    H171818   3.550   0.831   3.029 -0.2273 -0.1031  1.1258
16801TIP3    H271819   3.408   0.881   3.013 -0.2276 -0.0071  1.4202
16802TIP3   OH271820   0.017   5.102   2.267  0.0109 -0.9887  0.6618
16802TIP3    H171821   0.085   5.073   2.207  1.2120 -2.3197  2.6079
16802TIP3    H271822  -0.035   5.023   2.283 -1.4753 -0.1931 -0.1109
16803TIP3   OH271823   5.346   3.519  12.765 -0.3694  0.5646 -0.5570
16803TIP3    H171824   5.405   3.594  12.756 -0.1627  0.8316  2.3551
16803TIP3    H271825   5.289   3.543  12.839 -1.1462 -1.6039 -0.4281
16804TIP3   OH271826   2.887   4.508  14.944 -0.2535  0.4411  0.1852
16804TIP3    H171827   2.954   4.572  14.965  1.1974 -1.1940  0.6404
16804TIP3    H271828   2.927   4.423  14.963 -1.6563 -0.6944 -1.6691
16805TIP3   OH271829   4.771   0.157  13.202 -0.0827 -0.4071  0.6395
16805TIP3    H171830   4.781   0.092  13.272  1.4665  0.4736  1.2506
16805TIP3    H271831   4.826   0.230  13.229 -3.0668  1.8801  0.7788
16806TIP3   OH271832   2.414   5.914  13.664 -0.6909 -0.6308  0.0149
16806TIP3    H171833   2.477   5.878  13.600  0.0526  0.8533 -0.1067
16806TIP3    H271834   2.418   5.853  13.738  0.6553 -0.7354 -0.1303
16807TIP3   OH271835   0.907   5.790  11.333 -0.7581 -0.8701 -0.1509
16807TIP3    H171836   0.874   5.852  11.268  1.5630  0.1682 -0.3806
16807TIP3    H271837   0.960   5.728  11.283  0.4953 -0.4568  0.6516
16808TIP3   OH271838   3.715   6.674   5.862  0.1349  0.0146 -0.1320
16808TIP3    H171839   3.686   6.593   5.822 -2.5628  0.8752 -0.0281
16808TIP3    H271840   3.699   6.662   5.956  2.0291 -0.2359  0.1722
16809TIP3   OH271841   0.094   4.779   2.748  0.1133 -0.3195 -0.1504
16809TIP3    H171842   0.034   4.713   2.715 -1.2672  1.6024 -1.5718
16809TIP3    H271843   0.167   4.779   2.685  0.0798 -0.4220 -0.1897
16810TIP3   OH271844   1.149   3.038   6.143  0.0261  0.5249  0.4652
16810TIP3    H171845   1.060   3.042   6.178 -0.1711  1.3012 -0.0943
16810TIP3    H271846   1.166   3.126   6.110  0.3789 -0.0432 -0.9381
16811TIP3   OH271847   6.007   1.906  15.964  0.5002 -0.3717  0.3431
16811TIP3    H171848   6.101   1.892  15.976  0.5187 -0.1276  0.4811
16811TIP3    H271849   5.985   1.975  16.026 -0.0137 -1.2763  1.1842
16812TIP3   OH271850   5.664   4.559  14.514 -0.1902  0.0284  0.1152
16812TIP3    H171851   5.599   4.630  14.511  2.2956  2.4705  1.3298
16812TIP3    H271852   5.690   4.548  14.422 -0.7497  0.5276 -0.1146
16813TIP3   OH271853   6.361   5.458   0.861  0.1815  0.0596 -0.0925
16813TIP3    H171854   6.382   5.368   0.887  1.5253  0.3133 -0.2591
16813TIP3    H271855   6.440   5.508   0.880 -1.0601  1.5342  1.4204
16814TIP3   OH271856   6.125   2.110  16.206  0.2116  0.4315 -0.5173
16814TIP3    H171857   6.136   2.182  16.144  2.4792 -0.9477 -1.7558
16814TIP3    H271858   6.207   2.109  16.256 -0.8778  0.3972  1.3057
16815TIP3   OH271859   5.255   2.185   6.129  0.6375 -0.5517  0.1613
16815TIP3    H171860   5.167   2.194   6.165  0.5577  1.2556 -0.4408
16815TIP3    H271861   5.270   2.267   6.081  1.1506 -2.4026 -2.9790
16816TIP3   OH271862   5.736   4.296  11.777 -0.2419  0.2690  0.6524
16816TIP3    H171863   5.732   4.304  11.872  1.2922 -1.5416  0.8924
16816TIP3    H271864   5.828   4.306  11.756 -0.2071 -1.8911 -0.3775
16817TIP3   OH271865   3.463   1.171  16.125  0.8861 -1.2964  0.5008
16817TIP3    H171866   3.420   1.238  16.178  0.7785 -0.4643 -0.6206
16817TIP3    H271867   3.541   1.147  16.175  0.3502 -1.1251  1.4282
16818TIP3   OH271868   1.217   6.571   0.852 -0.0021  0.1438 -0.0934
16818TIP3    H171869   1.254   6.653   0.885  1.8172 -0.9574  0.6705
16818TIP3    H271870   1.251   6.564   0.763  0.0343  0.1048 -0.0766
16819TIP3   OH271871   0.099   1.157   5.488 -0.0441 -0.8522 -0.7225
16819TIP3    H171872   0.100   1.201   5.573 -0.4301  0.0214 -1.1692
16819TIP3    H271873   0.008   1.133   5.474  0.1708 -1.8615 -0.4568
16820TIP3   OH271874   3.447   5.219  11.188  0.0674 -0.1061  0.6235
16820TIP3    H171875   3.391   5.143  11.202  0.8162 -0.6610  0.6417
16820TIP3    H271876   3.480   5.242  11.275  1.0944 -0.7435  0.4173
16821TIP3   OH271877   3.581   4.363  17.116  0.8224 -0.4794 -0.2645
16821TIP3    H171878   3.526   4.435  17.084  1.6341  0.0896 -0.3974
16821TIP3    H271879   3.661   4.369  17.063  0.7420 -1.7219 -0.5440
16822TIP3   OH271880   2.316   0.760  13.273 -1.0587  0.2663 -0.0622
16822TIP3    H171881   2.395   0.733  13.226 -1.2730 -1.3912  0.4915
16822TIP3    H271882   2.331   0.852  13.294  0.3794  0.1833 -0.6476
16823TIP3   OH271883   3.611   4.419   4.089 -0.1428 -0.1649 -0.6732
16823TIP3    H171884   3.680   4.354   4.106  0.4028  0.6874  0.5206
16823TIP3    H271885   3.601   4.420   3.994 -1.3035 -3.1517 -0.6312
16824TIP3   OH271886   3.334   3.372   1.375 -0.2303 -0.0270  0.2999
16824TIP3    H171887   3.254   3.348   1.328 -1.9847  0.2760  2.9461
16824TIP3    H271888   3.337   3.468   1.368  0.8400 -0.1648 -1.2098
16825TIP3   OH271889   3.190   3.295  12.448  0.2477 -0.1724  0.0560
16825TIP3    H171890   3.143   3.265  12.371  0.3724  0.2495 -0.1901
16825TIP3    H271891   3.237   3.373  12.418 -0.7320  0.7438  0.8913
16826TIP3   OH271892   4.289   5.664  16.782 -0.5488  0.3893  0.2248
16826TIP3    H171893   4.196   5.658  16.760 -0.2693 -3.4544 -0.2820
16826TIP3    H271894   4.333   5.672  16.697 -0.3030 -0.4481  0.2625
16827TIP3   OH271895   6.681   3.929  12.461  0.2532 -0.2808 -0.4511
16827TIP3    H171896   6.746   3.922  12.531  0.1246 -1.2164 -0.4111
16827TIP3    H271897   6.652   4.020  12.464 -0.4235 -0.5179  1.3371
16828TIP3   OH271898   4.980   2.369   1.131 -0.0448  0.2682  0.5815
16828TIP3    H171899   5.038   2.412   1.069  0.2107 -1.7026 -0.5958
16828TIP3    H271900   5.029   2.365   1.213  1.1187 -0.5270 -0.1450
16829TIP3   OH271901   2.145   1.184   3.833  0.1667  0.1081  0.6169
16829TIP3    H171902   2.209   1.245   3.871 -0.1550 -0.1097  1.5051
16829TIP3    H271903   2.146   1.205   3.740  1.1040  0.5153  0.7048
16830TIP3   OH271904   0.409   3.946   3.510 -0.1834 -0.2666  0.4614
16830TIP3    H171905   0.342   4.012   3.492 -0.4025 -1.0606 -1.7481
16830TIP3    H271906   0.362   3.876   3.555 -0.8231 -0.6859 -0.8084
16831TIP3   OH271907   0.729   0.927   1.481  0.1900 -0.0683  0.0151
16831TIP3    H171908   0.722   0.835   1.455 -0.2895  0.3179 -1.2425
16831TIP3    H271909   0.783   0.967   1.413 -0.4623  0.8020  0.0071
16832TIP3   OH271910   4.137   6.578   0.826 -0.1805  0.2434 -0.1379
16832TIP3    H171911   4.199   6.519   0.782  0.7563  0.0463  1.4159
16832TIP3    H271912   4.073   6.600   0.758  0.0506 -1.7201 -1.0332
16833TIP3   OH271913   0.014   2.779   0.684 -0.8576  0.0352  0.5110
16833TIP3    H171914   0.100   2.747   0.656 -1.4252 -2.2326  1.2953
16833TIP3    H271915  -0.012   2.720   0.754 -3.5271  0.0224 -0.4477
16834TIP3   OH271916   0.900   2.235   4.321  0.4277 -0.1152 -0.2298
16834TIP3    H171917   0.895   2.263   4.412  0.9315 -1.1470  0.1319
16834TIP3    H271918   0.883   2.314   4.270  1.0663  0.6759  0.7538
16835TIP3   OH271919   4.899   2.998   2.901  0.5529  0.5706  0.1114
16835TIP3    H171920   4.814   2.990   2.858  0.6253  1.1070 -0.1347
16835TIP3    H271921   4.962   3.003   2.829  1.1142 -3.0993  0.3019
16836TIP3   OH271922   0.909   2.014   3.470 -0.3324  0.2603 -0.1105
16836TIP3    H171923   0.987   2.025   3.525 -0.6965  0.1865  0.4258
16836TIP3    H271924   0.941   2.026   3.380  0.5253 -0.9677  0.0167
16837TIP3   OH271925   5.405   5.453  14.911 -0.1667 -0.4979 -0.8576
16837TIP3    H171926   5.476   5.470  14.849 -0.1786  1.5392 -0.3356
16837TIP3    H271927   5.329   5.497  14.873 -0.1386  0.8939  0.6728
16838TIP3   OH271928   1.840   6.166  10.692  0.3381  0.0189 -0.1339
16838TIP3    H171929   1.883   6.220  10.626  0.0967  0.5202  0.1184
16838TIP3    H271930   1.842   6.219  10.772 -2.8229  1.0252 -0.6709
16839TIP3   OH271931   6.660   2.959   0.483 -0.5102 -0.0611  0.2835
16839TIP3    H171932   6.594   2.997   0.425 -0.4876 -1.6793 -0.8000
16839TIP3    H271933   6.609   2.919   0.554 -0.5742  0.9671  0.8339
16840TIP3   OH271934   1.541   1.707   1.295  0.3561 -0.3069  0.7841
16840TIP3    H171935   1.540   1.753   1.380  1.2311  0.2324  0.5093
16840TIP3    H271936   1.458   1.659   1.293  0.1007  0.0771  1.7299
16841TIP3   OH271937   4.867   5.509   2.888  0.3188 -0.0445  0.2072
16841TIP3    H171938   4.879   5.503   2.793  1.9452 -1.1377  0.4576
16841TIP3    H271939   4.772   5.519   2.900  0.3357  2.8876 -1.6375
16842TIP3   OH271940   1.616   1.008   1.736  0.2000 -0.8000 -0.7897
16842TIP3    H171941   1.643   0.961   1.814  1.7085  0.8935 -0.2528
16842TIP3    H271942   1.693   1.059   1.711 -0.6747 -0.3432 -2.6308
16843TIP3   OH271943   3.347   6.376  15.258  0.0628 -0.4815  0.0208
16843TIP3    H171944   3.432   6.409  15.286  0.4751 -1.2274 -0.3467
16843TIP3    H271945   3.348   6.283  15.280 -0.0897 -0.8094 -1.2891
16844TIP3   OH271946   5.607   0.060   2.203 -0.1825  0.0745  0.2278
16844TIP3    H171947   5.687   0.046   2.253  0.1115  3.3342  0.7600
16844TIP3    H271948   5.577  -0.029   2.181  3.9077 -1.2223 -0.6103
16845TIP3   OH271949   0.313   5.547   2.980  0.2036  0.3135 -0.5891
16845TIP3    H171950   0.264   5.498   3.046 -1.1732  0.7098 -1.2759
16845TIP3    H271951   0.344   5.625   3.026 -1.3802  0.9560 -0.5672
16846TIP3   OH271952   1.872   1.144  12.617  0.7307 -0.0660 -0.5145
16846TIP3    H171953   1.866   1.100  12.702  1.3204  0.1422 -0.3642
16846TIP3    H271954   1.918   1.226  12.636  0.9835 -0.0837 -1.0610
16847TIP3   OH271955   4.480   5.902   1.843  0.2116 -0.2604  0.6040
16847TIP3    H171956   4.573   5.884   1.859  0.1957  0.5569  1.6700
16847TIP3    H271957   4.444   5.918   1.930 -0.6668  0.7111  0.0667
16848TIP3   OH271958   2.749   5.452  13.649  0.5703  0.1941  0.1560
16848TIP3    H171959   2.660   5.482  13.629  0.8341 -0.1954 -1.6781
16848TIP3    H271960   2.743   5.415  13.736 -0.3568  3.1887  1.4308
16849TIP3   OH271961   4.007   5.496   3.255  0.0983  0.0023 -0.1425
16849TIP3    H171962   3.924   5.482   3.300 -0.0088 -0.6445 -0.5461
16849TIP3    H271963   4.007   5.433   3.183 -0.0271  1.4894 -1.4602
16850TIP3   OH271964   4.681   5.558  13.469  0.1877  0.2209 -0.5408
16850TIP3    H171965   4.659   5.585  13.558  0.4510 -2.1735  0.2620
16850TIP3    H271966   4.608   5.504  13.441 -0.9514  2.7214 -2.6437
16851TIP3   OH271967   5.680   5.655  15.935  0.4128 -0.3890 -0.4368
16851TIP3    H171968   5.764   5.626  15.900 -0.0193 -1.3389 -0.6993
16851TIP3    H271969   5.667   5.742  15.898  1.6987  0.1476  0.3108
16852TIP3   OH271970   4.695   0.791  12.124 -0.2770 -0.0792 -0.4991
16852TIP3    H171971   4.623   0.789  12.061  1.3117  1.8692 -2.4811
16852TIP3    H271972   4.771   0.820  12.073  0.9514  2.1486  2.4158
16853TIP3   OH271973   6.140   1.963   3.308 -0.3358  0.6141 -0.1614
16853TIP3    H171974   6.090   2.011   3.242  1.2233  1.3564 -0.8273
16853TIP3    H271975   6.206   1.914   3.258 -1.1949 -1.3950  0.5947
16854TIP3   OH271976   2.189   0.142   1.259  0.1091  0.3247  0.3593
16854TIP3    H171977   2.238   0.107   1.185 -0.0256  1.0229 -0.0695
16854TIP3    H271978   2.098   0.142   1.229  0.1553  1.4255  0.1887
16855TIP3   OH271979   6.389   3.719   0.685  0.5310 -0.4038 -0.0350
16855TIP3    H171980   6.360   3.638   0.727 -2.3824  1.8248  2.5124
16855TIP3    H271981   6.425   3.771   0.757  1.7882  0.8543 -1.5285
16856TIP3   OH271982   5.128   6.259   0.802  0.7199 -0.7878  0.0894
16856TIP3    H171983   5.202   6.287   0.748  0.6610  0.3074  0.5541
16856TIP3    H271984   5.052   6.300   0.762  0.6952  0.1676  1.0618
16857TIP3   OH271985   6.490   3.440   5.514  0.2906 -0.5927 -0.4131
16857TIP3    H171986   6.460   3.350   5.508  2.1773 -1.1456 -2.3592
16857TIP3    H271987   6.560   3.446   5.448  1.2661  1.8415  0.7824
16858TIP3   OH271988   6.479   5.930  12.490  0.3653 -0.0855  0.3952
16858TIP3    H171989   6.437   5.877  12.422 -0.4920  0.0469  0.8107
16858TIP3    H271990   6.518   6.003  12.442 -3.0585  1.7980  0.3149
16859TIP3   OH271991   5.880   6.602   5.525  0.1299  0.3852 -0.9325
16859TIP3    H171992   5.914   6.678   5.573 -1.0112  0.1047  0.3480
16859TIP3    H271993   5.832   6.640   5.452 -1.1374  0.9421  0.1673
16860TIP3   OH271994   2.790   1.458  16.186 -0.2509 -0.3964  0.3632
16860TIP3    H171995   2.800   1.543  16.141 -0.7433 -0.0912  0.8291
16860TIP3    H271996   2.696   1.443  16.189 -0.4783  1.2286  4.3026
16861TIP3   OH271997   5.776   1.602  17.043  0.1730  0.1626  0.3604
16861TIP3    H171998   5.830   1.600  17.122 -1.1784 -2.4259  1.2580
16861TIP3    H271999   5.688   1.623  17.074 -0.1875  0.0928 -0.5869
16862TIP3   OH272000   3.016   3.055  15.148  0.7168 -0.3954 -0.2495
16862TIP3    H172001   2.966   3.130  15.114  0.4075  0.0272  1.1161
16862TIP3    H272002   3.108   3.081  15.138  0.6227 -0.1826 -0.5575
16863TIP3   OH272003   5.862   2.324   1.471  0.6239  0.0896  0.2502
16863TIP3    H172004   5.904   2.243   1.500  0.4018  0.2550  1.0373
16863TIP3    H272005   5.898   2.392   1.528 -0.5652  0.2684  0.8012
16864TIP3   OH272006   2.248   3.297  10.627  0.4582 -0.3132 -0.1618
16864TIP3    H172007   2.338   3.270  10.650 -0.1276 -1.7682  0.5011
16864TIP3    H272008   2.249   3.303  10.532  0.6602 -2.6263 -0.3404
16865TIP3   OH272009   4.007   1.154   2.297 -0.6557  0.4127  0.5905
16865TIP3    H172010   3.925   1.200   2.281 -0.7834 -0.3022 -0.8901
16865TIP3    H272011   3.987   1.062   2.276  0.0984 -0.0279  1.7372
16866TIP3   OH272012   3.895   4.901   1.634  1.0332  0.0543  0.1638
16866TIP3    H172013   3.898   4.856   1.549  2.0310 -0.1632  0.3141
16866TIP3    H272014   3.972   4.957   1.634  0.3538  1.0050  0.4114
16867TIP3   OH272015   0.278   3.739  11.543 -0.3923 -0.3002  0.1122
16867TIP3    H172016   0.203   3.773  11.493  0.1147  0.1100 -0.3724
16867TIP3    H272017   0.325   3.817  11.572  0.5468 -0.5652 -0.6503
16868TIP3   OH272018   5.465   2.205   0.489  0.0749  0.5109 -0.4401
16868TIP3    H172019   5.473   2.234   0.580 -1.9226  1.3789 -0.5314
16868TIP3    H272020   5.535   2.141   0.479 -0.8933 -1.0441  2.2765
16869TIP3   OH272021   5.154   5.510   0.255  0.5568  0.6478 -0.0050
16869TIP3    H172022   5.091   5.563   0.206  0.1446  0.4278  0.2809
16869TIP3    H272023   5.156   5.426   0.210  1.1266  0.8629 -0.3918
16870TIP3   OH272024   0.899   3.200   0.908 -0.2233 -0.4563  0.4286
16870TIP3    H172025   0.956   3.276   0.922  0.0427 -0.4828 -0.5111
16870TIP3    H272026   0.900   3.154   0.992  0.3894  0.0464  0.7032
16871TIP3   OH272027   2.649   2.732   0.681  0.4206  0.2850  0.8052
16871TIP3    H172028   2.740   2.699   0.683  1.1586  2.0150 -1.7015
16871TIP3    H272029   2.603   2.670   0.624  0.6909  0.9109 -0.1058
16872TIP3   OH272030   0.007   3.269  13.420 -1.0889 -0.6500 -0.2754
16872TIP3    H172031   0.071   3.231  13.480 -1.4429  0.7541  1.0338
16872TIP3    H272032  -0.058   3.311  13.478 -2.0726 -0.2958 -1.6187
16873TIP3   OH272033   4.114   4.455   4.480  0.6506  0.4739 -0.4405
16873TIP3    H172034   4.116   4.547   4.504  0.9600  0.7700 -1.5785
16873TIP3    H272035   4.184   4.415   4.532 -1.0054  0.4224  1.8257
16874TIP3   OH272036   2.111   3.997  16.939 -1.0748 -0.0164  0.5074
16874TIP3    H172037   2.108   4.092  16.928  1.0793  0.1559  0.9972
16874TIP3    H272038   2.020   3.969  16.942 -1.7268  2.0533  0.4818
16875TIP3   OH272039   6.432   3.991   0.239 -0.3634 -0.1102 -0.1690
16875TIP3    H172040   6.440   3.911   0.291  1.7802  0.5978  0.6442
16875TIP3    H272041   6.461   3.965   0.151 -0.7692 -0.4976 -0.1908
16876TIP3   OH272042   5.372   0.699  16.792  0.3573  0.5439  0.3254
16876TIP3    H172043   5.281   0.718  16.815  0.5025  0.5905  0.8645
16876TIP3    H272044   5.404   0.781  16.753  0.6784  1.0972  1.7190
16877TIP3   OH272045   2.967   1.798   2.418  0.4648 -0.2835 -0.0171
16877TIP3    H172046   2.986   1.837   2.332  0.9033  0.6387  0.4983
16877TIP3    H272047   2.887   1.748   2.403  1.3122 -1.2972 -1.3241
16878TIP3   OH272048   1.720   1.474  14.945  0.3539 -0.0958 -0.0765
16878TIP3    H172049   1.675   1.406  14.995 -0.8913 -0.3491 -1.5345
16878TIP3    H272050   1.800   1.432  14.914 -0.6546 -1.0745 -1.4011
16879TIP3   OH272051   5.161   0.742   4.264  0.6131 -0.2533 -0.1121
16879TIP3    H172052   5.204   0.773   4.185 -0.1038 -0.9887 -0.8041
16879TIP3    H272053   5.108   0.816   4.294 -1.4239 -0.9019 -1.9942
16880TIP3   OH272054   2.583   0.726  15.525  0.3108  0.1717  0.0384
16880TIP3    H172055   2.496   0.690  15.546  0.9732 -1.4179  0.1352
16880TIP3    H272056   2.641   0.687  15.591  1.0525  1.5043  0.1957
16881TIP3   OH272057   5.082   5.824  13.267 -0.2379 -0.5558 -0.6774
16881TIP3    H172058   5.154   5.765  13.243 -1.3547 -0.9467 -3.3118
16881TIP3    H272059   5.019   5.768  13.312  0.5531 -0.4837  0.5155
16882TIP3   OH272060   1.010   6.648   3.000 -0.2131  0.5722 -0.2138
16882TIP3    H172061   0.988   6.556   2.982  0.4915  0.5435 -0.9500
16882TIP3    H272062   0.927   6.688   3.026 -0.4742 -0.3358  0.3689
16883TIP3   OH272063   4.960   4.369  10.507  0.2512  0.2525 -0.5042
16883TIP3    H172064   5.032   4.306  10.499 -0.8437 -1.0676 -0.2944
16883TIP3    H272065   4.883   4.320  10.479 -0.8263  1.1350  0.8739
16884TIP3   OH272066   1.561   0.191  13.469  0.1534 -0.2295 -0.1281
16884TIP3    H172067   1.516   0.130  13.410 -1.2996  0.3074  0.4018
16884TIP3    H272068   1.547   0.155  13.557  2.0466 -0.8601 -0.0692
16885TIP3   OH272069   2.980   4.676   1.009  0.1931 -0.1659 -0.5584
16885TIP3    H172070   2.902   4.687   1.063  0.1192  2.9533 -1.1845
16885TIP3    H272071   3.050   4.659   1.072 -0.0323  2.6531  0.5289
16886TIP3   OH272072   1.799   4.903  12.265  0.6738  0.5844  0.3256
16886TIP3    H172073   1.816   4.997  12.258  2.1027  0.6084  3.2908
16886TIP3    H272074   1.862   4.863  12.205  1.3235  1.4344  0.4306
16887TIP3   OH272075   6.726   1.075  13.840  0.0631 -0.3524 -0.2669
16887TIP3    H172076   6.766   1.114  13.762  0.8533  0.3689  0.4867
16887TIP3    H272077   6.780   0.999  13.859  0.6381  0.1843  0.2974
16888TIP3   OH272078   1.301   1.180  16.016  0.6770 -0.8101 -0.2867
16888TIP3    H172079   1.372   1.241  15.998 -0.0168  0.2302  0.4644
16888TIP3    H272080   1.236   1.197  15.948 -0.4773  0.8212  1.1823
16889TIP3   OH272081   3.474   0.497  11.129 -0.5785  0.0714  0.2512
16889TIP3    H172082   3.487   0.517  11.222 -0.6716 -0.5018  0.3847
16889TIP3    H272083   3.423   0.572  11.096  1.8477  1.6927  0.0134
16890TIP3   OH272084   0.950   0.437  11.982 -1.1545 -0.2778  0.0495
16890TIP3    H172085   0.882   0.420  12.047  0.6265 -0.1947  2.0016
16890TIP3    H272086   1.032   0.418  12.028  0.2668  1.9112 -1.4799
16891TIP3   OH272087   6.589   2.388  13.391 -0.4691  0.0088 -0.0049
16891TIP3    H172088   6.500   2.401  13.424  0.3434  2.0738  1.5200
16891TIP3    H272089   6.583   2.405  13.297 -1.6128  0.5482  0.1604
16892TIP3   OH272090   3.622   3.056  12.775 -0.9348  0.4482 -0.1801
16892TIP3    H172091   3.646   3.093  12.859 -2.0833 -1.6672  1.1317
16892TIP3    H272092   3.641   3.125  12.711  1.6101  1.4429  1.5792
16893TIP3   OH272093   5.222   0.349   4.869  0.1442 -0.1409  0.3083
16893TIP3    H172094   5.148   0.289   4.857  0.2200 -0.0597 -0.6016
16893TIP3    H272095   5.189   0.434   4.842  0.7076 -0.1950 -0.6017
16894TIP3   OH272096   2.682   1.269  12.957 -0.2291  0.1981  0.4840
16894TIP3    H172097   2.641   1.192  12.998 -1.7290  0.1927 -0.9591
16894TIP3    H272098   2.698   1.241  12.867  0.7864  1.0226  0.4086
16895TIP3   OH272099   4.844   6.697   2.111  0.3321  0.3025  0.4398
16895TIP3    H172100   4.795   6.756   2.053 -1.4316  0.4508  2.0031
16895TIP3    H272101   4.817   6.609   2.085  0.6478  0.3146  0.0779
16896TIP3   OH272102   2.142   1.776  11.395 -0.0234 -0.6865  0.2954
16896TIP3    H172103   2.098   1.804  11.475 -2.8166  2.1861 -2.1229
16896TIP3    H272104   2.074   1.734  11.343  0.2140  2.7195 -3.0018
16897TIP3   OH272105   2.089   0.672   4.306  0.3173 -0.2894 -0.4543
16897TIP3    H172106   2.146   0.749   4.311  1.7542 -1.4518  1.4969
16897TIP3    H272107   2.063   0.655   4.396 -2.4259 -0.3450 -1.2082
16898TIP3   OH272108   0.400   2.742  13.341  0.4606 -0.3545 -0.8342
16898TIP3    H172109   0.438   2.807  13.282  2.3811 -0.7659 -0.0926
16898TIP3    H272110   0.469   2.677  13.353 -0.9183 -1.7744 -0.3953
16899TIP3   OH272111   0.647   6.706   0.435 -0.9245  0.1264 -0.3969
16899TIP3    H172112   0.609   6.793   0.447 -0.5608  0.1975  0.2674
16899TIP3    H272113   0.741   6.721   0.432 -0.9384 -0.0574 -1.9866
16900TIP3   OH272114   6.013   6.013  12.861  0.2242  0.8779  0.0134
16900TIP3    H172115   5.943   6.073  12.886  0.6448  1.2993  0.1760
16900TIP3    H272116   5.969   5.929  12.849 -0.3981  1.2678 -0.4480
16901TIP3   OH272117   2.316   6.363   0.715  0.4709 -0.4336  0.0220
16901TIP3    H172118   2.299   6.343   0.807  0.5681 -2.5293 -0.4050
16901TIP3    H272119   2.255   6.307   0.667  2.8282 -1.9390 -1.2772
16902TIP3   OH272120   2.818   6.522  12.337  0.9265  0.6943  0.4239
16902TIP3    H172121   2.864   6.455  12.286  0.4670  1.3067 -0.8099
16902TIP3    H272122   2.805   6.481  12.423  1.1387 -0.5977 -0.1394
16903TIP3   OH272123   2.849   1.037  16.470  0.4065  0.2317  0.1517
16903TIP3    H172124   2.830   1.084  16.388 -0.6341  0.0682  0.3021
16903TIP3    H272125   2.906   0.965  16.443 -0.5421 -0.2684 -0.5505
16904TIP3   OH272126   1.110   0.688  12.871 -0.0105  0.4067  0.2104
16904TIP3    H172127   1.091   0.675  12.778  2.5560 -0.0256 -0.3015
16904TIP3    H272128   1.080   0.608  12.914 -1.1018  0.5640 -0.2572
16905TIP3   OH272129   3.290   0.785   5.825 -0.1928  0.0724  0.0108
16905TIP3    H172130   3.308   0.877   5.809  0.4153  0.0581  0.6072
16905TIP3    H272131   3.355   0.758   5.890  0.4688 -1.0976 -1.0925
16906TIP3   OH272132   3.627   0.348  14.180 -0.0155 -0.1982  0.0309
16906TIP3    H172133   3.539   0.371  14.151 -0.4490 -2.3279 -0.4398
16906TIP3    H272134   3.629   0.369  14.273 -1.1769 -0.5618  0.1404
16907TIP3   OH272135   6.193   5.482   4.691 -0.3246 -0.9032 -0.2539
16907TIP3    H172136   6.115   5.535   4.680 -0.0886 -0.4678  0.1569
16907TIP3    H272137   6.167   5.410   4.748  0.2541  0.7424  2.1809
16908TIP3   OH272138   3.577   3.399  16.945  0.1832  0.0217  0.4037
16908TIP3    H172139   3.640   3.415  16.875 -1.8958 -0.2308 -1.5673
16908TIP3    H272140   3.506   3.460  16.929 -1.5122 -1.8069  0.7573
16909TIP3   OH272141   4.274   4.062   0.463 -0.4538  0.5301 -0.4003
16909TIP3    H172142   4.226   3.981   0.483 -0.5925  1.2345  2.3036
16909TIP3    H272143   4.321   4.042   0.382 -2.0279 -1.5849 -0.8573
16910TIP3   OH272144   2.914   2.088   1.103  0.0192 -0.1286  0.3366
16910TIP3    H172145   2.822   2.103   1.080  0.6060  0.2676 -1.8731
16910TIP3    H272146   2.942   2.169   1.146 -0.6756 -0.2798  1.0796
16911TIP3   OH272147   1.145   5.644  15.719  0.2092  0.1841  0.1046
16911TIP3    H172148   1.086   5.674  15.650 -0.4706 -0.2037  0.5046
16911TIP3    H272149   1.222   5.612  15.673 -0.1960  0.0328 -0.4720
16912TIP3   OH272150   2.362   1.721   4.362  0.1745 -0.2508  0.4273
16912TIP3    H172151   2.298   1.677   4.306  0.4056  0.5054 -0.4422
16912TIP3    H272152   2.331   1.704   4.451 -1.5183  0.5066  0.0091
16913TIP3   OH272153   3.219   0.378  11.896 -0.0280  0.0580  0.1519
16913TIP3    H172154   3.246   0.315  11.962 -3.0733 -1.4423  0.0265
16913TIP3    H272155   3.148   0.428  11.937 -1.2966 -0.2435 -1.6263
16914TIP3   OH272156   0.263   3.326  10.899 -0.1134 -0.1526  0.5625
16914TIP3    H172157   0.302   3.386  10.835 -1.6547 -1.6075 -1.8221
16914TIP3    H272158   0.234   3.384  10.970  2.0602  1.4443  0.2239
16915TIP3   OH272159   6.519   2.203   4.874 -0.0392  0.7176  0.0009
16915TIP3    H172160   6.562   2.203   4.789 -0.8660  0.4174 -0.4182
16915TIP3    H272161   6.556   2.279   4.919 -0.3155  1.4635 -0.9971
16916TIP3   OH272162   3.692   6.189   0.317 -0.1331 -0.4452  0.1115
16916TIP3    H172163   3.690   6.100   0.281 -0.0842 -0.4972  0.2344
16916TIP3    H272164   3.656   6.179   0.405  0.1194 -0.3905  0.2226
16917TIP3   OH272165   1.211   2.932  16.186  0.6136 -0.4039  0.2020
16917TIP3    H172166   1.269   2.886  16.126 -0.7035 -0.9498 -0.6774
16917TIP3    H272167   1.244   3.022  16.186  0.6461 -0.3997 -1.3365
16918TIP3   OH272168   3.136   5.489  13.754  0.2136  0.1149  0.2316
16918TIP3    H172169   3.202   5.427  13.724 -1.0502  0.0105 -2.4796
16918TIP3    H272170   3.066   5.435  13.792  0.3025  0.0502  0.3042
16919TIP3   OH272171   0.790   1.244   5.021  0.3909 -0.3436 -0.6263
16919TIP3    H172172   0.749   1.168   5.062 -0.2010  1.2622  1.8337
16919TIP3    H272173   0.798   1.220   4.928 -1.4588 -2.6775 -0.2187
16920TIP3   OH272174   4.181   2.012  16.438 -0.1913 -0.0304 -0.6677
16920TIP3    H172175   4.165   1.926  16.476  1.0169  0.0000 -0.0597
16920TIP3    H272176   4.109   2.067  16.469  0.3798 -0.1902  1.0004
16921TIP3   OH272177   4.804   5.394  11.495 -0.3185 -0.3278 -0.3218
16921TIP3    H172178   4.863   5.332  11.539  0.7773 -0.4698 -1.9211
16921TIP3    H272179   4.717   5.357  11.506  0.1682 -1.4119 -0.0347
16922TIP3   OH272180   1.003   3.642   1.705 -0.2612 -0.0915 -0.0196
16922TIP3    H172181   1.077   3.626   1.645  0.6742  1.0412  0.8090
16922TIP3    H272182   1.044   3.650   1.791 -1.4337 -0.1437  0.5457
16923TIP3   OH272183   2.132   1.351  13.253 -0.4508 -0.5903 -0.8641
16923TIP3    H172184   2.096   1.302  13.180 -0.0482 -1.5940 -0.3954
16923TIP3    H272185   2.105   1.303  13.331  0.3179 -0.3188 -0.4216
16924TIP3   OH272186   4.116   3.014   0.903  0.0260  0.2544 -0.3694
16924TIP3    H172187   4.059   2.945   0.869 -0.9839  1.7180 -1.7249
16924TIP3    H272188   4.062   3.060   0.967  1.3861 -1.4716  2.1138
16925TIP3   OH272189   1.143   4.829  11.388  0.7119  0.3666  0.7874
16925TIP3    H172190   1.184   4.915  11.389 -0.4723  0.9442  1.5457
16925TIP3    H272191   1.050   4.847  11.375  0.5775 -0.8559  0.0034
16926TIP3   OH272192   2.093   6.293  14.399  0.3352 -0.0922  0.2576
16926TIP3    H172193   2.034   6.234  14.446 -0.6676 -1.1991 -2.3176
16926TIP3    H272194   2.037   6.338  14.336  1.4059  2.3912  1.0153
16927TIP3   OH272195   3.930   1.832  14.241 -0.2141 -0.3615  0.2597
16927TIP3    H172196   3.983   1.831  14.162 -1.4659 -1.6891 -0.5934
16927TIP3    H272197   3.942   1.744  14.278 -2.7389 -1.1117 -0.6024
16928TIP3   OH272198   6.576   5.848   5.010 -0.9428 -0.1945 -0.7645
16928TIP3    H172199   6.610   5.923   5.057 -0.2359 -2.1783  2.0331
16928TIP3    H272200   6.487   5.874   4.984 -1.2733  1.0499  1.5021
16929TIP3   OH272201   0.376   1.925   2.776  0.0265 -0.3459  0.2602
16929TIP3    H172202   0.326   1.885   2.848  0.1877  1.5668  1.4663
16929TIP3    H272203   0.422   1.851   2.736  0.7502 -1.3377  2.7724
16930TIP3   OH272204   2.220   4.358   1.003 -0.3801 -0.5433 -0.3084
16930TIP3    H172205   2.251   4.294   0.940 -0.8181 -0.6820 -0.3887
16930TIP3    H272206   2.296   4.379   1.057 -0.3575 -1.4846  0.0242
16931TIP3   OH272207   0.486   6.692   1.893  0.2853  0.4551 -0.0586
16931TIP3    H172208   0.484   6.605   1.854 -0.9134  0.1314  0.6718
16931TIP3    H272209   0.457   6.678   1.984 -0.8093  1.7273 -0.1886
16932TIP3   OH272210   1.784   1.847   1.115 -0.0719 -0.2425 -0.1595
16932TIP3    H172211   1.694   1.821   1.133  0.6108 -3.3192 -1.0129
16932TIP3    H272212   1.794   1.835   1.020  1.2368  0.0542 -0.0666
16933TIP3   OH272213   0.577   5.139   3.378  0.1828 -0.2354 -0.0611
16933TIP3    H172214   0.656   5.120   3.327  2.0529  0.2886  2.5144
16933TIP3    H272215   0.577   5.074   3.448 -0.2183  1.3716  1.4756
16934TIP3   OH272216   2.496   2.188  12.688  0.3939  0.2046  0.1512
16934TIP3    H172217   2.481   2.094  12.673  0.1579  0.2307  0.2260
16934TIP3    H272218   2.474   2.230  12.605 -2.3798  0.5145  0.9993
16935TIP3   OH272219   4.109   0.689   2.244  0.5373  0.6358  0.3406
16935TIP3    H172220   4.176   0.647   2.299  0.5899 -1.9578 -1.6680
16935TIP3    H272221   4.056   0.617   2.210 -1.5352  2.4587 -0.4090
16936TIP3   OH272222   5.660   5.994  10.592  0.9888 -0.0041 -0.5680
16936TIP3    H172223   5.710   6.072  10.565  0.2902  0.5022 -0.3956
16936TIP3    H272224   5.725   5.923  10.590  1.1403  0.1618 -2.8466
16937TIP3   OH272225   2.617   0.781   4.531 -0.0342 -0.0277  0.2075
16937TIP3    H172226   2.608   0.686   4.544 -1.4597  0.1939  0.9478
16937TIP3    H272227   2.588   0.796   4.441 -0.1696 -0.2517  0.2123
16938TIP3   OH272228   6.650   0.030   6.654  0.1792 -0.3556 -0.0495
16938TIP3    H172229   6.585  -0.018   6.603 -1.0126  0.2162  0.8736
16938TIP3    H272230   6.709  -0.037   6.688 -1.2240 -1.1432  0.8974
16939TIP3   OH272231   4.898   2.524   2.202 -0.7408 -0.1739 -0.1159
16939TIP3    H172232   4.867   2.609   2.232 -0.3153  0.0601 -0.3399
16939TIP3    H272233   4.993   2.530   2.205 -0.6706  0.1256 -2.2521
16940TIP3   OH272234   2.285   1.289  16.268 -0.1035  0.0348  0.1285
16940TIP3    H172235   2.206   1.338  16.291  0.1412  0.2878  0.4337
16940TIP3    H272236   2.274   1.204  16.312 -0.3951 -0.0830 -0.1710
16941TIP3   OH272237   3.399   4.185   4.544 -0.0810  0.5094  0.2521
16941TIP3    H172238   3.483   4.203   4.587 -1.3694  3.6164  1.6028
16941TIP3    H272239   3.384   4.092   4.558  3.1245 -0.0877  0.0158
16942TIP3   OH272240   4.109   1.760  14.016 -0.4132  0.1773 -0.4760
16942TIP3    H172241   4.102   1.665  14.009 -0.6067  0.2157 -0.8084
16942TIP3    H272242   4.069   1.793  13.936 -2.9432  0.6046  0.8886
16943TIP3   OH272243   5.728   4.271  11.410  0.0504  0.0505 -0.3127
16943TIP3    H172244   5.654   4.238  11.461  0.4707  0.4079  0.5420
16943TIP3    H272245   5.698   4.356  11.376  0.3638  0.5793  0.7238
16944TIP3   OH272246   1.023   4.296   4.473  0.1320  0.0098 -0.1700
16944TIP3    H172247   1.117   4.310   4.468  0.3243 -1.0895  0.2420
16944TIP3    H272248   1.006   4.228   4.407 -0.3707  0.2158 -0.2540
16945TIP3   OH272249   0.719   0.234  13.358  0.3904  0.0117 -0.3286
16945TIP3    H172250   0.654   0.165  13.344  1.2467 -1.0751  0.9459
16945TIP3    H272251   0.741   0.263  13.270 -0.1606 -1.1908 -0.8857
16946TIP3   OH272252   1.774   0.050  14.862 -0.1349 -0.1551 -0.7960
16946TIP3    H172253   1.698   0.104  14.841  0.3230  0.1520 -1.7109
16946TIP3    H272254   1.755  -0.035  14.823 -0.8900 -0.6976  0.7097
16947TIP3   OH272255   3.332   6.151   0.658  0.2506  0.3906  0.1477
16947TIP3    H172256   3.416   6.138   0.614 -0.3161 -1.0259 -0.5673
16947TIP3    H272257   3.348   6.219   0.723  1.2616  2.1141 -1.8555
16948TIP3   OH272258   5.963   1.541   4.075 -0.0988 -0.1286  0.3544
16948TIP3    H172259   5.932   1.452   4.059 -0.0616 -0.1269  0.2763
16948TIP3    H272260   6.058   1.535   4.065 -0.1801  0.1227 -0.5770
16949TIP3   OH272261   1.296   5.913  12.502  0.4019  0.8325  0.7279
16949TIP3    H172262   1.377   5.964  12.504 -0.1416  1.7057  0.5355
16949TIP3    H272263   1.262   5.924  12.413  0.2481  0.1789  0.6985
16950TIP3   OH272264   2.790   1.277   2.811 -0.0143  0.5054 -0.1888
16950TIP3    H172265   2.701   1.277   2.775 -0.1151  0.0375  0.0539
16950TIP3    H272266   2.847   1.260   2.736 -0.3492 -2.3811  0.1705
16951TIP3   OH272267   2.807   1.637  14.455 -0.4290  0.2619 -0.7338
16951TIP3    H172268   2.900   1.653  14.441 -0.6853 -0.0177 -3.0691
16951TIP3    H272269   2.764   1.717  14.426 -0.9554  0.0971 -0.4103
16952TIP3   OH272270   2.512   6.082   3.681 -0.3723 -0.0602  0.1608
16952TIP3    H172271   2.488   6.109   3.769  1.8186 -0.2890  0.8570
16952TIP3    H272272   2.568   6.005   3.694 -0.0625 -0.1218 -1.4266
16953TIP3   OH272273   4.312   2.390  16.893 -0.4803 -0.3305 -0.7025
16953TIP3    H172274   4.236   2.380  16.950 -0.8250  2.8118 -0.5230
16953TIP3    H272275   4.280   2.370  16.806 -0.5560 -2.7149 -0.1666
16954TIP3   OH272276   2.364   6.087  13.067  0.5840  0.6744 -0.0274
16954TIP3    H172277   2.319   6.124  12.991  0.2462  0.3987  0.0399
16954TIP3    H272278   2.295   6.072  13.131  0.7947  0.4078  0.1361
16955TIP3   OH272279   2.788   3.770  17.173  0.3985 -0.6074  0.2917
16955TIP3    H172280   2.772   3.853  17.128  3.0269 -0.4299 -0.3765
16955TIP3    H272281   2.728   3.771  17.247  0.9748  2.2630  0.7620
16956TIP3   OH272282   6.362   3.844  16.134 -0.0394 -0.0436 -0.6324
16956TIP3    H172283   6.334   3.802  16.216  0.2408 -0.3136 -0.6741
16956TIP3    H272284   6.347   3.778  16.067  2.4424 -0.8979 -0.4056
16957TIP3   OH272285   2.731   4.951  12.793  0.5448 -0.1251  0.5232
16957TIP3    H172286   2.728   5.034  12.840  0.9120  0.2750 -0.1649
16957TIP3    H272287   2.675   4.893  12.845 -0.9637  0.9784  0.1635
16958TIP3   OH272288   5.715   3.770  10.878 -0.3126 -0.1321 -0.0736
16958TIP3    H172289   5.797   3.756  10.831 -0.4169  0.3004 -0.3846
16958TIP3    H272290   5.686   3.856  10.851  0.2667  0.6607  1.7312
16959TIP3   OH272291   1.316   0.011  15.067  0.1745  0.3111  0.3949
16959TIP3    H172292   1.235   0.045  15.106  0.1149  0.3572  0.2323
16959TIP3    H272293   1.367   0.089  15.045  1.0895  0.2606  2.2136
16960TIP3   OH272294   4.963   4.288   1.132  0.2599 -0.4866  0.2371
16960TIP3    H172295   5.057   4.272   1.136  0.3834 -0.6479 -2.5596
16960TIP3    H272296   4.934   4.285   1.223  2.7117 -1.8983  1.0014
16961TIP3   OH272297   3.140   6.591   0.244 -0.1951  0.1187  0.1853
16961TIP3    H172298   3.114   6.673   0.201  0.9675  0.4624  0.1399
16961TIP3    H272299   3.114   6.523   0.182 -1.4350  0.4237  0.3482
16962TIP3   OH272300   5.185   6.687  16.735 -0.3542  0.5880 -0.1301
16962TIP3    H172301   5.197   6.780  16.719 -2.2223  0.7040 -0.9273
16962TIP3    H272302   5.092   6.671  16.721 -0.0758 -1.3861  0.0577
16963TIP3   OH272303   0.110   0.539   3.148 -0.1696 -0.6052 -0.3914
16963TIP3    H172304   0.057   0.529   3.069  0.0473 -1.3247 -0.4492
16963TIP3    H272305   0.133   0.632   3.150  0.0965 -0.6460 -1.3515
16964TIP3   OH272306   3.451   0.741  13.392  0.3318  0.2740 -0.0806
16964TIP3    H172307   3.436   0.710  13.482 -1.2558 -0.0387 -0.4442
16964TIP3    H272308   3.523   0.687  13.360  0.7550  0.2267  0.9227
16965TIP3   OH272309   4.468   5.498   3.590 -0.0757 -0.0882 -0.2774
16965TIP3    H172310   4.454   5.404   3.577 -0.7243 -0.0959  0.4629
16965TIP3    H272311   4.415   5.540   3.522 -0.7886 -0.2232  0.1935
16966TIP3   OH272312   1.853   1.957  17.027 -0.2825 -0.0096 -0.4710
16966TIP3    H172313   1.770   1.966  16.980 -0.1567 -1.4698 -1.0002
16966TIP3    H272314   1.918   1.995  16.968 -0.6063  1.3925  0.0640
16967TIP3   OH272315   2.962   2.359   2.855 -0.7094  0.3801  0.1457
16967TIP3    H172316   2.877   2.361   2.899 -0.4099  0.0905  0.7329
16967TIP3    H272317   3.000   2.445   2.873  1.1040 -1.1187  3.7733
16968TIP3   OH272318   5.039   2.239  16.019 -0.4563 -0.4912  0.4286
16968TIP3    H172319   4.947   2.265  16.008 -0.1422  0.7841  0.7398
16968TIP3    H272320   5.089   2.317  15.995  0.4848 -0.3753  2.6594
16969TIP3   OH272321   5.149   4.734   5.985  0.9253 -0.4690 -0.4026
16969TIP3    H172322   5.113   4.749   5.897  2.7410 -2.0925 -1.4758
16969TIP3    H272323   5.166   4.822   6.020 -0.0980  0.2012 -1.5582
16970TIP3   OH272324   2.751   1.743  14.746 -0.2568 -0.3913 -0.1053
16970TIP3    H172325   2.813   1.774  14.812  1.3316 -0.2246 -1.6453
16970TIP3    H272326   2.773   1.651  14.734 -1.0965 -0.6376  0.1967
16971TIP3   OH272327   0.371   1.961   4.503  0.3045 -0.1234  0.0344
16971TIP3    H172328   0.382   1.868   4.523 -0.1258 -0.8822 -2.9423
16971TIP3    H272329   0.458   1.998   4.511  0.7010 -1.0435  0.0499
16972TIP3   OH272330   3.798   6.047   4.768  0.4744  0.0896  0.0696
16972TIP3    H172331   3.876   6.102   4.760  0.1186  0.7981  1.2238
16972TIP3    H272332   3.726   6.105   4.743  0.3692 -0.7287 -1.5367
16973TIP3   OH272333   3.127   1.243   5.093  0.2475  0.8150 -0.3035
16973TIP3    H172334   3.114   1.211   5.183 -0.7184 -2.5045 -1.5337
16973TIP3    H272335   3.068   1.318   5.085 -1.4283 -0.3004  1.1416
16974TIP3   OH272336   0.969   5.698  15.170 -0.5873  0.4089  0.1243
16974TIP3    H172337   0.933   5.786  15.172  0.4784  0.8704 -0.7124
16974TIP3    H272338   0.917   5.652  15.104  0.0319  0.9265 -0.7223
16975TIP3   OH272339   4.809   1.306   2.773 -0.2251 -0.0157  0.1432
16975TIP3    H172340   4.762   1.230   2.739  0.1815  1.0580 -2.9951
16975TIP3    H272341   4.896   1.301   2.733 -0.3091  2.2637 -0.4081
16976TIP3   OH272342   6.310   0.761  10.790  0.1760 -0.4068 -0.5209
16976TIP3    H172343   6.327   0.700  10.862  1.0437  0.3648 -0.0520
16976TIP3    H272344   6.371   0.834  10.806  0.9236 -0.5763 -2.4592
16977TIP3   OH272345   2.131   2.962   1.858 -0.1522 -0.0427  0.1926
16977TIP3    H172346   2.153   2.925   1.772  0.5233  0.8954 -0.0491
16977TIP3    H272347   2.073   3.036   1.837  0.8204  0.8072  0.4717
16978TIP3   OH272348   0.032   6.594   3.991  0.2826  0.0915  0.1209
16978TIP3    H172349  -0.007   6.558   3.911 -1.3053 -0.1075  0.9560
16978TIP3    H272350   0.124   6.610   3.969  0.2555 -1.5213 -1.2318
16979TIP3   OH272351   1.443   1.516   2.937 -0.1549  0.3046 -0.0521
16979TIP3    H172352   1.521   1.546   2.982 -1.6299  1.4280  1.8312
16979TIP3    H272353   1.465   1.522   2.844  2.1718  0.0256  0.4565
16980TIP3   OH272354   3.346   4.860  11.632 -0.3576 -0.2232  0.0436
16980TIP3    H172355   3.312   4.926  11.691  0.6691  0.5444 -0.2022
16980TIP3    H272356   3.275   4.844  11.570 -0.9071  0.0352  0.5974
16981TIP3   OH272357   3.066   6.122   5.168  0.1364 -0.0194  0.1244
16981TIP3    H172358   3.029   6.117   5.080 -0.4395  0.0956  0.3509
16981TIP3    H272359   3.032   6.044   5.212  0.4044 -0.0659  0.2463
16982TIP3   OH272360   2.576   5.625   3.008  0.3877  0.3772 -0.5216
16982TIP3    H172361   2.518   5.636   2.933 -0.5681 -0.1702  0.1172
16982TIP3    H272362   2.657   5.668   2.983 -0.6117  1.9775 -1.0765
16983TIP3   OH272363   4.674   2.671   6.242 -0.0445  0.2379 -0.1147
16983TIP3    H172364   4.765   2.680   6.215  0.2690  0.6871  1.0621
16983TIP3    H272365   4.678   2.634   6.329 -1.0969 -2.3726 -1.1383
16984TIP3   OH272366   5.644   6.425  13.581  0.1185  0.6671 -0.1043
16984TIP3    H172367   5.677   6.353  13.635  0.6217  1.7430  1.0685
16984TIP3    H272368   5.719   6.483  13.569  0.1260  0.1960 -2.3983
16985TIP3   OH272369   0.396   2.472   0.336  0.2194 -0.1907  0.1000
16985TIP3    H172370   0.464   2.538   0.321 -0.3996  0.4358  0.0500
16985TIP3    H272371   0.317   2.509   0.297 -0.6298 -0.0112  1.9629
16986TIP3   OH272372   1.169   4.344  12.060 -0.5250 -0.1872  0.4748
16986TIP3    H172373   1.085   4.390  12.066 -0.9272 -0.8176 -0.2668
16986TIP3    H272374   1.196   4.355  11.969 -1.1913 -2.3817 -0.0151
16987TIP3   OH272375   3.878   1.051   4.050  0.0809  0.3518 -0.3275
16987TIP3    H172376   3.868   0.994   3.974 -0.1223  0.7516 -0.6001
16987TIP3    H272377   3.789   1.073   4.076  0.1863  2.0928 -1.3899
16988TIP3   OH272378   6.031   3.966  12.089 -0.2550  0.4063  0.0694
16988TIP3    H172379   5.963   3.990  12.026  0.7583  2.0522 -0.4076
16988TIP3    H272380   6.100   4.030  12.076  0.4724  0.0615  2.0724
16989TIP3   OH272381   6.773   6.359  12.870 -0.2609  0.1237  0.3905
16989TIP3    H172382   6.806   6.293  12.931  0.1573 -0.1528 -0.1212
16989TIP3    H272383   6.702   6.314  12.823 -1.2045  0.6381  1.3186
16990TIP3   OH272384   0.513   6.105  13.155 -0.3590  0.4093 -0.1147
16990TIP3    H172385   0.446   6.066  13.098 -1.1772 -0.5126  1.4409
16990TIP3    H272386   0.551   6.030  13.201 -0.5143  1.2579  1.3994
16991TIP3   OH272387   2.510   2.412   6.284  0.0425  0.7008 -0.4045
16991TIP3    H172388   2.479   2.464   6.211  1.1132 -0.3233 -1.6060
16991TIP3    H272389   2.516   2.473   6.357  1.0580  2.1972 -1.7227
16992TIP3   OH272390   2.319   5.915  16.042  0.4364  0.0695  0.0457
16992TIP3    H172391   2.241   5.971  16.050 -0.2235 -0.8441  0.1560
16992TIP3    H272392   2.357   5.939  15.957 -1.0070 -0.7541 -0.8609
16993TIP3   OH272393   4.155   0.206  12.300 -0.7161 -0.1245  0.2063
16993TIP3    H172394   4.223   0.266  12.330 -0.2921 -0.7558  0.5373
16993TIP3    H272395   4.079   0.227  12.354 -0.6172  0.2221  0.2095
16994TIP3   OH272396   5.013   1.221   5.277  0.1711 -0.1721 -0.0671
16994TIP3    H172397   4.968   1.242   5.195  0.4408 -1.1621 -0.4683
16994TIP3    H272398   5.102   1.253   5.264  0.1592 -0.1453 -0.0828
16995TIP3   OH272399   4.505   6.393  13.520  0.3557 -0.0207  0.1277
16995TIP3    H172400   4.475   6.393  13.611 -0.7873  2.1438 -0.2085
16995TIP3    H272401   4.566   6.466  13.515 -0.6942  0.7889 -1.1678
16996TIP3   OH272402   4.297   0.522  14.869 -0.1046  0.0922  0.0531
16996TIP3    H172403   4.289   0.617  14.871 -0.1112  0.0914  0.0728
16996TIP3    H272404   4.389   0.506  14.888  0.0713  0.1216 -0.7680
16997TIP3   OH272405   0.167   4.380  16.371  0.7981 -0.4280  0.0302
16997TIP3    H172406   0.074   4.405  16.375  1.3659  1.7634  0.0672
16997TIP3    H272407   0.192   4.393  16.280  0.7048 -2.5500 -0.3401
16998TIP3   OH272408   2.528   2.458  14.746 -0.4524  0.1723  0.5354
16998TIP3    H172409   2.457   2.494  14.799  1.0050  1.2583  1.7997
16998TIP3    H272410   2.570   2.393  14.802 -0.3574 -0.3702 -0.1497
16999TIP3   OH272411   1.144   1.163  13.303 -0.3997  0.1975 -0.4697
16999TIP3    H172412   1.185   1.198  13.381 -1.2290 -0.8613  0.4535
16999TIP3    H272413   1.193   1.202  13.230 -0.1333  1.7897  0.5515
17000TIP3   OH272414   1.914   4.800  14.733  0.1072  0.8497 -0.6469
17000TIP3    H172415   1.820   4.818  14.730 -0.0643 -0.0357 -0.7767
17000TIP3    H272416   1.920   4.705  14.746  0.9852  0.8032 -1.3471
17001TIP3   OH272417   1.057   2.736  11.168 -0.1754  0.3477  0.5184
17001TIP3    H172418   1.011   2.653  11.182  0.0831 -0.2395 -1.9376
17001TIP3    H272419   1.097   2.727  11.082  0.5937  2.7036  0.6007
17002TIP3   OH272420   5.245   4.409  11.685  0.4877 -0.1606  0.3388
17002TIP3    H172421   5.195   4.439  11.609 -1.2899 -1.2734  1.0262
17002TIP3    H272422   5.297   4.485  11.711 -0.3353  0.8251 -0.8092
17003TIP3   OH272423   1.900   6.557  13.354 -0.1572  0.5717 -0.1562
17003TIP3    H172424   1.823   6.567  13.409 -0.2390  1.5943 -0.4515
17003TIP3    H272425   1.897   6.466  13.325 -2.5253  1.1900 -2.0347
17004TIP3   OH272426   6.197   6.658   0.143 -0.0943 -0.0988 -0.1202
17004TIP3    H172427   6.123   6.607   0.108  0.9445  0.3118 -2.9998
17004TIP3    H272428   6.269   6.596   0.148  0.4478  0.4526 -1.0754
17005TIP3   OH272429   2.129   0.058   3.495  0.2588  0.4151  0.2396
17005TIP3    H172430   2.047   0.097   3.463  0.5401  1.7090  1.0516
17005TIP3    H272431   2.111  -0.036   3.499 -0.7955  0.5624 -0.7145
17006TIP3   OH272432   6.686   1.842  13.406 -0.2665  0.2538 -0.2624
17006TIP3    H172433   6.597   1.810  13.395 -0.6630  1.9323 -2.5483
17006TIP3    H272434   6.678   1.915  13.467 -0.4818  0.4168 -0.4824
17007TIP3   OH272435   2.943   2.143   3.201  0.1821 -0.0776  0.1805
17007TIP3    H172436   2.912   2.206   3.265 -0.6541 -0.5139  0.2058
17007TIP3    H272437   2.867   2.123   3.147  0.1859 -1.8152  0.7890
17008TIP3   OH272438   3.845   1.890  14.823 -0.8059 -0.1800  0.3937
17008TIP3    H172439   3.836   1.818  14.760 -1.1611 -0.1635  0.4251
17008TIP3    H272440   3.938   1.913  14.819 -0.7116 -0.5600  0.2946
17009TIP3   OH272441   2.013   2.255   2.470  0.6389  0.2825 -0.1693
17009TIP3    H172442   2.066   2.186   2.430 -0.3594  0.0955 -1.1982
17009TIP3    H272443   1.952   2.281   2.402  0.2566  1.4045  0.5834
17010TIP3   OH272444   4.447   5.730  14.410  0.4058 -0.2329 -0.1410
17010TIP3    H172445   4.533   5.689  14.403 -0.4239 -2.4927  1.9814
17010TIP3    H272446   4.459   5.800  14.474  1.3235  1.3943 -2.0728
17011TIP3   OH272447   4.211   5.394   0.390 -0.5209 -0.5668  0.5656
17011TIP3    H172448   4.117   5.393   0.374 -1.2041  2.2406  3.8200
17011TIP3    H272449   4.235   5.303   0.403 -2.5226 -1.4433 -1.6372
17012TIP3   OH272450   2.608   5.053   2.033  0.0473  0.2437 -0.3067
17012TIP3    H172451   2.559   5.016   1.959 -0.3745  1.1103 -0.4584
17012TIP3    H272452   2.543   5.060   2.103 -0.2114  1.9962 -0.7050
17013TIP3   OH272453   5.555   3.719  14.838  0.3348  0.0109 -0.3820
17013TIP3    H172454   5.460   3.708  14.829  0.1621  1.0496  0.0943
17013TIP3    H272455   5.566   3.758  14.925  1.3437 -1.8838  0.3730
17014TIP3   OH272456   6.537   6.203  14.074  0.3907 -0.6228 -0.5510
17014TIP3    H172457   6.580   6.287  14.059 -0.0325  0.0172  1.6726
17014TIP3    H272458   6.472   6.197  14.003  1.8645 -0.0817 -1.9710
17015TIP3   OH272459   0.635   2.812  16.385  0.0101  0.2285 -0.1076
17015TIP3    H172460   0.631   2.720  16.411 -0.9779  0.7047  1.4659
17015TIP3    H272461   0.695   2.812  16.310  1.6553 -1.3967  1.1562
17016TIP3   OH272462   5.052   3.196   1.676  0.1681 -0.3903  0.0745
17016TIP3    H172463   5.035   3.250   1.598  2.7806 -2.2629 -1.8782
17016TIP3    H272464   5.122   3.242   1.721 -0.3378 -0.0830  0.5540
17017TIP3   OH272465   0.622   6.007  10.563  0.1479 -0.1466  0.4190
17017TIP3    H172466   0.649   6.083  10.614 -0.3686 -0.2789  0.8884
17017TIP3    H272467   0.701   5.953  10.558 -0.1406 -0.7736  2.2188
17018TIP3   OH272468   5.906   0.075   1.702  0.7203 -0.4488  0.0774
17018TIP3    H172469   5.917   0.084   1.796 -1.0900 -0.0334  0.2730
17018TIP3    H272470   5.881  -0.017   1.689 -1.3261  0.0489  0.2742
17019TIP3   OH272471   0.511   1.466  16.978  0.0190  0.2165 -0.5702
17019TIP3    H172472   0.427   1.460  17.023 -0.9954 -0.0853 -2.4468
17019TIP3    H272473   0.497   1.531  16.910  1.2880  0.0929 -0.9718
17020TIP3   OH272474   1.878   2.785   6.420 -0.8591 -0.4456 -0.0567
17020TIP3    H172475   1.806   2.838   6.387  0.2647 -0.2053 -2.2291
17020TIP3    H272476   1.836   2.718   6.474 -2.5414  0.7404  0.1393
17021TIP3   OH272477   6.441   3.630   3.198  0.8705  0.4910  0.6372
17021TIP3    H172478   6.469   3.707   3.247  2.1798  1.3557 -1.3774
17021TIP3    H272479   6.346   3.632   3.202  0.9256  1.4722  1.7198
17022TIP3   OH272480   5.833   6.371  11.569  0.8157 -0.2581  0.1107
17022TIP3    H172481   5.828   6.370  11.664  0.3626  2.4071  0.1530
17022TIP3    H272482   5.743   6.387  11.541  1.5301  2.7448 -0.6126
17023TIP3   OH272483   0.152   4.745   3.078  0.0953  0.1306 -0.1871
17023TIP3    H172484   0.122   4.724   2.989  1.8976 -1.0450 -0.5515
17023TIP3    H272485   0.140   4.840   3.085 -4.2311 -0.3144 -0.0431
17024TIP3   OH272486   2.151   1.963   2.505  0.0244  0.0050  0.2296
17024TIP3    H172487   2.191   1.981   2.590  0.2943 -0.9690  0.3166
17024TIP3    H272488   2.225   1.958   2.445 -0.1626  0.6490 -0.0553
17025TIP3   OH272489   2.151   2.256  17.141 -0.4785  0.6590 -0.2311
17025TIP3    H172490   2.157   2.294  17.229 -1.6459 -1.8372  0.9722
17025TIP3    H272491   2.232   2.207  17.130 -0.6000  0.4779 -0.3196
17026TIP3   OH272492   6.581   4.519   5.495  0.3964  0.1266  0.2976
17026TIP3    H172493   6.592   4.614   5.506 -2.1081  0.6901 -1.5939
17026TIP3    H272494   6.669   4.486   5.479  1.3570  2.0755  1.3511
17027TIP3   OH272495   3.510   1.552   6.157  0.1832 -0.3751 -0.5741
17027TIP3    H172496   3.426   1.505   6.155  0.4816 -0.8674 -2.5119
17027TIP3    H272497   3.504   1.614   6.085  1.4253 -0.2984 -0.6133
17028TIP3   OH272498   5.177   1.708   3.577  0.1687  0.0983  0.6371
17028TIP3    H172499   5.106   1.771   3.594 -0.0587  0.3573 -1.1003
17028TIP3    H272500   5.249   1.738   3.632 -0.0557  1.6987  0.1092
17029TIP3   OH272501   1.160   1.907   3.092 -0.6247 -0.6430 -0.2480
17029TIP3    H172502   1.254   1.889   3.087  0.1416  3.2512 -1.1387
17029TIP3    H272503   1.127   1.882   3.005 -0.4682 -2.1282  0.1029
17030TIP3   OH272504   0.232   2.309   1.838 -0.4037  0.8715  0.4785
17030TIP3    H172505   0.263   2.399   1.840 -0.3814  0.9054 -0.8879
17030TIP3    H272506   0.310   2.256   1.821 -0.8046  0.8141 -1.2411
17031TIP3   OH272507   1.641   3.753  10.801  0.1076 -0.1773  0.1449
17031TIP3    H172508   1.727   3.779  10.834 -0.0556 -1.3663  1.5727
17031TIP3    H272509   1.654   3.738  10.708  1.4247 -0.2626  0.3405
17032TIP3   OH272510   2.538   0.081   1.597 -0.5720  0.7189  0.7420
17032TIP3    H172511   2.598   0.007   1.585  0.3177  1.5505 -0.0449
17032TIP3    H272512   2.451   0.043   1.591 -0.1604 -0.8386  3.9237
17033TIP3   OH272513   1.660   1.459   5.366 -0.4943 -0.2145 -0.1978
17033TIP3    H172514   1.576   1.437   5.405  0.0928 -1.1850  0.5278
17033TIP3    H272515   1.716   1.384   5.385  0.6039  0.5245 -0.4684
17034TIP3   OH272516   0.997   5.854   4.229 -0.5107 -0.2073  0.2574
17034TIP3    H172517   1.092   5.858   4.238 -0.5065 -1.4007  0.7782
17034TIP3    H272518   0.964   5.867   4.318 -0.8441  0.3812  0.0503
17035TIP3   OH272519   1.535   0.416   1.950  0.1957  0.4245  0.3326
17035TIP3    H172520   1.612   0.442   2.002  1.6185 -1.8899 -0.5403
17035TIP3    H272521   1.567   0.414   1.860 -2.1729  4.1169 -0.7173
17036TIP3   OH272522   1.885   4.355   4.917 -0.5413  0.0981 -0.1457
17036TIP3    H172523   1.789   4.359   4.913 -0.5335  0.6549  0.1291
17036TIP3    H272524   1.908   4.412   4.991 -0.0322 -0.5191  0.1733
17037TIP3   OH272525   1.967   1.493   1.396 -0.1402  0.2324 -0.2037
17037TIP3    H172526   1.879   1.510   1.430 -0.2824  2.0494 -1.4312
17037TIP3    H272527   1.962   1.516   1.303  1.1751 -1.3326 -0.6742
17038TIP3   OH272528   4.820   0.160   2.964  0.0036 -0.2158  0.4300
17038TIP3    H172529   4.897   0.211   2.939 -0.6994  0.4385 -0.4490
17038TIP3    H272530   4.790   0.199   3.046  0.6274 -0.5062  0.8031
17039TIP3   OH272531   4.556   5.925   0.294 -0.4448 -0.0612 -0.1200
17039TIP3    H172532   4.542   5.918   0.388 -0.5679  0.8852 -0.0656
17039TIP3    H272533   4.624   5.991   0.284 -0.6165  0.0324 -0.7106
17040TIP3   OH272534   6.643   6.728   2.062  0.1095  0.3869 -0.3417
17040TIP3    H172535   6.571   6.666   2.072 -0.7878  1.6774  1.5307
17040TIP3    H272536   6.602   6.814   2.067  1.4976  1.1586 -1.5971
17041TIP3   OH272537   5.677   1.819  14.587  0.2391 -0.2427 -0.0000
17041TIP3    H172538   5.712   1.742  14.542  0.7018 -0.2241  0.3275
17041TIP3    H272539   5.744   1.842  14.651 -1.0433 -1.1872  1.7701
17042TIP3   OH272540   4.101   5.595  13.819  0.5382 -0.3302  0.2834
17042TIP3    H172541   4.009   5.576  13.838  0.7014 -0.7036  0.7173
17042TIP3    H272542   4.104   5.691  13.810  0.7332  0.0757  3.8986
17043TIP3   OH272543   4.933   2.724   4.035 -0.4558 -0.2836  0.2425
17043TIP3    H172544   4.889   2.800   4.073 -1.8990 -0.9147 -0.1273
17043TIP3    H272545   4.907   2.651   4.091  0.4518 -0.5993  0.2537
17044TIP3   OH272546   3.653   0.041  13.186  0.4658 -0.5328  0.2089
17044TIP3    H172547   3.598   0.022  13.110 -3.2536 -1.2170  2.9420
17044TIP3    H272548   3.626   0.128  13.213  3.8031  0.8967 -0.8584
17045TIP3   OH272549   4.945   6.717  16.631 -0.2948 -0.6464 -0.0529
17045TIP3    H172550   4.860   6.696  16.592 -0.0015  0.1732 -1.1447
17045TIP3    H272551   4.995   6.756  16.560 -0.1154  1.8449  1.3827
17046TIP3   OH272552   0.615   5.995   3.417  0.3195  0.2665 -0.2262
17046TIP3    H172553   0.562   5.980   3.495 -0.7208 -1.6688 -1.2586
17046TIP3    H272554   0.553   6.030   3.353  1.1107  1.5824 -0.2954
17047TIP3   OH272555   1.339   5.916   3.942  0.1250 -0.1288 -0.4014
17047TIP3    H172556   1.424   5.920   3.899  0.9100 -0.5299  1.0785
17047TIP3    H272557   1.303   5.832   3.917  0.3186 -0.1091 -0.7497
17048TIP3   OH272558   3.818   0.669  14.228  1.0967  0.3016 -0.1046
17048TIP3    H172559   3.879   0.717  14.172 -0.5486  2.4251 -0.1504
17048TIP3    H272560   3.739   0.661  14.175  0.5316 -0.3072  0.8306
17049TIP3   OH272561   0.819   3.361   1.929 -0.2776  0.2207 -0.0055
17049TIP3    H172562   0.830   3.374   1.834  0.8231  1.8234  0.3106
17049TIP3    H272563   0.891   3.304   1.954 -1.1215 -0.9806 -0.2753
17050TIP3   OH272564   2.653   2.500  15.717 -0.0302 -0.2398 -0.2219
17050TIP3    H172565   2.721   2.555  15.679  0.0933  0.6190  1.2201
17050TIP3    H272566   2.571   2.541  15.691  0.0254 -0.4007 -0.6589
17051TIP3   OH272567   5.234   3.412   4.413 -0.4643  0.1611  0.0228
17051TIP3    H172568   5.263   3.426   4.323  0.4725 -2.6427 -0.1657
17051TIP3    H272569   5.309   3.437   4.467  0.9941 -3.2540 -0.2835
17052TIP3   OH272570   2.002   4.190   0.925  0.4718  0.6900 -0.4426
17052TIP3    H172571   2.024   4.108   0.880  2.3696  0.1868  1.3345
17052TIP3    H272572   2.086   4.224   0.955 -0.6434  1.5307  1.8334
17053TIP3   OH272573   4.135   1.880   3.251 -0.0828  0.2128 -0.2005
17053TIP3    H172574   4.136   1.850   3.161  0.3009 -0.2377 -0.0462
17053TIP3    H272575   4.108   1.804   3.302  2.1746 -0.2458  0.3282
17054TIP3   OH272576   6.322   5.401  15.413 -0.5872 -0.4132 -0.2339
17054TIP3    H172577   6.288   5.481  15.374  0.8165  0.7871  0.9446
17054TIP3    H272578   6.373   5.359  15.343 -0.4159  0.2822 -0.5258
17055TIP3   OH272579   5.241   5.892   1.901 -0.0220  0.1228 -0.0435
17055TIP3    H172580   5.160   5.847   1.877 -0.3316  1.5425 -1.7411
17055TIP3    H272581   5.219   5.985   1.897  1.8193  0.5375 -1.0169
17056TIP3   OH272582   5.028   1.007  13.307 -0.3533 -0.0557  0.1518
17056TIP3    H172583   5.076   1.044  13.233 -2.1745  0.5010 -0.7621
17056TIP3    H272584   5.017   0.914  13.284  0.7128 -0.3061  0.6079
17057TIP3   OH272585   3.818   3.990   4.252  0.0386  0.3474  0.1073
17057TIP3    H172586   3.729   3.959   4.239  0.4956 -0.0640 -2.1147
17057TIP3    H272587   3.871   3.911   4.260  0.3520  0.5912  0.5160
17058TIP3   OH272588   4.934   1.381   5.064  0.0925  0.0096 -0.1167
17058TIP3    H172589   4.851   1.428   5.059  0.4245  0.6681  0.4692
17058TIP3    H272590   4.997   1.438   5.020  0.1496 -0.6925 -0.9556
17059TIP3   OH272591   3.176   4.138   3.074 -0.2027 -0.2742  0.3695
17059TIP3    H172592   3.256   4.105   3.115 -0.9708 -1.5997  0.8471
17059TIP3    H272593   3.157   4.220   3.120  1.2176  0.3790 -0.1913
17060TIP3   OH272594   6.071   1.515  15.272 -0.2817 -0.2382 -0.3359
17060TIP3    H172595   6.015   1.578  15.318 -0.7053  0.2457 -1.4834
17060TIP3    H272596   6.050   1.528  15.180  1.7312 -0.0665 -0.7858
17061TIP3   OH272597   0.867   5.176   4.014 -0.5657 -0.0865  0.0948
17061TIP3    H172598   0.822   5.093   3.994 -3.1798  1.4363 -0.6237
17061TIP3    H272599   0.936   5.182   3.948 -1.0552 -1.1620 -0.5390
17062TIP3   OH272600   6.196   3.508   2.061 -0.0291  0.3848 -0.2489
17062TIP3    H172601   6.210   3.437   1.999 -0.0421  0.2573 -0.1064
17062TIP3    H272602   6.236   3.477   2.142  0.4944  0.7811 -0.3484
17063TIP3   OH272603   6.783   6.158   4.042 -0.0454 -0.6422 -0.2329
17063TIP3    H172604   6.691   6.149   4.015  0.2480 -1.2992 -1.0201
17063TIP3    H272605   6.793   6.097   4.114  0.1904 -1.7537 -1.1977
17064TIP3   OH272606   0.575   1.623   5.324 -0.7739 -0.3212 -0.3750
17064TIP3    H172607   0.669   1.603   5.324 -0.9174 -1.0204  0.0157
17064TIP3    H272608   0.571   1.719   5.323 -0.0395 -0.2454  1.9875
17065TIP3   OH272609   4.840   5.060  14.476 -0.3787  0.1943  0.2638
17065TIP3    H172610   4.791   5.005  14.415 -0.1478  0.8157 -0.5043
17065TIP3    H272611   4.775   5.091  14.539 -0.7553  0.1090 -0.0818
17066TIP3   OH272612   4.893   3.364   0.845 -0.2164  0.2329 -0.1038
17066TIP3    H172613   4.972   3.386   0.895  0.6109 -0.9233 -0.8825
17066TIP3    H272614   4.855   3.449   0.822  0.3517  0.7903  0.9770
17067TIP3   OH272615   5.707   3.517  13.822 -0.2216 -0.1335 -0.2004
17067TIP3    H172616   5.723   3.573  13.899  0.7062  0.0292 -0.5026
17067TIP3    H272617   5.663   3.574  13.759  1.3177  0.4529 -0.7623
17068TIP3   OH272618   5.685   4.798  17.046 -0.2899 -1.0655 -0.1282
17068TIP3    H172619   5.593   4.824  17.049  0.0109  0.4367 -2.8515
17068TIP3    H272620   5.684   4.703  17.059 -2.1525 -0.9601  0.5543
17069TIP3   OH272621   2.075   2.695  13.595  0.3789  0.1452 -0.0175
17069TIP3    H172622   2.118   2.740  13.523  1.2358 -0.2914  0.2109
17069TIP3    H272623   2.009   2.757  13.627  0.9170  0.8598 -0.3039
17070TIP3   OH272624   0.906   5.127  16.855 -0.0388 -0.0818  0.0671
17070TIP3    H172625   0.980   5.183  16.877 -0.5127 -0.0317  1.5774
17070TIP3    H272626   0.832   5.165  16.903 -0.9302 -0.4547 -0.9854
17071TIP3   OH272627   6.571   3.715  14.828 -0.5556 -0.0556 -0.2147
17071TIP3    H172628   6.623   3.789  14.860 -2.4285  1.0751  0.2507
17071TIP3    H272629   6.636   3.649  14.803  1.0846  1.1839  0.7277
17072TIP3   OH272630   5.285   2.529   3.893  0.1365 -0.2791  0.3296
17072TIP3    H172631   5.239   2.467   3.836  1.3611  0.5453 -1.6256
17072TIP3    H272632   5.245   2.613   3.873  2.4198  0.4658 -1.4442
17073TIP3   OH272633   5.300   3.107  13.190  0.6553 -0.3645 -0.3191
17073TIP3    H172634   5.270   3.182  13.139  2.5287  1.7115  1.5164
17073TIP3    H272635   5.396   3.114  13.189  0.8455 -2.5023  0.2460
17074TIP3   OH272636   5.533   3.361  13.063  0.1582  0.5770 -0.1078
17074TIP3    H172637   5.438   3.366  13.049  0.1826  1.3209  0.0020
17074TIP3    H272638   5.557   3.276  13.026 -0.2323  1.2507 -1.9950
17075TIP3   OH272639   6.584   0.304  11.588  0.2710  0.2855  0.0833
17075TIP3    H172640   6.537   0.289  11.670 -0.6905  1.8602 -0.1560
17075TIP3    H272641   6.641   0.379  11.606  0.4300  0.3138 -0.5279
17076TIP3   OH272642   3.741   1.767  12.598  0.4542 -0.1455 -0.0491
17076TIP3    H172643   3.737   1.780  12.504  1.1458 -2.8552 -0.4733
17076TIP3    H272644   3.810   1.826  12.627  0.2748  0.6630 -1.2345
17077TIP3   OH272645   4.774   4.204   4.297  0.0534 -0.2531 -0.0418
17077TIP3    H172646   4.688   4.204   4.339  0.0632 -1.0025 -0.0112
17077TIP3    H272647   4.820   4.277   4.337 -0.3530 -0.2328  0.3966
17078TIP3   OH272648   3.459   4.046   3.470 -0.0726  0.0328 -0.2550
17078TIP3    H172649   3.552   4.024   3.479 -0.3326 -1.0769 -0.1750
17078TIP3    H272650   3.442   4.108   3.541  0.4520 -0.2757  0.1453
17079TIP3   OH272651   6.594   5.742   5.613 -0.2038  0.0519 -0.4304
17079TIP3    H172652   6.599   5.729   5.708  0.0331  0.1805 -0.4239
17079TIP3    H272653   6.685   5.738   5.584 -0.2775  0.0026 -0.6524
17080TIP3   OH272654   3.291   6.621   5.530 -0.2147 -0.4143  0.1752
17080TIP3    H172655   3.296   6.605   5.436 -2.6711 -0.0045 -0.0535
17080TIP3    H272656   3.248   6.543   5.566 -1.9761  0.6773  0.5298
17081TIP3   OH272657   1.755   1.960  13.044 -0.1091  0.1998  0.0882
17081TIP3    H172658   1.722   1.887  12.992  0.5897  1.5282 -2.2954
17081TIP3    H272659   1.828   1.923  13.093  0.9505 -0.4887 -1.9336
17082TIP3   OH272660   1.917   6.702   3.700  0.0245 -0.2130 -0.6446
17082TIP3    H172661   1.915   6.785   3.654  1.2130 -0.7681 -1.7196
17082TIP3    H272662   1.856   6.646   3.652 -0.1792 -0.2183 -0.3872
17083TIP3   OH272663   5.765   3.564   3.074  0.3455 -0.1952  0.7364
17083TIP3    H172664   5.704   3.615   3.021  0.4782 -0.5816  0.1962
17083TIP3    H272665   5.714   3.490   3.106  1.0096 -1.7086 -1.4957
17084TIP3   OH272666   1.189   6.598  12.288  0.5593 -0.2328 -0.1470
17084TIP3    H172667   1.104   6.577  12.248 -0.2711 -0.2657  1.5670
17084TIP3    H272668   1.168   6.662  12.356  1.8172 -0.7549  0.7580
17085TIP3   OH272669   6.222   4.687   0.248  0.4947  0.0409  0.2189
17085TIP3    H172670   6.219   4.734   0.331 -0.0269  0.3377  0.0333
17085TIP3    H272671   6.163   4.736   0.191  0.2196 -0.6354 -0.0777
17086TIP3   OH272672   1.749   1.657   3.531 -0.0560  0.2405  0.3407
17086TIP3    H172673   1.697   1.728   3.569 -0.3796 -0.3209  0.9491
17086TIP3    H272674   1.696   1.578   3.545  0.3033 -0.1293 -0.3215
17087TIP3   OH272675   0.637   6.223   3.047 -0.1577 -0.0298  0.7623
17087TIP3    H172676   0.715   6.254   3.092 -0.8116  1.1752  1.0822
17087TIP3    H272677   0.658   6.133   3.021  0.7910 -0.2002  2.1025
17088TIP3   OH272678   6.207   2.137   3.792 -0.0383 -0.9940  0.1505
17088TIP3    H172679   6.268   2.125   3.719  1.1454  1.5969  0.6508
17088TIP3    H272680   6.262   2.151   3.868 -1.2485  0.0767  0.8582
17089TIP3   OH272681   2.730   2.027   0.255  0.4488 -0.1227  0.4090
17089TIP3    H172682   2.824   2.012   0.255  0.5462  0.4754  1.9230
17089TIP3    H272683   2.706   2.036   0.347 -1.1201 -0.4433  0.0524
17090TIP3   OH272684   0.137   5.853   4.498 -0.1212 -0.0438  0.1820
17090TIP3    H172685   0.080   5.779   4.519  2.0048 -1.5798  0.6519
17090TIP3    H272686   0.185   5.871   4.579  2.4167 -0.9105 -1.0715
17091TIP3   OH272687   2.804   3.431   3.056 -0.2957  0.3595  0.1692
17091TIP3    H172688   2.726   3.481   3.080  0.1858  0.5776  1.2933
17091TIP3    H272689   2.784   3.341   3.082 -0.7708  0.1328 -0.9490
17092TIP3   OH272690   2.924   0.189   2.733 -0.3637  0.1266 -0.5316
17092TIP3    H172691   2.854   0.148   2.682 -2.1920  0.8132  1.3133
17092TIP3    H272692   2.913   0.154   2.821  2.2225 -0.4179 -0.3918
17093TIP3   OH272693   0.501   4.841  12.414 -0.4386 -0.7283 -0.2417
17093TIP3    H172694   0.465   4.790  12.486 -1.0979  0.1746  0.0695
17093TIP3    H272695   0.553   4.778  12.364 -0.6195 -1.5307  0.5727
17094TIP3   OH272696   6.490   2.479   1.422 -0.5524  0.0602  0.2797
17094TIP3    H172697   6.505   2.503   1.330  0.6378 -0.3294  0.3636
17094TIP3    H272698   6.543   2.540   1.472 -2.0061  0.9339  0.7749
17095TIP3   OH272699   2.107   3.334   3.087 -0.7011 -0.1996 -1.0047
17095TIP3    H172700   2.012   3.327   3.075 -0.6049  0.6507 -2.4902
17095TIP3    H272701   2.138   3.244   3.087 -1.6098 -0.5249  0.4350
17096TIP3   OH272702   1.337   5.568  14.462  0.4750 -0.0050 -0.1436
17096TIP3    H172703   1.304   5.554  14.374  0.5040 -0.1925 -0.1259
17096TIP3    H272704   1.398   5.642  14.454  0.0866  0.3128 -0.1822
17097TIP3   OH272705   5.845   3.267  16.144  0.1072  0.1950  0.2451
17097TIP3    H172706   5.891   3.208  16.204  0.6364 -0.2969 -0.6393
17097TIP3    H272707   5.761   3.224  16.128  0.2690 -0.0438  0.0362
17098TIP3   OH272708   3.080   2.713   1.287 -0.1301 -0.4567 -0.2298
17098TIP3    H172709   3.088   2.773   1.213 -3.0111  2.0807  1.3992
17098TIP3    H272710   3.129   2.756   1.358  0.3646 -1.5318  0.0802
17099TIP3   OH272711   5.667   0.477   4.199  0.2166  0.1021 -0.5015
17099TIP3    H172712   5.620   0.531   4.262 -0.8785 -2.0350  0.5627
17099TIP3    H272713   5.605   0.462   4.128  0.4170  0.0524 -0.6664
17100TIP3   OH272714   4.803   5.406   4.029 -0.4191 -0.4722 -0.0175
17100TIP3    H172715   4.717   5.364   4.024 -0.2219 -0.7996 -0.6472
17100TIP3    H272716   4.863   5.345   3.987  0.2900 -0.6560  1.2395
17101TIP3   OH272717   5.214   1.627   6.142 -0.7790 -0.3156  0.4506
17101TIP3    H172718   5.126   1.640   6.177 -1.1173 -1.0233 -0.1081
17101TIP3    H272719   5.214   1.537   6.110 -0.0353 -0.1285 -0.1027
17102TIP3   OH272720   6.027   3.061   5.142  0.2536  0.1512 -0.1048
17102TIP3    H172721   5.952   3.041   5.199 -0.3508  1.0747 -0.5691
17102TIP3    H272722   6.080   3.122   5.192 -0.3240  1.0330 -0.5608
17103TIP3   OH272723   4.769   5.920  15.593  0.7464 -0.0460 -0.1862
17103TIP3    H172724   4.723   5.995  15.630  0.1506 -0.8121  0.6287
17103TIP3    H272725   4.849   5.912  15.645  0.9337  0.1743 -0.4368
17104TIP3   OH272726   2.553   1.819  15.322 -0.1892 -0.5310 -0.6400
17104TIP3    H172727   2.512   1.824  15.408  2.0977  3.5500  0.3518
17104TIP3    H272728   2.489   1.857  15.262 -0.3752 -0.0728 -0.1515
17105TIP3   OH272729   3.197   6.458   0.617  0.3434  0.1608  0.2699
17105TIP3    H172730   3.128   6.411   0.569 -0.5085 -1.7822  3.2390
17105TIP3    H272731   3.149   6.512   0.680  1.4649 -0.6089  1.8173
17106TIP3   OH272732   3.649   2.802  14.067 -0.3365  0.0631  0.4052
17106TIP3    H172733   3.611   2.723  14.106  1.6286 -1.3659 -0.5022
17106TIP3    H272734   3.705   2.770  13.997 -0.3832  2.3455 -0.7443
17107TIP3   OH272735   4.069   1.365  12.629  0.3753  0.6597 -0.0458
17107TIP3    H172736   4.049   1.304  12.701  1.3736 -0.5903 -0.8017
17107TIP3    H272737   4.025   1.446  12.654 -0.7649 -0.2869  1.1196
17108TIP3   OH272738   1.260   3.156  15.572  0.3435 -0.1072  0.2003
17108TIP3    H172739   1.174   3.182  15.604 -0.0014 -0.0293 -0.7738
17108TIP3    H272740   1.269   3.201  15.488  1.4579  0.1133  0.4326
17109TIP3   OH272741   5.393   2.039   4.488 -0.3194 -0.3365  0.6796
17109TIP3    H172742   5.317   2.040   4.547  0.4006  0.2043  1.6194
17109TIP3    H272743   5.358   2.010   4.404 -1.6043  0.0890  1.0576
17110TIP3   OH272744   3.121   5.133  12.201 -0.0517 -0.8450 -0.0895
17110TIP3    H172745   3.121   5.078  12.123 -0.6440 -0.0392 -0.6642
17110TIP3    H272746   3.184   5.091  12.260 -0.4755 -2.1095 -0.5294
17111TIP3   OH272747   1.334   6.151   5.026  0.0836 -1.2549 -0.2377
17111TIP3    H172748   1.247   6.121   4.996  0.0209  0.2646 -1.6185
17111TIP3    H272749   1.391   6.076   5.010 -0.6579 -1.6961 -0.9029
17112TIP3   OH272750   4.929   0.640   3.857  0.2352  0.0019  0.1166
17112TIP3    H172751   4.947   0.707   3.923  1.3682  0.0503 -0.2373
17112TIP3    H272752   4.885   0.688   3.786  0.3186  0.2188  0.2107
17113TIP3   OH272753   0.904   3.353  14.944 -0.0802  0.1176  0.0741
17113TIP3    H172754   0.980   3.311  14.903 -0.9559 -1.0362 -0.3842
17113TIP3    H272755   0.849   3.380  14.871 -0.8937 -0.5150  0.4512
17114TIP3   OH272756   1.560   4.182   4.144  0.1021  0.4411 -0.2885
17114TIP3    H172757   1.625   4.244   4.177 -0.2664  0.2479  0.8136
17114TIP3    H272758   1.608   4.127   4.083  0.6487  1.2120 -0.5526
17115TIP3   OH272759   1.709   6.094   0.644 -0.5827 -0.5125  0.0009
17115TIP3    H172760   1.701   6.077   0.738  3.6048  1.0440  0.7392
17115TIP3    H272761   1.798   6.129   0.633 -1.5189  0.8244 -4.3321
17116TIP3   OH272762   1.215   4.408  16.957  0.5475 -0.3606  0.1266
17116TIP3    H172763   1.137   4.454  16.987  1.1762  1.0626 -0.3771
17116TIP3    H272764   1.209   4.321  16.997 -0.1888  0.4551  1.8327
17117TIP3   OH272765   1.831   6.134   0.005 -0.6744  0.6207  0.8394
17117TIP3    H172766   1.908   6.173  -0.035 -2.2493  1.3302 -1.6639
17117TIP3    H272767   1.830   6.167   0.094  0.5571  2.6147  0.1388
17118TIP3   OH272768   0.999   5.687  12.582 -0.2990 -0.3017  0.1961
17118TIP3    H172769   0.905   5.701  12.583 -0.3400 -0.3083 -1.6885
17118TIP3    H272770   1.015   5.637  12.502  1.5425  1.5207 -0.6291
17119TIP3   OH272771   2.412   2.143  17.062 -0.0378  0.1411 -0.1319
17119TIP3    H172772   2.465   2.199  17.006  0.5842  0.9987  1.2921
17119TIP3    H272773   2.467   2.067  17.079 -0.0377  0.1099 -0.2685
17120TIP3   OH272774   0.535   0.460  16.959 -0.0547  0.2505  0.6649
17120TIP3    H172775   0.442   0.482  16.951 -0.0053  0.1643 -0.2073
17120TIP3    H272776   0.541   0.371  16.923  0.4274  0.4040  0.3672
17121TIP3   OH272777   2.512   5.485   0.589  0.6830 -1.0230 -0.1233
17121TIP3    H172778   2.566   5.520   0.518  1.0330 -1.4608 -0.0741
17121TIP3    H272779   2.427   5.468   0.547  0.7606 -0.8854 -0.3377
17122TIP3   OH272780   4.030   4.248  12.966 -0.0873 -0.0474 -0.1497
17122TIP3    H172781   4.110   4.277  13.008 -0.6114  0.2475  0.6547
17122TIP3    H272782   4.016   4.310  12.895  0.0527  0.2730  0.1042
17123TIP3   OH272783   2.068   6.310   5.185  1.0123 -0.0762  0.0956
17123TIP3    H172784   2.117   6.312   5.267  1.1350  0.9381  0.0097
17123TIP3    H272785   2.063   6.402   5.158 -1.3155 -0.1031  0.3202
17124TIP3   OH272786   3.830   5.876  15.587  0.8802 -0.1050  0.1548
17124TIP3    H172787   3.897   5.903  15.650  0.0674  2.8969 -0.2064
17124TIP3    H272788   3.867   5.900  15.501  0.2720 -0.4577 -0.2065
17125TIP3   OH272789   0.614   2.070   0.028  0.8526  0.8690  0.4110
17125TIP3    H172790   0.531   2.040   0.066  0.5396 -0.0577 -0.9428
17125TIP3    H272791   0.680   2.011   0.065  0.5269 -0.1402 -0.5680
17126TIP3   OH272792   5.115   1.014   1.260 -0.1949  0.4523  0.5424
17126TIP3    H172793   5.206   1.034   1.282  1.1575 -2.7967 -1.7150
17126TIP3    H272794   5.091   1.081   1.195  1.5325 -0.2914 -0.9083
17127TIP3   OH272795   5.500   2.674  15.132  0.5124  0.6302 -0.3368
17127TIP3    H172796   5.433   2.740  15.145 -0.2353 -0.3703  1.0088
17127TIP3    H272797   5.497   2.654  15.038 -2.4697 -0.8411  0.0112
17128TIP3   OH272798   0.060   1.412   1.076  0.9614 -0.4077  0.1329
17128TIP3    H172799   0.125   1.364   1.023 -1.4871 -1.8148 -1.6911
17128TIP3    H272800   0.052   1.496   1.032  2.0897  0.0606  0.8069
17129TIP3   OH272801   5.666   3.165  14.333 -0.2086 -0.0482  0.1225
17129TIP3    H172802   5.588   3.174  14.278 -0.6293 -1.0126  0.5453
17129TIP3    H272803   5.676   3.251  14.375 -0.1764  0.5257 -1.0621
17130TIP3   OH272804   4.168   4.587   1.427 -0.8921 -0.0467 -0.6267
17130TIP3    H172805   4.215   4.526   1.484 -2.4762  0.4741  1.2927
17130TIP3    H272806   4.219   4.588   1.346 -0.5579 -3.5238 -0.5341
17131TIP3   OH272807   5.325   1.049  16.028 -0.0142 -0.1371  0.1336
17131TIP3    H172808   5.229   1.056  16.031  0.0803  1.5244 -0.0565
17131TIP3    H272809   5.351   1.044  16.120 -0.2334  0.3162  0.2217
17132TIP3   OH272810   0.638   4.613   3.827  0.2238  0.4754 -0.1866
17132TIP3    H172811   0.722   4.588   3.789 -0.2158  1.3994 -1.8506
17132TIP3    H272812   0.575   4.601   3.756 -0.8727  0.8193  0.7096
17133TIP3   OH272813   4.604   1.713   6.054 -0.1187  0.2019 -0.2351
17133TIP3    H172814   4.690   1.755   6.042  0.5038 -0.4212  1.7711
17133TIP3    H272815   4.600   1.646   5.986  0.5502  0.9046 -0.9832
17134TIP3   OH272816   2.133   4.235  11.410 -0.2220 -0.2481  0.5740
17134TIP3    H172817   2.145   4.220  11.316  0.2096 -1.2022  0.7754
17134TIP3    H272818   2.156   4.151  11.450  1.8581  0.8292  1.7030
17135TIP3   OH272819   5.611   4.304  14.216 -0.3378  0.7780  0.3570
17135TIP3    H172820   5.669   4.378  14.236 -2.1563  2.1840  0.6202
17135TIP3    H272821   5.645   4.267  14.135  3.8595 -1.5462  3.0369
17136TIP3   OH272822   0.549   4.898   2.622  0.1305 -0.2334  0.3620
17136TIP3    H172823   0.551   4.875   2.715 -0.2708  0.9412  0.6683
17136TIP3    H272824   0.630   4.861   2.587  0.0228 -1.1465  1.0653
17137TIP3   OH272825   0.602   4.250  12.501  0.3512 -0.0727 -0.8810
17137TIP3    H172826   0.550   4.322  12.538 -2.2002 -1.2700 -2.0450
17137TIP3    H272827   0.586   4.176  12.560  2.1667  0.0009 -0.2628
17138TIP3   OH272828   1.524   3.180   4.526 -0.3595  0.2958 -0.1168
17138TIP3    H172829   1.522   3.089   4.554 -1.5141 -0.0952 -1.4171
17138TIP3    H272830   1.514   3.176   4.431  1.5618  1.6880 -0.4139
17139TIP3   OH272831   5.450   1.543   5.500 -0.3631 -0.4757 -0.4934
17139TIP3    H172832   5.437   1.457   5.539 -1.9435 -0.3648 -0.7694
17139TIP3    H272833   5.487   1.526   5.414  2.3941 -0.7514  0.6876
17140TIP3   OH272834   5.835   2.128  16.168  0.1686  0.1800  0.4272
17140TIP3    H172835   5.925   2.097  16.176  0.3406  0.5635  0.0290
17140TIP3    H272836   5.833   2.174  16.084 -0.7044 -0.8121 -0.0909
17141TIP3   OH272837   5.729   5.117  14.104 -0.2860 -0.3367  0.2213
17141TIP3    H172838   5.678   5.140  14.027  0.1699 -4.4559 -1.4333
17141TIP3    H272839   5.820   5.122  14.075 -0.0841 -1.2844  0.6754
17142TIP3   OH272840   0.028   3.942  17.182 -0.3602  0.2758 -0.2175
17142TIP3    H172841   0.012   3.896  17.264  0.1776 -0.2632 -0.4119
17142TIP3    H272842   0.098   3.893  17.140 -0.1492  0.9593 -0.6800
17143TIP3   OH272843   1.646   2.470  15.327  0.2599  0.1826 -0.0209
17143TIP3    H172844   1.612   2.560  15.327  0.0092  0.1011  1.6167
17143TIP3    H272845   1.569   2.415  15.312  0.5387  0.2609 -1.8787
17144TIP3   OH272846   1.228   3.283   1.258  0.0439 -0.4911  0.2960
17144TIP3    H172847   1.184   3.262   1.341 -0.7139 -2.5725 -0.5879
17144TIP3    H272848   1.304   3.334   1.284 -1.4503  0.9049  2.0975
17145TIP3   OH272849   4.913   1.381  13.915  0.2447  0.0148 -0.4214
17145TIP3    H172850   4.869   1.311  13.868  0.3728  0.7520 -1.6787
17145TIP3    H272851   4.968   1.423  13.849 -0.3484  1.7183  0.1406
17146TIP3   OH272852   6.352   3.786   1.720 -0.1103 -0.1032 -0.0850
17146TIP3    H172853   6.279   3.726   1.704  0.2916 -0.3442 -1.0721
17146TIP3    H272854   6.423   3.731   1.752 -0.1732  0.0456  0.3141
17147TIP3   OH272855   5.653   6.273   5.047 -0.3719  0.2321  0.0744
17147TIP3    H172856   5.678   6.219   5.122 -0.0368 -1.0520 -0.9475
17147TIP3    H272857   5.611   6.212   4.986  0.5843  0.9939 -1.3720
17148TIP3   OH272858   3.054   1.952  12.034  0.2368 -0.7592  0.7234
17148TIP3    H172859   2.980   1.953  11.973  1.7551 -2.4340 -1.1976
17148TIP3    H272860   3.090   2.040  12.030  0.6342 -0.9956 -1.2209
17149TIP3   OH272861   5.960   2.194   5.849 -0.1668 -0.1055 -0.0337
17149TIP3    H172862   6.037   2.228   5.894 -0.9461  0.0866  1.1859
17149TIP3    H272863   5.989   2.110   5.812  0.5982 -0.0864  0.5072
17150TIP3   OH272864   3.382   2.108   3.976  0.0627  0.7020  0.6312
17150TIP3    H172865   3.454   2.171   3.965  0.7920 -0.1456  0.5309
17150TIP3    H272866   3.406   2.057   4.053 -1.4352  1.7465  1.8369
17151TIP3   OH272867   4.117   5.323  15.145 -0.4625 -0.3302  0.2884
17151TIP3    H172868   4.110   5.405  15.194 -0.9147 -0.5449  0.5864
17151TIP3    H272869   4.173   5.344  15.071 -0.4089  0.1970  0.4784
17152TIP3   OH272870   3.214   2.783   5.836 -0.0076 -0.0484 -0.0634
17152TIP3    H172871   3.186   2.692   5.826 -1.4663  0.4383 -0.5576
17152TIP3    H272872   3.160   2.832   5.773  0.2315  1.2527  0.7193
17153TIP3   OH272873   6.688   4.078   3.376  0.0399  0.1710 -0.7676
17153TIP3    H172874   6.637   4.074   3.457  1.1117  0.3370 -0.0774
17153TIP3    H272875   6.663   3.998   3.328 -1.3851  0.6009 -0.7607
17154TIP3   OH272876   4.192   4.403  14.759 -1.2438 -0.2696  0.2648
17154TIP3    H172877   4.261   4.348  14.796 -0.9617 -0.0324  0.0864
17154TIP3    H272878   4.234   4.486  14.741 -1.4779 -0.2593 -0.2362
17155TIP3   OH272879   2.190   3.972  12.395  0.0815 -0.0715  0.5692
17155TIP3    H172880   2.173   3.928  12.312 -2.0876 -0.1268  1.0214
17155TIP3    H272881   2.189   4.065  12.374  0.5740 -0.1123  0.3532
17156TIP3   OH272882   3.498   0.602   3.722  0.2590 -0.0028 -0.0901
17156TIP3    H172883   3.494   0.593   3.627 -1.7608 -0.1310 -0.0156
17156TIP3    H272884   3.553   0.679   3.737 -1.1191  1.2803 -1.4302
17157TIP3   OH272885   0.303   2.944  13.130 -0.3344 -0.0548  0.2838
17157TIP3    H172886   0.235   2.881  13.110  0.4349 -0.7082 -0.3046
17157TIP3    H272887   0.292   2.963  13.223 -1.7479  0.3772  0.0284
17158TIP3   OH272888   2.899   6.251   5.524 -0.3928  0.2355 -0.0755
17158TIP3    H172889   2.812   6.239   5.486 -1.4298  2.0943  1.6435
17158TIP3    H272890   2.895   6.207   5.609  1.2176 -1.9732 -1.0910
17159TIP3   OH272891   0.812   3.525  14.141  0.5523 -0.3193  0.2379
17159TIP3    H172892   0.815   3.510  14.047  0.6739 -0.5909  0.2856
17159TIP3    H272893   0.793   3.619  14.150  0.6104 -0.2812 -0.0554
17160TIP3   OH272894   4.842   1.004  12.837 -0.0238 -0.4362 -0.2320
17160TIP3    H172895   4.925   0.989  12.881 -0.3877 -1.5754  0.1048
17160TIP3    H272896   4.783   1.036  12.906 -0.2011 -0.8389 -0.1934
17161TIP3   OH272897   1.219   3.493  14.438 -0.0867  0.0825  0.3003
17161TIP3    H172898   1.185   3.496  14.528 -1.8228  0.5494 -0.3533
17161TIP3    H272899   1.314   3.499  14.448 -0.0455 -2.6094  2.2659
17162TIP3   OH272900   0.663   3.418   3.690  0.2982 -0.1866 -0.0222
17162TIP3    H172901   0.735   3.374   3.646  2.2691  1.7942  1.1230
17162TIP3    H272902   0.667   3.386   3.780  2.0023  2.5055  0.9260
17163TIP3   OH272903   5.131   5.716   0.478  0.2838 -0.3902  0.0400
17163TIP3    H172904   5.205   5.687   0.424 -0.9262  0.6465 -2.2952
17163TIP3    H272905   5.095   5.635   0.515  0.3420 -1.3038 -1.8257
17164TIP3   OH272906   4.800   1.980  12.264  0.0654  0.2010  0.0737
17164TIP3    H172907   4.882   1.979  12.314  0.0028  0.1178  0.1736
17164TIP3    H272908   4.752   1.903  12.294  0.2490 -0.1333 -0.4741
17165TIP3   OH272909   2.207   5.356  12.169  0.4456 -0.2601  0.0646
17165TIP3    H172910   2.287   5.342  12.119  1.2561 -0.9457  1.5332
17165TIP3    H272911   2.174   5.441  12.139  2.4339  0.6521  0.4305
17166TIP3   OH272912   1.880   1.112  13.303  0.2177  0.0147 -0.4112
17166TIP3    H172913   1.930   1.084  13.226  0.1858  0.3382 -0.5505
17166TIP3    H272914   1.808   1.165  13.267  1.6239  2.2569 -0.0008
17167TIP3   OH272915   0.064   6.217   4.627 -0.1562  0.2551 -0.0939
17167TIP3    H172916   0.091   6.189   4.715  0.4460  1.0797 -0.0009
17167TIP3    H272917  -0.028   6.193   4.621  0.1842 -1.1439  0.2039
17168TIP3   OH272918   4.151   5.278   1.906  0.5032 -0.3328  0.4131
17168TIP3    H172919   4.124   5.308   1.819  0.4388 -1.3705  0.0740
17168TIP3    H272920   4.172   5.359   1.953  0.6217  0.2352 -0.5915
17169TIP3   OH272921   1.227   0.368   0.440  0.2522  0.1207 -0.3535
17169TIP3    H172922   1.226   0.434   0.509  1.7084 -0.2898  0.0850
17169TIP3    H272923   1.191   0.289   0.481  1.6613 -0.2861  0.1238
17170TIP3   OH272924   4.259   5.570  14.297  0.1048  0.1719  0.1067
17170TIP3    H172925   4.202   5.630  14.247  1.0822  2.2261  1.3786
17170TIP3    H272926   4.330   5.626  14.329  1.7064 -1.9458  0.3283
17171TIP3   OH272927   5.965   5.490  14.001  0.0464 -0.3069  0.3153
17171TIP3    H172928   5.879   5.502  13.962  0.7088  0.7741 -0.8445
17171TIP3    H272929   5.994   5.404  13.970  0.9510  0.9127 -2.4071
17172TIP3   OH272930   4.433   0.741  17.042 -0.1581  0.0876  0.5380
17172TIP3    H172931   4.354   0.698  17.074  0.6466 -1.8166  0.0420
17172TIP3    H272932   4.482   0.763  17.121 -1.1238  1.2117  0.8439
17173TIP3   OH272933   5.241   4.086  12.921 -0.2599  0.4008 -0.2854
17173TIP3    H172934   5.232   4.028  12.846  0.4281 -0.4400  0.2714
17173TIP3    H272935   5.332   4.075  12.950 -0.9650 -0.5005  1.6521
17174TIP3   OH272936   1.634   0.634  13.273 -0.2960  0.3504  0.0387
17174TIP3    H172937   1.710   0.687  13.297 -1.4671  2.0121  0.1343
17174TIP3    H272938   1.640   0.557  13.330  1.5782  0.2116 -0.3030
17175TIP3   OH272939   2.959   6.527  15.512 -0.1397  0.0593  0.2384
17175TIP3    H172940   3.016   6.518  15.435  0.4726  0.5169  0.6340
17175TIP3    H272941   2.922   6.439  15.524 -1.2311  0.2990 -1.3314
17176TIP3   OH272942   3.952   3.948   0.797  0.1318 -0.1403 -0.1784
17176TIP3    H172943   3.980   3.859   0.821  2.1277  0.9347  1.6541
17176TIP3    H272944   3.922   3.940   0.706  1.4942 -2.4444 -0.4717
17177TIP3   OH272945   0.247   0.489  17.010 -0.0121 -0.4772 -0.2486
17177TIP3    H172946   0.162   0.533  17.009  0.1483 -0.1131  0.9200
17177TIP3    H272947   0.255   0.449  16.923 -0.1085  1.9109 -1.3878
17178TIP3   OH272948   0.668   3.785  14.178 -0.0057  0.4256  1.3107
17178TIP3    H172949   0.593   3.831  14.140  0.0368 -0.8199 -0.3396
17178TIP3    H272950   0.731   3.854  14.198  0.1553  1.1088 -1.3535
17179TIP3   OH272951   1.982   3.537  11.041  0.0991 -0.8193 -0.2307
17179TIP3    H172952   1.939   3.452  11.045  1.3045 -1.5204 -1.3918
17179TIP3    H272953   2.009   3.546  10.949 -1.8399  1.7534 -0.6268
17180TIP3   OH272954   5.261   5.345   1.287  0.5688 -0.0461  0.2368
17180TIP3    H172955   5.193   5.372   1.225  0.0228 -0.9688  0.4206
17180TIP3    H272956   5.305   5.272   1.243 -1.1233 -2.0270  1.7389
17181TIP3   OH272957   3.878   5.426  17.233  0.1325  0.1872  0.0823
17181TIP3    H172958   3.801   5.386  17.272  0.1131  0.2576  0.1153
17181TIP3    H272959   3.844   5.500  17.183  0.1776  0.2134  0.0899
17182TIP3   OH272960   1.367   1.415   3.412 -0.3283  0.2386  0.6819
17182TIP3    H172961   1.453   1.413   3.371 -0.9976 -1.2233 -0.6809
17182TIP3    H272962   1.339   1.507   3.405  1.1377  0.7368  1.2147
17183TIP3   OH272963   3.704   0.322   2.753  0.2336 -0.3863  0.3074
17183TIP3    H172964   3.773   0.284   2.807  1.0411  0.3188 -0.2092
17183TIP3    H272965   3.669   0.248   2.703  0.6481 -0.7454  0.5434
17184TIP3   OH272966   2.983   4.867   3.383 -0.2153 -0.7050 -0.6388
17184TIP3    H172967   2.960   4.789   3.333 -1.6573 -1.0528  0.5413
17184TIP3    H272968   2.925   4.865   3.458  1.7626 -0.0758  0.9581
17185TIP3   OH272969   2.466   4.088  16.810  0.2616  0.6380 -0.7694
17185TIP3    H172970   2.498   4.001  16.786 -0.2235  0.5386 -1.0648
17185TIP3    H272971   2.468   4.089  16.906 -1.4341 -0.3476 -0.7020
17186TIP3   OH272972   2.112   6.049  13.192 -0.0672  0.1873 -0.1532
17186TIP3    H172973   2.069   5.977  13.146 -0.1115  1.4613 -2.1699
17186TIP3    H272974   2.053   6.070  13.265  0.7693 -2.8892  1.5170
17187TIP3   OH272975   4.350   2.128   4.984 -0.0848  0.3311 -0.5442
17187TIP3    H172976   4.366   2.039   5.015 -0.3765  1.0550  1.7689
17187TIP3    H272977   4.353   2.121   4.888  1.8836 -1.7725 -0.3743
17188TIP3   OH272978   3.686   3.872   3.478  0.2641  0.1770  0.1622
17188TIP3    H172979   3.776   3.895   3.501  0.4095  0.7479 -0.9087
17188TIP3    H272980   3.689   3.778   3.461  0.2060 -0.1927  2.1590
17189TIP3   OH272981   4.235   2.722  12.822  0.2610  0.2898  0.1693
17189TIP3    H172982   4.169   2.772  12.774  0.6583 -0.1318 -0.8308
17189TIP3    H272983   4.314   2.730  12.769  0.5488 -0.6803  0.4486
17190TIP3   OH272984   2.018   4.617   1.631  0.2211 -0.2512 -0.1839
17190TIP3    H172985   2.041   4.532   1.594 -0.3325 -0.9122  0.9648
17190TIP3    H272986   2.100   4.666   1.633  0.5203 -0.7215 -0.9527
17191TIP3   OH272987   6.295   3.753  15.021  0.1860 -0.2142 -0.2230
17191TIP3    H172988   6.266   3.844  15.020 -0.1065 -0.3100 -0.3034
17191TIP3    H272989   6.282   3.722  14.931 -1.5113 -0.9096  0.2434
17192TIP3   OH272990   1.286   1.165   3.560 -0.2668 -0.1590  0.1224
17192TIP3    H172991   1.303   1.247   3.513  1.0582  0.1307  1.0756
17192TIP3    H272992   1.364   1.112   3.544 -0.0856 -0.3071  1.4474
17193TIP3   OH272993   0.884   5.731  16.851 -0.2673 -0.4090  0.1849
17193TIP3    H172994   0.925   5.800  16.798  0.6007 -1.3908 -0.4302
17193TIP3    H272995   0.821   5.778  16.905 -0.8132  0.6734 -1.3518
17194TIP3   OH272996   4.901   5.221  13.839  0.2424 -0.0615 -0.1594
17194TIP3    H172997   4.889   5.137  13.796 -1.0768 -0.0768  0.2192
17194TIP3    H272998   4.890   5.286  13.770 -0.4674 -0.1374 -0.1192
17195TIP3   OH272999   0.773   5.459  12.983  0.7321 -0.3308 -0.2293
17195TIP3    H173000   0.726   5.455  13.066  0.8846  1.2700 -0.0556
17195TIP3    H273001   0.851   5.407  12.997 -0.2002 -1.6928 -0.0022
17196TIP3   OH273002   2.312   6.519   5.951  0.1246  0.0671 -0.3971
17196TIP3    H173003   2.278   6.551   6.035  0.8085  0.5662 -0.3024
17196TIP3    H273004   2.380   6.582   5.928  0.0762 -0.1865 -1.2292
17197TIP3   OH273005   4.385   5.986   5.853 -0.9005  0.3815 -0.0328
17197TIP3    H173006   4.431   5.953   5.931  0.5608  0.5143 -0.8342
17197TIP3    H273007   4.434   5.951   5.779 -1.0732  1.9452 -0.9084
17198TIP3   OH273008   1.671   0.110  17.194  0.0941 -0.7574  0.3020
17198TIP3    H173009   1.639   0.185  17.143  1.1149 -0.4813  0.0499
17198TIP3    H273010   1.682   0.144  17.283 -2.0378 -1.3348  0.8172
17199TIP3   OH273011   0.018   3.803   0.177  0.1731 -0.2382 -0.0202
17199TIP3    H173012  -0.034   3.770   0.251 -0.4856  0.3514 -0.2093
17199TIP3    H273013   0.065   3.727   0.144 -0.0439 -0.6413  0.5930
17200TIP3   OH273014   6.695   2.382   1.143 -0.5128 -0.3295 -0.1280
17200TIP3    H173015   6.715   2.304   1.196  0.6496  0.9855  1.4518
17200TIP3    H273016   6.780   2.426   1.133 -1.0990  0.5613 -1.2860
17201TIP3   OH273017   3.018   3.613   4.290  0.5234  0.4852 -0.1848
17201TIP3    H173018   3.091   3.666   4.259 -0.1739  1.5274 -0.0880
17201TIP3    H273019   2.967   3.593   4.211  0.8482 -0.1321 -0.2359
17202TIP3   OH273020   0.229   1.210   4.540  0.0492  0.2871  0.1662
17202TIP3    H173021   0.273   1.281   4.588 -0.1660  0.7566 -0.3261
17202TIP3    H273022   0.177   1.255   4.474  0.5196 -0.3792 -0.6576
17203TIP3   OH273023   3.837   3.263   0.275 -0.0562 -0.0810  0.0574
17203TIP3    H173024   3.763   3.234   0.222  0.3081 -0.0851 -0.4559
17203TIP3    H273025   3.867   3.344   0.232  0.4194 -0.2393  0.0872
17204TIP3   OH273026   4.054   5.549  13.263 -0.0688  0.5554 -0.2727
17204TIP3    H173027   4.107   5.613  13.310 -0.2810  0.2162  0.4364
17204TIP3    H273028   3.983   5.528  13.323  1.3415 -2.1833  0.5474
17205TIP3   OH273029   4.085   5.637  14.981 -0.3891 -0.3453 -0.2570
17205TIP3    H173030   4.100   5.635  15.076 -0.8493 -0.0712 -0.1739
17205TIP3    H273031   4.120   5.554  14.950 -1.1896 -0.9066  0.3113
17206TIP3   OH273032   3.199   5.372   5.097 -0.0049 -0.1292  0.5209
17206TIP3    H173033   3.201   5.328   5.182  0.8979 -0.2283  0.4484
17206TIP3    H273034   3.237   5.458   5.114 -1.1568  0.3973  0.5182
17207TIP3   OH273035   5.128   3.377   5.958  0.4427  0.0448 -0.0968
17207TIP3    H173036   5.104   3.342   6.044  0.2107 -0.0417 -0.1964
17207TIP3    H273037   5.210   3.425   5.973 -0.9950  2.3356  0.7103
17208TIP3   OH273038   3.130   3.872  15.626 -0.0247 -0.0007  0.3185
17208TIP3    H173039   3.131   3.832  15.539 -1.3751  0.8946 -0.1268
17208TIP3    H273040   3.186   3.949  15.618 -0.6671  0.4449  0.0495
17209TIP3   OH273041   6.285   4.186   5.270 -0.7288 -0.5830  0.0789
17209TIP3    H173042   6.191   4.174   5.276 -0.6153 -1.6720 -0.1597
17209TIP3    H273043   6.302   4.271   5.310 -1.9220  0.0785 -0.7971
17210TIP3   OH273044   3.411   0.666  15.385 -0.1380  0.5473 -0.3100
17210TIP3    H173045   3.415   0.754  15.347  2.0944  0.4274 -0.4085
17210TIP3    H273046   3.440   0.677  15.475 -2.2733  0.2801  0.4512
17211TIP3   OH273047   1.601   3.406  13.376  0.0606 -0.0946  0.1791
17211TIP3    H173048   1.568   3.353  13.449  0.0121 -0.1230  0.1366
17211TIP3    H273049   1.555   3.489  13.384 -1.4949 -0.8202 -1.0313
17212TIP3   OH273050   3.753   6.240   0.055  0.4934 -0.6351  0.3065
17212TIP3    H173051   3.750   6.334   0.036 -0.2948 -0.9034 -0.8904
17212TIP3    H273052   3.734   6.235   0.149 -1.4518  0.2637 -0.0155
17213TIP3   OH273053   2.394   1.250   6.206  0.4524  0.0657  0.0170
17213TIP3    H173054   2.485   1.263   6.179  0.1036  1.7977 -0.4179
17213TIP3    H273055   2.397   1.175   6.265  2.2024  0.2383  0.1928
17214TIP3   OH273056   5.035   0.402  14.400 -0.1332 -0.6160 -0.0894
17214TIP3    H173057   5.029   0.404  14.495 -0.4425 -0.5672 -0.1106
17214TIP3    H273058   4.944   0.401  14.370 -0.0660 -3.2257 -0.3244
17215TIP3   OH273059   5.310   3.930  15.597  0.6714 -0.0775 -0.7467
17215TIP3    H173060   5.382   3.914  15.535 -1.9017 -2.5032 -3.3117
17215TIP3    H273061   5.347   3.911  15.683  4.0765  2.3441 -1.5887
17216TIP3   OH273062   2.133   0.294   4.332  0.1907 -0.2099  0.1584
17216TIP3    H173063   2.199   0.293   4.402 -0.2971 -2.2564  0.6195
17216TIP3    H273064   2.184   0.298   4.251  0.8582 -0.6532  0.5476
17217TIP3   OH273065   5.046   2.692  14.029  0.2975  0.2151 -0.2427
17217TIP3    H173066   5.036   2.688  14.124  0.1902 -0.3389 -0.2738
17217TIP3    H273067   5.109   2.763  14.014  0.2711  0.3414  0.2348
17218TIP3   OH273068   0.405   6.149  14.063  0.3929 -0.4626 -0.1372
17218TIP3    H173069   0.446   6.142  14.150  0.7055 -2.6309 -0.4357
17218TIP3    H273070   0.475   6.180  14.006  0.1452  1.1343  0.3847
17219TIP3   OH273071   0.765   2.520  12.282 -0.5352  0.6266  0.1778
17219TIP3    H173072   0.745   2.592  12.222  0.5216  0.9248  0.1558
17219TIP3    H273073   0.681   2.493  12.317 -1.0682  1.0493 -0.7677
17220TIP3   OH273074   0.481   2.604   5.750  0.2376  0.0603  0.8284
17220TIP3    H173075   0.510   2.674   5.809 -2.7445  1.6645  0.4821
17220TIP3    H273076   0.414   2.558   5.800 -2.0444  1.1950 -1.0949
17221TIP3   OH273077   4.396   1.215   1.987  0.5603 -0.5696  0.5433
17221TIP3    H173078   4.384   1.152   2.058 -0.8423 -1.8707 -0.8055
17221TIP3    H273079   4.322   1.275   1.996 -0.0717 -1.2094 -0.2686
17222TIP3   OH273080   6.573   2.419   3.624  0.2742  0.7493  0.4580
17222TIP3    H173081   6.551   2.384   3.538  0.6702 -0.9072  1.0058
17222TIP3    H273082   6.565   2.344   3.683  2.5857  1.2418  1.4478
17223TIP3   OH273083   1.427   2.064  17.185 -0.1103 -0.5387  0.5460
17223TIP3    H173084   1.396   2.149  17.217  0.3084 -0.3663  0.4943
17223TIP3    H273085   1.522   2.067  17.196  0.0571 -0.4169 -0.8944
17224TIP3   OH273086   1.271   4.743   2.632 -0.1474  0.2688  0.6303
17224TIP3    H173087   1.321   4.811   2.676 -1.5353  1.5556  0.2553
17224TIP3    H273088   1.196   4.789   2.595 -0.3475 -1.2146 -0.8747
17225TIP3   OH273089   3.924   4.478   2.606 -0.2309 -0.1922  0.1734
17225TIP3    H173090   4.000   4.481   2.663 -0.1017  1.7338 -0.0694
17225TIP3    H273091   3.854   4.519   2.656 -0.8762 -1.1410  0.0571
17226TIP3   OH273092   1.812   3.492  16.287  0.0744  0.6710 -0.3886
17226TIP3    H173093   1.750   3.528  16.225 -0.7185 -1.2297 -0.7401
17226TIP3    H273094   1.873   3.441  16.234 -2.6448 -3.8973  0.5514
17227TIP3   OH273095   2.562   6.417   0.177 -0.3712  0.1594  0.0081
17227TIP3    H173096   2.638   6.435   0.122 -0.3446  0.0116 -0.0044
17227TIP3    H273097   2.564   6.322   0.190  1.0585  0.4703  2.3430
17228TIP3   OH273098   3.518   5.407  13.622  0.1085 -0.2135 -0.0632
17228TIP3    H173099   3.504   5.498  13.596  0.3753  0.2293  1.2707
17228TIP3    H273100   3.432   5.366  13.612 -0.2310  0.4161  0.1623
17229TIP3   OH273101   5.893   6.096  17.222  0.4102  0.3339  0.2191
17229TIP3    H173102   5.853   6.120  17.138 -0.2406  3.1917  1.2641
17229TIP3    H273103   5.947   6.020  17.202  0.7821  1.3352 -2.9312
17230TIP3   OH273104   2.511   3.392   5.804  0.4857  0.1439  0.0180
17230TIP3    H173105   2.568   3.459   5.840  0.8502  0.6130 -1.4036
17230TIP3    H273106   2.528   3.315   5.859 -0.3323  1.3376  1.9807
17231TIP3   OH273107   0.841   6.748   3.830  0.0048  0.5449  0.2988
17231TIP3    H173108   0.845   6.660   3.791 -0.0646  1.4536 -1.8012
17231TIP3    H273109   0.906   6.745   3.901 -0.2225 -1.2910  0.4671
17232TIP3   OH273110   3.730   2.995  14.657 -0.1913  0.5080 -0.1003
17232TIP3    H173111   3.701   2.910  14.691  1.7240  0.2147  0.8777
17232TIP3    H273112   3.786   3.030  14.726  1.4227  1.2303 -1.7685
17233TIP3   OH273113   6.229   3.974  14.070  0.0549  0.7927 -0.4199
17233TIP3    H173114   6.164   4.031  14.111  0.2592  0.3074  0.5926
17233TIP3    H273115   6.312   4.003  14.108  0.2497  0.3685 -0.5282
17234TIP3   OH273116   1.230   4.388   2.073  0.2549 -0.0472  0.2722
17234TIP3    H173117   1.161   4.453   2.057 -0.0023 -0.1097  1.1190
17234TIP3    H273118   1.197   4.308   2.034  0.9159  0.5154 -1.4823
17235TIP3   OH273119   4.186   1.236   3.684  0.5321 -0.0304 -0.2045
17235TIP3    H173120   4.226   1.320   3.661  0.5557  0.4330  1.4764
17235TIP3    H273121   4.132   1.256   3.761 -1.3201 -1.0702 -1.1997
17236TIP3   OH273122   2.804   5.808   0.856 -0.3867  0.1401  0.2804
17236TIP3    H173123   2.786   5.721   0.890  0.5802 -0.0449  0.3319
17236TIP3    H273124   2.874   5.841   0.912  0.7545  0.0983 -1.1097
17237TIP3   OH273125   5.506   0.161   3.872 -0.0042 -0.0058 -0.0631
17237TIP3    H173126   5.417   0.195   3.876  0.4763  1.2713 -0.2220
17237TIP3    H273127   5.559   0.233   3.837  1.2176 -0.4894  0.7384
17238TIP3   OH273128   5.916   6.348  13.376 -0.9724  0.1009 -0.4992
17238TIP3    H173129   5.990   6.328  13.433  0.5043  0.6162 -2.1920
17238TIP3    H273130   5.954   6.357  13.289 -3.1443 -0.3500 -1.5342
17239TIP3   OH273131   3.215   6.285   4.352  0.7988 -0.0540 -0.1575
17239TIP3    H173132   3.301   6.268   4.390  0.5889 -1.9100 -0.4985
17239TIP3    H273133   3.208   6.225   4.278 -1.3845 -1.0548  0.7846
17240TIP3   OH273134   0.224   5.127  14.376  0.1496  0.3066  0.2168
17240TIP3    H173135   0.274   5.175  14.310  0.4368  0.6271  0.6653
17240TIP3    H273136   0.187   5.195  14.432  0.8407 -0.0085  1.0615
17241TIP3   OH273137   3.472   6.198   4.401 -0.2694  0.2074 -0.4630
17241TIP3    H173138   3.484   6.165   4.312 -0.9602  0.4613 -0.6530
17241TIP3    H273139   3.438   6.123   4.450  1.5547 -0.3753 -0.0375
17242TIP3   OH273140   3.680   0.290  15.116  0.7011 -0.1156  0.4124
17242TIP3    H173141   3.630   0.270  15.037 -0.3286  2.8652  0.2505
17242TIP3    H273142   3.702   0.204  15.153 -1.0981 -1.5176 -1.6564
17243TIP3   OH273143   6.582   6.228   5.490 -0.0128  0.0108  0.8797
17243TIP3    H173144   6.622   6.311   5.516  1.1564  0.0171 -0.8665
17243TIP3    H273145   6.617   6.211   5.403 -0.0998 -2.4055  1.2850
17244TIP3   OH273146   3.351   2.999  12.780 -0.2637  0.2176 -0.2413
17244TIP3    H173147   3.443   3.026  12.771 -1.0259  2.5293 -1.3928
17244TIP3    H273148   3.334   3.005  12.874  0.7421 -0.1784 -0.0205
17245TIP3   OH273149   5.938   5.011  15.740 -0.1694  0.1173  0.7213
17245TIP3    H173150   5.922   4.918  15.724  0.0214  0.1665  0.2340
17245TIP3    H273151   5.854   5.045  15.771 -0.6745  0.1020 -0.5899
17246TIP3   OH273152   0.273   3.793   1.297 -0.4493 -0.4037 -0.2189
17246TIP3    H173153   0.256   3.877   1.340 -0.4402  0.8479 -2.6008
17246TIP3    H273154   0.364   3.774   1.319 -0.7308 -0.2582  1.1106
17247TIP3   OH273155   3.174   2.207   6.087  0.4650 -0.0541 -0.6168
17247TIP3    H173156   3.197   2.129   6.137 -0.2631 -0.9449 -1.6631
17247TIP3    H273157   3.198   2.186   5.997 -0.2094  0.7360 -0.9893
17248TIP3   OH273158   6.011   5.995   4.276  0.3687 -0.1204 -0.7930
17248TIP3    H173159   5.926   5.997   4.232  0.1765 -0.9497 -0.4731
17248TIP3    H273160   6.016   5.907   4.314 -0.3190  1.2117  2.5350
17249TIP3   OH273161   2.386   3.230  12.836 -0.0931  0.1911  0.1791
17249TIP3    H173162   2.395   3.324  12.819 -0.8405  0.7201  2.4983
17249TIP3    H273163   2.319   3.201  12.774  0.7190  1.0227 -1.1014
17250TIP3   OH273164   6.103   1.347  13.668  0.1802  0.0327  0.0651
17250TIP3    H173165   6.055   1.380  13.744 -1.3416 -0.1099 -0.8037
17250TIP3    H273166   6.096   1.251  13.676 -0.1501  0.0211 -0.3526
17251TIP3   OH273167   0.067   1.708   1.050 -0.3769  0.7133 -0.2637
17251TIP3    H173168  -0.022   1.733   1.024 -0.9951 -2.0254 -0.8763
17251TIP3    H273169   0.118   1.710   0.969 -0.0860  1.3169 -0.0730
17252TIP3   OH273170   2.035   0.077  15.788 -0.1783  0.2555 -0.7032
17252TIP3    H173171   1.980   0.149  15.758 -0.7145 -0.3393 -1.1661
17252TIP3    H273172   1.975   0.003  15.794  0.5710 -0.3989 -1.2121
17253TIP3   OH273173   2.669   5.438   1.485 -0.5668  0.1001 -0.1766
17253TIP3    H173174   2.624   5.381   1.547 -2.1305 -0.0587 -1.4131
17253TIP3    H273175   2.762   5.422   1.500 -0.9671 -2.7163 -0.4411
17254TIP3   OH273176   5.180   0.932   4.780 -0.6163  0.4797 -0.2461
17254TIP3    H173177   5.122   0.880   4.835 -0.3959  1.2362  0.7223
17254TIP3    H273178   5.123   1.002   4.745 -0.8070 -0.1280 -1.1628
17255TIP3   OH273179   0.740   3.023   3.855 -0.7184 -0.2966 -0.4710
17255TIP3    H173180   0.826   3.035   3.894 -2.0562 -1.0982  2.8527
17255TIP3    H273181   0.692   3.102   3.877 -1.7609 -1.1292  0.3465
17256TIP3   OH273182   4.213   3.387  13.169  0.3815 -0.5167 -0.0594
17256TIP3    H173183   4.147   3.378  13.238  0.7914 -2.4710  0.0918
17256TIP3    H273184   4.247   3.476  13.180 -0.3198 -0.4413  1.5722
17257TIP3   OH273185   4.616   1.025   5.559 -0.0817  0.1350  0.2448
17257TIP3    H173186   4.707   1.037   5.533  0.0958  0.9786  1.2023
17257TIP3    H273187   4.565   1.046   5.481  0.5393 -0.4437 -0.3262
17258TIP3   OH273188   4.815   5.241  17.170  0.7151 -0.0884  0.6427
17258TIP3    H173189   4.797   5.242  17.264  0.3097  0.9535  0.5515
17258TIP3    H273190   4.788   5.327  17.139 -1.2406 -1.1924 -0.8156
17259TIP3   OH273191   0.450   5.496  13.461 -0.4680  0.1902 -0.0433
17259TIP3    H173192   0.535   5.503  13.503 -1.0440  0.4174  1.0846
17259TIP3    H273193   0.455   5.557  13.387  0.2665  0.3498  0.1331
17260TIP3   OH273194   2.505   2.879  11.008 -0.0572  0.0338 -0.2706
17260TIP3    H173195   2.433   2.817  11.000 -0.9263  0.9317  0.3835
17260TIP3    H273196   2.540   2.888  10.920 -1.0853 -0.0157 -0.6866
17261TIP3   OH273197   4.243   3.440   0.000  0.3136 -0.1519 -0.3548
17261TIP3    H173198   4.158   3.406  -0.028  0.3225 -0.5000  0.0350
17261TIP3    H273199   4.296   3.442  -0.079 -0.5999  1.7172 -0.9559
17262TIP3   OH273200   0.555   3.687  11.382 -0.5206 -0.0237  0.4213
17262TIP3    H173201   0.564   3.597  11.413  0.5969 -0.2946 -0.6731
17262TIP3    H273202   0.617   3.737  11.435  0.0456 -0.1713 -0.1066
17263TIP3   OH273203   2.445   4.709  17.228 -0.4426  0.1006  0.5527
17263TIP3    H173204   2.416   4.694  17.317 -2.5398 -2.3172 -0.4574
17263TIP3    H273205   2.517   4.646  17.215 -0.4199  0.1517  0.4231
17264TIP3   OH273206   2.950   2.733   6.211  0.0582  0.3837 -0.0459
17264TIP3    H173207   3.002   2.665   6.168 -0.1688  0.9601 -1.2480
17264TIP3    H273208   2.897   2.685   6.275  1.3077 -0.3266  0.4620
17265TIP3   OH273209   2.552   3.357  12.407  0.1668 -0.4085  0.4942
17265TIP3    H173210   2.640   3.323  12.425 -0.3431 -1.9667  0.1715
17265TIP3    H273211   2.502   3.279  12.384 -1.5288  0.3468  1.5572
17266TIP3   OH273212   5.416   1.051   4.876 -0.8479 -0.6540 -0.0733
17266TIP3    H173213   5.381   1.079   4.961 -1.4831 -2.0390  0.1346
17266TIP3    H273214   5.339   1.021   4.828 -0.3089 -1.1271 -0.6460
17267TIP3   OH273215   6.625   3.365   4.225 -0.9422  0.2615  0.4977
17267TIP3    H173216   6.575   3.373   4.144 -2.1098 -1.1904  1.0589
17267TIP3    H273217   6.630   3.271   4.242  1.4394  0.4047  0.8025
17268TIP3   OH273218   6.252   4.861  15.515 -0.1280  0.2713 -0.6141
17268TIP3    H173219   6.251   4.953  15.543  1.6927  0.0058  0.4198
17268TIP3    H273220   6.342   4.846  15.485 -0.2474 -1.3356 -0.2192
17269TIP3   OH273221   2.872   3.676   5.081 -0.1029 -0.1757 -0.3522
17269TIP3    H173222   2.860   3.621   5.158 -0.2168 -2.3095 -1.8335
17269TIP3    H273223   2.795   3.659   5.027  0.5944  0.2724 -1.5219
17270TIP3   OH273224   4.181   6.638  14.447  0.3334 -0.2541  0.3619
17270TIP3    H173225   4.180   6.706  14.515  0.4342 -1.1865  1.2974
17270TIP3    H273226   4.257   6.660  14.392  1.2780 -0.4972  1.5642
17271TIP3   OH273227   3.945   1.932  12.684  0.2511 -0.6039 -0.0051
17271TIP3    H173228   4.021   1.943  12.626  1.7134 -0.4096  1.8788
17271TIP3    H273229   3.904   2.018  12.686  0.8226 -0.3259  0.0657
17272TIP3   OH273230   5.319   4.852   2.554  0.3841  0.3038  0.1324
17272TIP3    H173231   5.287   4.787   2.618 -0.2430  0.4795  0.0000
17272TIP3    H273232   5.412   4.833   2.546  0.0448 -1.1544 -0.5603
17273TIP3   OH273233   1.273   3.949  14.469  0.0550  0.2309 -0.2372
17273TIP3    H173234   1.222   3.993  14.537  0.2372  1.9694 -1.1788
17273TIP3    H273235   1.215   3.882  14.434  0.7371 -2.1989  3.1067
17274TIP3   OH273236   6.193   2.288   2.434 -0.1696 -0.3902  0.3077
17274TIP3    H173237   6.139   2.306   2.511 -0.8178 -0.1910 -0.1902
17274TIP3    H273238   6.220   2.197   2.444  1.3326  0.1860  1.7395
17275TIP3   OH273239   1.601   4.623   1.558 -0.2751 -0.2932 -0.3646
17275TIP3    H173240   1.523   4.648   1.508 -0.8671 -0.0825  0.6558
17275TIP3    H273241   1.574   4.545   1.607  0.1524 -0.2160 -0.0027
17276TIP3   OH273242   0.515   4.833   2.870  1.1742  0.4792  0.1541
17276TIP3    H173243   0.516   4.884   2.951 -2.7763 -0.2923  0.8033
17276TIP3    H273244   0.475   4.750   2.895  0.5234 -0.0224 -2.4486
17277TIP3   OH273245   3.409   6.325   1.521 -0.0366 -0.1438  0.4419
17277TIP3    H173246   3.323   6.315   1.480  0.0303 -0.3395  0.3518
17277TIP3    H273247   3.471   6.302   1.453  0.1770  2.2495 -0.2220
17278TIP3   OH273248   0.913   3.611   2.610  0.2205  0.6080  0.2993
17278TIP3    H173249   0.927   3.599   2.704 -0.0900 -1.4700  0.0897
17278TIP3    H273250   0.818   3.622   2.601  0.2956  1.2523  0.2692
17279TIP3   OH273251   3.888   0.704   4.201  0.1702 -0.3767  0.1647
17279TIP3    H173252   3.795   0.696   4.180  0.3156 -0.9062 -0.3022
17279TIP3    H273253   3.908   0.625   4.251  0.7739 -1.1618 -1.2796
17280TIP3   OH273254   6.385   3.498  11.836 -0.6039  0.1065 -0.2226
17280TIP3    H173255   6.415   3.548  11.760  0.8203 -0.8402 -0.2966
17280TIP3    H273256   6.422   3.410  11.823 -3.3955 -1.1230 -0.3131
17281TIP3   OH273257   5.800   1.788   4.034  0.0242  0.7448  0.0682
17281TIP3    H173258   5.866   1.719   4.044  0.1954  0.8350 -0.4679
17281TIP3    H273259   5.803   1.812   3.942 -2.0760 -0.5920 -0.4061
17282TIP3   OH273260   3.893   4.245  15.173 -0.1132  0.0757  0.5446
17282TIP3    H173261   3.860   4.334  15.190 -0.3521 -0.0702  0.8383
17282TIP3    H273262   3.958   4.231  15.242  1.0404  0.6120 -0.4177
17283TIP3   OH273263   3.239   0.946   3.787  0.5665 -0.4216 -0.1487
17283TIP3    H173264   3.168   0.998   3.825 -0.2138 -0.4777 -1.4957
17283TIP3    H273265   3.215   0.855   3.805  0.4029 -0.4308 -0.4063
17284TIP3   OH273266   1.831   6.452  16.652 -0.4006  0.4736 -0.3665
17284TIP3    H173267   1.742   6.470  16.680  0.1761  1.0125  1.2062
17284TIP3    H273268   1.830   6.362  16.622 -1.3857  0.3672 -0.0176
17285TIP3   OH273269   2.956   0.678   2.601  0.2435 -0.2659 -0.1219
17285TIP3    H173270   3.044   0.640   2.602 -0.1307 -1.1164  0.7210
17285TIP3    H273271   2.902   0.617   2.651 -0.9295  0.0242 -1.0002
17286TIP3   OH273272   4.146   1.312   1.990 -0.3986 -0.1603 -0.2510
17286TIP3    H173273   4.098   1.316   1.907  1.5137  0.8743 -1.3369
17286TIP3    H273274   4.107   1.382   2.042 -1.1231 -0.3423 -0.5342
17287TIP3   OH273275   5.418   0.838  14.696  0.0414  0.6746 -0.7957
17287TIP3    H173276   5.424   0.750  14.659 -0.9248  0.4448 -0.4331
17287TIP3    H273277   5.324   0.857  14.697  0.2922  2.0750 -1.7050
17288TIP3   OH273278   4.333   4.370   0.209  0.4741 -0.6637  0.2753
17288TIP3    H173279   4.406   4.425   0.237  1.2527 -0.6999 -1.5899
17288TIP3    H273280   4.375   4.293   0.169 -0.5326 -0.0511 -2.0589
17289TIP3   OH273281   5.707   0.667   1.052  0.1291 -0.5600 -0.3660
17289TIP3    H173282   5.772   0.611   1.009 -0.3038 -0.0118 -1.7533
17289TIP3    H273283   5.740   0.756   1.039  0.4435 -0.4375  1.2093
17290TIP3   OH273284   0.026   6.382  13.562 -0.0282  0.1580 -0.5068
17290TIP3    H173285   0.045   6.418  13.475 -0.5695  0.1403 -0.6333
17290TIP3    H273286   0.081   6.303  13.567 -1.6405 -1.0853 -1.7262
17291TIP3   OH273287   4.561   4.154  13.557  0.2635  0.4478  0.2460
17291TIP3    H173288   4.647   4.120  13.581  0.1161 -1.0201 -1.1438
17291TIP3    H273289   4.570   4.249  13.560  1.9153  0.3077  0.2108
17292TIP3   OH273290   5.842   5.552   4.283  0.2211  0.1776  0.1239
17292TIP3    H173291   5.910   5.533   4.219 -0.0435  1.3412 -0.5204
17292TIP3    H273292   5.843   5.477   4.342  2.1663  0.2351  0.2134
17293TIP3   OH273293   5.931   5.275   5.175  0.4835  0.0888 -0.3111
17293TIP3    H173294   5.902   5.186   5.158  1.6056 -0.2191 -0.6914
17293TIP3    H273295   5.980   5.269   5.257 -0.4395  0.5864  0.2865
17294TIP3   OH273296   4.736   0.515  13.497 -0.4900  0.3633  0.5429
17294TIP3    H173297   4.661   0.568  13.524  0.1009  0.6001  1.7337
17294TIP3    H273298   4.735   0.519  13.401 -3.4040 -1.5771  0.4219
17295TIP3   OH273299   2.240   1.820   5.586  0.2639  0.4943  0.2060
17295TIP3    H173300   2.150   1.791   5.598  0.2458 -0.1182 -1.2962
17295TIP3    H273301   2.282   1.805   5.671 -0.9515  0.4804  0.8150
17296TIP3   OH273302   5.896   4.243   1.325  0.0642  0.1640  0.2060
17296TIP3    H173303   5.855   4.319   1.284 -2.0355 -0.0488  1.8522
17296TIP3    H273304   5.925   4.189   1.251  0.7459  2.0881 -0.9755
17297TIP3   OH273305   5.578   2.943  11.309  0.0107  0.7623  0.2498
17297TIP3    H173306   5.519   2.913  11.378  1.4665 -1.7044  0.5111
17297TIP3    H273307   5.590   3.036  11.326 -0.0222  0.2981  3.0619
17298TIP3   OH273308   4.730   5.239  10.710 -0.0032  0.3802 -0.2459
17298TIP3    H173309   4.757   5.285  10.631 -0.2276 -1.0115 -1.1495
17298TIP3    H273310   4.776   5.155  10.706  0.2488  0.4275  1.2768
17299TIP3   OH273311   0.189   3.095  16.548 -0.5013 -0.3424  0.4030
17299TIP3    H173312   0.119   3.129  16.493  1.0433  1.1348 -0.6954
17299TIP3    H273313   0.240   3.039  16.490 -0.7652 -1.4403  1.2054
17300TIP3   OH273314   1.395   6.241  12.723  0.4746  0.2746 -0.6873
17300TIP3    H173315   1.435   6.157  12.747 -0.5879 -0.7913 -2.5491
17300TIP3    H273316   1.470   6.299  12.709  1.3162 -0.9331 -1.3616
17301TIP3   OH273317   3.969   6.077  13.217 -0.1257  0.7965  0.2507
17301TIP3    H173318   3.881   6.100  13.246 -0.7105  0.2322 -1.0367
17301TIP3    H273319   3.984   6.132  13.140  0.1468 -0.0226 -0.2835
17302TIP3   OH273320   5.852   5.410   3.444  0.3209  0.5299 -0.6956
17302TIP3    H173321   5.881   5.453   3.525  0.2917  1.9336 -1.4100
17302TIP3    H273322   5.757   5.414   3.448  0.3260  3.0888 -2.0577
17303TIP3   OH273323   3.938   4.377  11.085  0.2346 -0.0786  0.4626
17303TIP3    H173324   3.876   4.437  11.127 -0.0634  0.0510 -0.1643
17303TIP3    H273325   3.884   4.323  11.027  0.5135 -0.8938  0.9553
17304TIP3   OH273326   1.346   2.821  11.255 -0.1008  0.0295 -0.3392
17304TIP3    H173327   1.302   2.755  11.308  0.7819 -0.0841  0.2698
17304TIP3    H273328   1.431   2.782  11.233  0.2427  0.7708 -0.3633
17305TIP3   OH273329   0.720   0.245  12.687  0.1053 -0.3245 -0.5817
17305TIP3    H173330   0.798   0.230  12.634  1.3190  1.7634  0.5763
17305TIP3    H273331   0.729   0.185  12.760  0.4005 -0.4027 -0.6792
17306TIP3   OH273332   1.804   3.594   2.515 -0.2144  0.0194  0.1725
17306TIP3    H173333   1.800   3.554   2.428 -1.0754 -0.0648  0.2425
17306TIP3    H273334   1.885   3.645   2.515  0.3978 -0.9570 -0.2549
17307TIP3   OH273335   3.701   3.168   0.035 -0.2140 -0.0886  0.3828
17307TIP3    H173336   3.770   3.124  -0.014 -0.1217 -0.3804  0.7761
17307TIP3    H273337   3.621   3.121   0.012 -0.2768  0.2208 -0.0389
17308TIP3   OH273338   2.239   1.237  15.705 -0.3812  0.5048 -0.3471
17308TIP3    H173339   2.231   1.149  15.669  1.6290  0.1421  0.0365
17308TIP3    H273340   2.261   1.292  15.629 -0.6337  0.5123 -0.4157
17309TIP3   OH273341   1.156   1.123   4.041  0.0329 -0.0652 -0.0168
17309TIP3    H173342   1.223   1.058   4.021  0.2247 -0.3543  1.5180
17309TIP3    H273343   1.192   1.173   4.114 -0.5444  1.1150 -0.5297
17310TIP3   OH273344   3.515   3.049   1.015  0.6286  0.1121  0.1203
17310TIP3    H173345   3.593   3.041   0.960  0.0183 -1.3506 -0.5536
17310TIP3    H273346   3.486   2.959   1.029 -1.4338  0.6725 -0.3542
17311TIP3   OH273347   1.737   3.276   3.342 -0.1740  0.2210  0.1369
17311TIP3    H173348   1.795   3.235   3.278  0.4915 -0.6381  1.2672
17311TIP3    H273349   1.649   3.247   3.316  0.0325  0.3956 -0.7593
17312TIP3   OH273350   5.697   3.423   6.235  0.1256  0.5166 -0.0258
17312TIP3    H173351   5.642   3.445   6.161  2.2120  1.7686 -1.2511
17312TIP3    H273352   5.652   3.350   6.278 -2.2510  1.2562 -1.1850
17313TIP3   OH273353   6.422   5.011   4.490 -0.7342 -0.5936  0.1370
17313TIP3    H173354   6.348   4.962   4.528  0.3397 -3.2453 -1.0095
17313TIP3    H273355   6.474   5.038   4.565 -1.7663 -0.5510  0.8572
17314TIP3   OH273356   1.001   3.594  13.489 -0.8671  0.1895 -0.3557
17314TIP3    H173357   1.030   3.541  13.415  0.2017  2.0582 -1.2891
17314TIP3    H273358   1.079   3.603  13.544 -1.4705 -0.5764  0.6318
17315TIP3   OH273359   2.396   2.174   0.240  0.3767  0.0074 -0.0525
17315TIP3    H173360   2.450   2.104   0.205  1.6256  0.7872  0.2856
17315TIP3    H273361   2.455   2.226   0.294 -0.9108  0.3659  1.0428
17316TIP3   OH273362   1.288   5.142  16.858 -0.5149 -0.0709 -0.2983
17316TIP3    H173363   1.324   5.226  16.830 -0.6080  0.3814  0.8993
17316TIP3    H273364   1.316   5.133  16.950 -2.3868 -0.2796  0.2800
17317TIP3   OH273365   5.473   1.243  13.141  0.8700 -0.4732 -0.1352
17317TIP3    H173366   5.548   1.290  13.104  0.8548  1.4662  2.1728
17317TIP3    H273367   5.480   1.257  13.235 -1.0701 -2.3021  0.3224
17318TIP3   OH273368   1.975   0.199  11.712 -0.0986  0.0978 -0.0338
17318TIP3    H173369   1.935   0.133  11.656 -1.5170 -0.0838  1.1704
17318TIP3    H273370   1.961   0.281  11.666 -0.2266 -0.1810 -0.4995
17319TIP3   OH273371   2.299   1.388   3.161  0.4860 -0.3165  0.4289
17319TIP3    H173372   2.257   1.373   3.076 -0.0006  0.4044  0.5336
17319TIP3    H273373   2.384   1.346   3.153  0.1349 -0.9469 -0.1393
17320TIP3   OH273374   3.397   4.480  13.371 -0.8910 -0.1621 -0.5100
17320TIP3    H173375   3.491   4.464  13.365 -0.5736  1.6102 -0.7095
17320TIP3    H273376   3.372   4.451  13.459  0.3235  1.5814  0.4377
17321TIP3   OH273377   0.371   3.536  13.887 -0.1079  0.1734 -0.2051
17321TIP3    H173378   0.464   3.552  13.873  0.1257  0.3643  1.4179
17321TIP3    H273379   0.327   3.592  13.823  0.8598  1.2757  0.0739
17322TIP3   OH273380   1.638   4.875  11.608 -0.0496 -0.1763  0.0081
17322TIP3    H173381   1.642   4.800  11.668  3.5629 -0.9359 -1.0539
17322TIP3    H273382   1.599   4.840  11.528 -1.9722  0.0551  0.8391
17323TIP3   OH273383   5.449   1.561  12.788 -0.2262 -0.1435  0.4627
17323TIP3    H173384   5.487   1.559  12.875  1.7167 -1.3900 -0.3900
17323TIP3    H273385   5.432   1.469  12.767  1.2558 -0.0514 -1.2795
17324TIP3   OH273386   0.786   5.374   3.324 -0.4228  0.3438  0.1564
17324TIP3    H173387   0.797   5.279   3.314 -1.9852  0.0097  1.5182
17324TIP3    H273388   0.698   5.391   3.291 -0.7633  1.0893  1.4483
17325TIP3   OH273389   2.403   1.453   4.748  0.5208  1.1442 -0.1378
17325TIP3    H173390   2.358   1.406   4.818  1.6766  0.0608 -0.1069
17325TIP3    H273391   2.348   1.441   4.671 -0.2632  1.5290  0.3548
17326TIP3   OH273392   0.959   6.462  17.224  0.2613 -0.2128 -0.7159
17326TIP3    H173393   0.968   6.367  17.219  0.9683 -0.1976  0.1622
17326TIP3    H273394   1.048   6.494  17.239  0.0139  0.5821 -0.9007
17327TIP3   OH273395   4.835   1.482  15.198  0.1084  0.1183  0.8159
17327TIP3    H173396   4.819   1.564  15.243 -1.2392  0.9982 -1.1873
17327TIP3    H273397   4.755   1.431  15.211 -1.4292  1.4647 -2.7656
17328TIP3   OH273398   3.279   5.824   5.812 -0.1201  0.2247  0.6786
17328TIP3    H173399   3.371   5.849   5.807  0.2755 -1.2484  0.5495
17328TIP3    H273400   3.267   5.793   5.901 -0.3398 -0.1676  0.5148
17329TIP3   OH273401   0.830   4.170  12.706  0.3898 -0.2709 -0.4960
17329TIP3    H173402   0.739   4.144  12.692 -0.3536  1.5207  0.8193
17329TIP3    H273403   0.834   4.196  12.798  1.7022  1.6880 -1.0695
17330TIP3   OH273404   4.650   5.112   3.755 -0.2908  1.1836  0.0664
17330TIP3    H173405   4.739   5.093   3.727 -0.2402  0.3110  0.7991
17330TIP3    H273406   4.657   5.129   3.849 -0.7878  1.8650 -0.0137
17331TIP3   OH273407   0.074   0.851  13.138 -0.4006  0.0531 -0.1610
17331TIP3    H173408   0.163   0.877  13.117  0.1345 -0.9086  0.8516
17331TIP3    H273409   0.022   0.930  13.127  1.0202  1.3249  1.9104
17332TIP3   OH273410   1.730   0.456  15.587  0.3402 -0.0866 -0.2692
17332TIP3    H173411   1.824   0.456  15.567  0.2921  1.1987 -0.5549
17332TIP3    H273412   1.722   0.508  15.667 -0.1869  0.4016 -0.6288
17333TIP3   OH273413   6.786   4.968  15.375 -0.8094 -0.0548  0.3413
17333TIP3    H173414   6.837   4.937  15.450  1.1841 -0.2587 -1.0816
17333TIP3    H273415   6.846   4.963  15.301 -1.9817  2.4748 -0.8326
17334TIP3   OH273416   3.030   4.090  13.549  0.2230  0.0649 -0.5481
17334TIP3    H173417   2.967   4.018  13.551 -0.6689  0.7413 -2.3625
17334TIP3    H273418   2.987   4.157  13.496  1.0249  1.9530  1.1577
17335TIP3   OH273419   5.738   6.290   0.803 -0.3687 -0.2175 -0.3368
17335TIP3    H173420   5.781   6.372   0.776  1.2540 -1.3919 -1.4366
17335TIP3    H273421   5.651   6.318   0.833 -0.7369  1.6751 -2.8891
17336TIP3   OH273422   4.292   1.121  16.281  0.4578 -0.3671 -0.1177
17336TIP3    H173423   4.351   1.139  16.208 -0.0046  0.1164 -0.3769
17336TIP3    H273424   4.250   1.205  16.298  0.1587 -0.6126  0.3415
17337TIP3   OH273425   6.566   2.013   6.029 -0.2227 -0.5056 -0.5602
17337TIP3    H173426   6.541   2.037   5.939  0.4283  0.6734 -0.4388
17337TIP3    H273427   6.515   2.071   6.085 -1.4619 -2.0009 -0.1125
17338TIP3   OH273428   2.026   5.272  10.660  0.3588  0.1630  0.5342
17338TIP3    H173429   2.098   5.335  10.661  1.6049 -1.2586  1.3006
17338TIP3    H273430   1.957   5.314  10.711  0.9309  1.2007  0.4664
17339TIP3   OH273431   6.057   6.632   1.486 -0.0029  0.2189 -0.1607
17339TIP3    H173432   5.989   6.590   1.539  0.3529  1.1422  1.0324
17339TIP3    H273433   6.009   6.686   1.423 -0.4111 -0.4637 -0.4351
17340TIP3   OH273434   2.948   1.523   0.196  0.2774  0.3625  0.5310
17340TIP3    H173435   3.038   1.532   0.163  0.3498  0.0773  0.6467
17340TIP3    H273436   2.896   1.576   0.136  0.4369  0.0072  0.0719
17341TIP3   OH273437   6.404   2.544  13.943  0.2508 -0.7789 -0.4713
17341TIP3    H173438   6.421   2.639  13.940  1.4408 -0.9871 -0.8284
17341TIP3    H273439   6.309   2.537  13.952  0.0211  0.4396 -1.7074
17342TIP3   OH273440   2.412   4.739  12.276  0.2226 -1.1550 -0.2667
17342TIP3    H173441   2.470   4.674  12.237  2.5209 -0.1989  1.4806
17342TIP3    H273442   2.401   4.711  12.366  2.9079  1.9117  1.0930
17343TIP3   OH273443   4.637   5.395   0.273  0.8608  0.1700  0.1942
17343TIP3    H173444   4.543   5.410   0.258  0.7629 -0.2020  0.4123
17343TIP3    H273445   4.649   5.302   0.254  1.2442  0.2848 -0.1118
17344TIP3   OH273446   6.273   2.308   3.414  0.4450 -0.0986 -0.0133
17344TIP3    H173447   6.272   2.308   3.319  2.4865  1.1511 -0.0620
17344TIP3    H273448   6.293   2.217   3.438  2.4127  0.1075 -0.8355
17345TIP3   OH273449   2.115   5.176  15.131  0.7854  0.6417 -0.0492
17345TIP3    H173450   2.203   5.179  15.095  0.8051  1.6139  0.0783
17345TIP3    H273451   2.116   5.239  15.203  0.3715 -0.3142  0.8205
17346TIP3   OH273452   5.055   2.328   3.692  0.7116 -0.1674 -0.4454
17346TIP3    H173453   5.005   2.409   3.700 -0.3668 -0.8654  0.0725
17346TIP3    H273454   5.006   2.265   3.745  1.1081 -1.3505 -1.4696
17347TIP3   OH273455   2.704   3.764  11.564 -0.5274  0.0906  0.3589
17347TIP3    H173456   2.695   3.674  11.532 -1.3417  0.1451  0.4331
17347TIP3    H273457   2.623   3.780  11.613 -0.5510  0.9920  0.0286
17348TIP3   OH273458   5.532   5.064  11.143  0.2252 -0.1016 -0.6396
17348TIP3    H173459   5.601   5.062  11.077 -0.7060 -1.0608 -1.6299
17348TIP3    H273460   5.567   5.013  11.216  0.6583 -0.3911 -1.0417
17349TIP3   OH273461   1.271   3.557   3.206  0.2283  0.0508 -0.1387
17349TIP3    H173462   1.206   3.594   3.266 -1.3264  1.5827 -2.6772
17349TIP3    H273463   1.269   3.463   3.223 -1.6661  0.2344  0.7833
17350TIP3   OH273464   5.150   1.280  13.601  0.0368 -0.2718 -0.2463
17350TIP3    H173465   5.163   1.235  13.685  1.1366  0.5451  0.0231
17350TIP3    H273466   5.097   1.357  13.624 -0.3914 -0.5091 -0.4382
17351TIP3   OH273467   3.858   4.719  10.745 -0.5081 -0.0194 -0.7641
17351TIP3    H173468   3.883   4.660  10.674 -1.3680 -0.3605 -0.7873
17351TIP3    H273469   3.777   4.760  10.715 -0.7840 -0.0378 -0.0554
17352TIP3   OH273470   2.590   2.791   1.578 -0.6537 -0.2818 -0.1341
17352TIP3    H173471   2.661   2.740   1.617  0.1253 -0.3783 -1.6418
17352TIP3    H273472   2.606   2.786   1.484 -1.8303  0.9096 -0.4122
17353TIP3   OH273473   1.302   4.279   3.082 -0.1639 -0.4676 -0.6825
17353TIP3    H173474   1.295   4.233   2.998  0.1360 -0.1688 -0.8689
17353TIP3    H273475   1.364   4.350   3.066 -2.0283  1.1621 -0.8964
17354TIP3   OH273476   5.660   6.101  16.683 -0.5362 -0.6451 -0.0608
17354TIP3    H173477   5.665   6.163  16.756 -0.0381 -1.1791  0.3594
17354TIP3    H273478   5.663   6.015  16.724  2.0775 -0.9692 -0.8215
17355TIP3   OH273479   6.679   4.148  14.675  0.0614 -1.0025 -0.5000
17355TIP3    H173480   6.616   4.173  14.742  0.0079 -2.7123  0.0957
17355TIP3    H273481   6.762   4.138  14.721  0.3461 -0.7437 -0.9421
17356TIP3   OH273482   4.407   3.764  12.192  0.3886 -0.0451  0.0810
17356TIP3    H173483   4.386   3.753  12.285 -1.9061  2.6710 -0.0103
17356TIP3    H273484   4.324   3.746  12.147  0.5324  2.0682 -1.1092
17357TIP3   OH273485   4.278   6.606  13.585  0.4140 -0.3829  0.5824
17357TIP3    H173486   4.356   6.551  13.592  1.6400  1.2055 -0.1833
17357TIP3    H273487   4.261   6.611  13.491 -0.8095 -0.9611  0.7586
17358TIP3   OH273488   5.646   0.228  12.594  0.2829  0.0817 -0.2041
17358TIP3    H173489   5.588   0.218  12.669  0.2951  1.4944  0.0217
17358TIP3    H273490   5.645   0.143  12.550 -1.3207 -0.1387  0.2428
17359TIP3   OH273491   4.350   3.271  14.126  0.6286 -0.1619  0.1492
17359TIP3    H173492   4.445   3.280  14.133  0.4059  1.8132  0.9524
17359TIP3    H273493   4.327   3.312  14.043  0.6025 -1.9056 -0.7362
17360TIP3   OH273494   2.494   0.483   1.371  0.3841 -0.2652 -0.1812
17360TIP3    H173495   2.558   0.518   1.434  1.0124 -1.0320 -0.3844
17360TIP3    H273496   2.511   0.388   1.370 -1.8113 -0.7111  0.9655
17361TIP3   OH273497   2.931   2.322  14.003  0.1440  0.1510  0.4344
17361TIP3    H173498   2.960   2.402  13.960 -2.9406  0.7256 -0.6917
17361TIP3    H273499   2.892   2.351  14.085 -0.9722 -0.1662  0.0338
17362TIP3   OH273500   6.508   0.529   0.709 -0.2408 -0.2102 -0.1842
17362TIP3    H173501   6.565   0.458   0.740  1.9984  1.3046 -0.6581
17362TIP3    H273502   6.546   0.608   0.748 -1.2252  0.9846 -1.6192
17363TIP3   OH273503   4.134   3.253  13.608 -0.5716  0.1594  0.2666
17363TIP3    H173504   4.081   3.219  13.680  1.0467  0.9809  1.9018
17363TIP3    H273505   4.127   3.348  13.615 -1.0613  0.2488 -1.1893
17364TIP3   OH273506   5.587   6.658   1.899 -0.0349  0.8804 -0.1404
17364TIP3    H173507   5.604   6.609   1.819  1.5905  0.6398  0.3297
17364TIP3    H273508   5.608   6.597   1.970  0.9169  1.8559  0.4519
17365TIP3   OH273509   2.130   3.530   2.683 -0.7890  1.0125 -0.3459
17365TIP3    H173510   2.225   3.540   2.687 -0.7172  0.4227 -0.4338
17365TIP3    H273511   2.097   3.615   2.655 -0.3576  1.5154  0.6509
17366TIP3   OH273512   0.212   3.327  12.238 -0.2629 -0.1310  0.5027
17366TIP3    H173513   0.251   3.251  12.282 -0.0067 -0.4246 -0.2225
17366TIP3    H273514   0.274   3.348  12.168  0.3730  1.6150  1.5664
17367TIP3   OH273515   5.373   3.438   0.479  0.3871 -0.4900  0.7774
17367TIP3    H173516   5.356   3.518   0.429  0.6405 -1.0088 -0.1541
17367TIP3    H273517   5.335   3.455   0.565  0.8049  0.7913  0.7244
17368TIP3   OH273518   4.225   4.759   3.977 -1.0475 -0.1584  0.4803
17368TIP3    H173519   4.245   4.836   3.924 -1.6511  0.1872  0.7529
17368TIP3    H273520   4.235   4.789   4.067  0.6978 -0.9379  0.5734
17369TIP3   OH273521   4.282   0.617   5.585  0.4162 -0.5718  0.2725
17369TIP3    H173522   4.367   0.575   5.572 -0.2674 -1.7264 -0.5439
17369TIP3    H273523   4.290   0.703   5.544  1.2199 -0.6307  0.3085
17370TIP3   OH273524   1.128   4.911   4.613 -0.0466  0.4159  0.1256
17370TIP3    H173525   1.219   4.935   4.597 -0.3603  1.4315 -0.1726
17370TIP3    H273526   1.121   4.820   4.582  1.2322 -0.1996  1.5910
17371TIP3   OH273527   2.580   5.212  11.838  0.5560  0.0079  0.4369
17371TIP3    H173528   2.674   5.223  11.857  0.3313  0.2979  1.4186
17371TIP3    H273529   2.536   5.237  11.920 -0.3940  0.2081 -0.1258
17372TIP3   OH273530   3.575   6.109  11.536 -0.3448  0.4751 -0.0289
17372TIP3    H173531   3.643   6.170  11.564 -1.4417  0.7300  2.1802
17372TIP3    H273532   3.572   6.119  11.441  1.4731  1.7640  0.0297
17373TIP3   OH273533   4.001   1.973  15.164  0.3596  0.0296 -0.3971
17373TIP3    H173534   3.914   2.014  15.173 -0.3049 -1.3777 -0.3150
17373TIP3    H273535   4.050   2.034  15.109 -0.3747  1.3013  0.3236
17374TIP3   OH273536   1.793   6.182   1.175 -0.7696 -0.2622 -0.0493
17374TIP3    H173537   1.878   6.144   1.195  0.2433  2.4414  1.0025
17374TIP3    H273538   1.731   6.132   1.228  0.2356 -1.8883 -0.4002
17375TIP3   OH273539   3.634   4.264  16.823  0.1458  0.6208 -0.2385
17375TIP3    H173540   3.607   4.251  16.732 -1.6491 -0.3749  0.4149
17375TIP3    H273541   3.556   4.244  16.874  1.5475 -0.2467  1.6100
17376TIP3   OH273542   4.484   3.767   5.033 -0.5335  0.0429  0.4600
17376TIP3    H173543   4.508   3.690   5.084  0.9261  1.4492  1.9641
17376TIP3    H273544   4.481   3.838   5.097 -1.4700  1.3113 -0.9666
17377TIP3   OH273545   2.877   1.290  14.306 -0.1397  0.2506  0.1481
17377TIP3    H173546   2.914   1.337  14.231 -1.0220 -0.8840 -1.0082
17377TIP3    H273547   2.889   1.198  14.285  0.9146 -0.0804  2.0841
17378TIP3   OH273548   1.811   5.367   4.403 -0.1495 -0.1818  0.5419
17378TIP3    H173549   1.864   5.390   4.479  0.8936  0.5549 -0.3811
17378TIP3    H273550   1.725   5.348   4.438  0.8301 -1.8151  2.1236
17379TIP3   OH273551   5.636   5.085  14.883 -0.1978 -0.7717 -0.3866
17379TIP3    H173552   5.605   4.995  14.893  0.7754 -1.2111 -1.2533
17379TIP3    H273553   5.730   5.081  14.895 -0.1136  0.0961 -0.6469
17380TIP3   OH273554   4.704   0.021   4.124  0.5844 -0.2857 -0.4292
17380TIP3    H173555   4.798   0.038   4.115  0.7568 -0.5256  0.8162
17380TIP3    H273556   4.670   0.026   4.034  1.5661  1.0440 -0.7455
17381TIP3   OH273557   0.487   4.377   4.158 -0.4571 -0.0439  0.7124
17381TIP3    H173558   0.411   4.349   4.210  0.0711  1.1997  2.2005
17381TIP3    H273559   0.524   4.450   4.208  0.5551  0.6507 -1.0204
17382TIP3   OH273560   1.206   6.418   0.295  0.1015  0.6211  0.1288
17382TIP3    H173561   1.203   6.360   0.219 -2.4358  0.5869  0.2054
17382TIP3    H273562   1.182   6.363   0.369 -2.9863  1.8129  0.1089
17383TIP3   OH273563   2.894   6.445  10.900 -0.2780  0.0447 -0.3125
17383TIP3    H173564   2.865   6.356  10.917  0.3670  0.0741  1.1097
17383TIP3    H273565   2.845   6.473  10.823 -3.9507  0.0878  1.9042
17384TIP3   OH273566   0.139   0.598   2.762  0.4363  0.1543 -0.4598
17384TIP3    H173567   0.180   0.642   2.688  0.7660  1.6796  0.6075
17384TIP3    H273568   0.045   0.602   2.743  0.5952 -0.8334 -1.5284
17385TIP3   OH273569   0.513   1.125   0.476  0.0510  0.1384 -0.3636
17385TIP3    H173570   0.480   1.061   0.539 -2.3440  1.4878 -0.1889
17385TIP3    H273571   0.480   1.094   0.391  3.1016 -1.5656 -1.0198
17386TIP3   OH273572   3.122   0.355   5.867  0.0210 -0.0273 -0.3137
17386TIP3    H173573   3.191   0.422   5.876  0.4596 -0.2763 -1.6002
17386TIP3    H273574   3.117   0.340   5.772 -1.1779 -0.6792 -0.1509
17387TIP3   OH273575   3.721   4.282  14.856  0.4797  0.1200  0.2702
17387TIP3    H173576   3.787   4.346  14.884  0.8570 -0.3879  0.5401
17387TIP3    H273577   3.663   4.273  14.931  1.0707 -0.6946  0.6270
17388TIP3   OH273578   2.486   1.477  16.373 -0.1823  0.3981 -0.0462
17388TIP3    H173579   2.396   1.450  16.350 -1.4456  2.0503  2.7239
17388TIP3    H273580   2.491   1.569  16.348  0.1601  0.7767  1.3872
17389TIP3   OH273581   5.101   4.450   4.822  0.7407  0.1244  0.3458
17389TIP3    H173582   5.150   4.375   4.788 -1.0792 -1.1042  0.3379
17389TIP3    H273583   5.014   4.440   4.783  0.4409  2.1778  0.4668
17390TIP3   OH273584   4.763   1.439   6.004 -0.3086 -0.0055  0.3385
17390TIP3    H173585   4.733   1.370   6.063 -0.3065  1.1115  1.6656
17390TIP3    H273586   4.682   1.477   5.969 -0.4297  1.5324  2.2089
17391TIP3   OH273587   2.260   5.799   4.888 -0.1353  0.2086 -0.1888
17391TIP3    H173588   2.334   5.740   4.874 -2.3393 -2.4619 -1.1983
17391TIP3    H273589   2.229   5.780   4.977 -0.6522  0.0520 -0.3967
17392TIP3   OH273590   2.323   1.760   5.848 -0.3437 -0.2081 -0.6406
17392TIP3    H173591   2.258   1.690   5.851 -0.9792  0.4257  1.2826
17392TIP3    H273592   2.336   1.784   5.940  0.9684  1.1924 -1.1722
17393TIP3   OH273593   3.068   6.701  16.108  0.0463  0.3868 -0.5434
17393TIP3    H173594   2.982   6.688  16.069 -0.0167 -0.7916 -0.0444
17393TIP3    H273595   3.062   6.783  16.155 -0.3564  1.0442 -1.7140
17394TIP3   OH273596   2.793   6.030  10.498  0.0492  0.5305 -0.0263
17394TIP3    H173597   2.814   6.049  10.406 -1.3887 -0.5145 -0.5991
17394TIP3    H273598   2.864   5.974  10.529 -0.0645 -0.0979 -0.8766
17395TIP3   OH273599   0.031   3.794   5.660 -0.5159 -0.3252  0.0996
17395TIP3    H173600   0.093   3.790   5.587 -0.4507 -1.7442  0.2233
17395TIP3    H273601  -0.054   3.799   5.618 -0.4598 -0.8387 -0.0803
17396TIP3   OH273602   3.537   2.212  13.580  0.3765 -0.6915 -0.4225
17396TIP3    H173603   3.599   2.205  13.653 -0.0243 -1.6163 -0.1651
17396TIP3    H273604   3.552   2.133  13.527  0.5835 -0.0833 -1.2765
17397TIP3   OH273605   3.884   2.765   3.279 -0.0620 -0.4066  0.4606
17397TIP3    H173606   3.933   2.694   3.321 -1.5296 -1.5846  0.2253
17397TIP3    H273607   3.852   2.727   3.197 -0.7831  0.5549  0.2837
17398TIP3   OH273608   4.492   0.495   0.573 -0.7653  0.3340  0.1370
17398TIP3    H173609   4.535   0.522   0.654  0.3525 -1.1131  0.0382
17398TIP3    H273610   4.453   0.410   0.594 -2.2065  0.8807 -0.2543
17399TIP3   OH273611   3.225   2.569   0.357  0.1260 -0.1993 -1.0141
17399TIP3    H173612   3.271   2.564   0.274  0.3668 -0.4315 -0.8684
17399TIP3    H273613   3.262   2.646   0.401  1.4380 -1.2380 -0.2671
17400TIP3   OH273614   6.259   6.084   4.159 -0.1982 -0.6402  0.4446
17400TIP3    H173615   6.316   6.008   4.143  0.1873  0.3361 -3.3995
17400TIP3    H273616   6.171   6.047   4.160  0.0201 -1.2653 -0.9585
17401TIP3   OH273617   3.376   3.962   4.754 -0.1687 -0.0934 -0.4734
17401TIP3    H173618   3.434   3.931   4.684 -2.5444 -3.9034 -0.9291
17401TIP3    H273619   3.421   3.940   4.835  1.1777  1.4465 -0.7892
17402TIP3   OH273620   5.571   1.413  13.851 -0.6766  0.4755  0.3712
17402TIP3    H173621   5.654   1.382  13.888  0.0744  1.4254 -0.4796
17402TIP3    H273622   5.509   1.408  13.923 -0.6142 -3.0435  0.2876
17403TIP3   OH273623   0.394   3.571   5.929  0.0301 -0.5224 -0.0171
17403TIP3    H173624   0.448   3.596   6.005 -0.2669 -2.9177  1.0302
17403TIP3    H273625   0.421   3.482   5.909 -1.6384 -0.7808 -1.2033
17404TIP3   OH273626   6.064   3.149  12.632 -0.1617 -0.5361 -0.1822
17404TIP3    H173627   6.051   3.243  12.619 -0.9779 -0.4840  0.9296
17404TIP3    H273628   6.091   3.141  12.723 -0.2169 -1.3925 -0.2351
17405TIP3   OH273629   3.017   4.019   3.504  0.0363 -0.1246  0.5799
17405TIP3    H173630   2.975   4.045   3.423 -0.6620  2.9896  1.8541
17405TIP3    H273631   2.951   3.968   3.551 -0.4215  0.1286  0.2122
17406TIP3   OH273632   4.519   2.007  10.818  0.0567 -0.2705 -0.1034
17406TIP3    H173633   4.544   1.915  10.811  0.8079 -0.2706  2.0934
17406TIP3    H273634   4.445   2.017  10.759 -1.1216 -2.7163  0.8876
17407TIP3   OH273635   3.496   6.400  16.077  0.7977 -0.3675  0.8286
17407TIP3    H173636   3.539   6.432  16.156 -1.8782  3.4410  0.8395
17407TIP3    H273637   3.428   6.340  16.108 -1.0065  2.0005  1.5574
17408TIP3   OH273638   2.609   4.652   1.506 -0.3877 -0.0295 -0.5230
17408TIP3    H173639   2.606   4.697   1.591 -0.1895 -0.7423 -0.1339
17408TIP3    H273640   2.570   4.715   1.445 -0.6045  0.4630  0.1060
17409TIP3   OH273641   0.146   5.038  14.935 -0.3541  0.2176  0.3387
17409TIP3    H173642   0.149   4.942  14.941  0.8344  0.1503 -0.9761
17409TIP3    H273643   0.126   5.055  14.843  1.8065  1.2393  0.0426
17410TIP3   OH273644   0.870   5.308  13.460 -0.0192  0.1611 -0.2248
17410TIP3    H173645   0.930   5.328  13.531  1.0009 -1.4301 -0.6203
17410TIP3    H273646   0.915   5.340  13.381 -1.2901  2.2276 -0.1577
17411TIP3   OH273647   3.821   3.925  15.318 -1.2516  0.1885  0.2382
17411TIP3    H173648   3.875   3.924  15.240 -2.3983 -0.0847 -0.5618
17411TIP3    H273649   3.824   3.835  15.350  0.3673  0.6065  1.3302
17412TIP3   OH273650   5.050   1.399  12.205 -0.8480 -0.2071 -0.0168
17412TIP3    H173651   5.144   1.383  12.213 -0.5472  2.5753  2.7701
17412TIP3    H273652   5.009   1.326  12.251  0.1628  1.2309  3.2999
17413TIP3   OH273653   3.022   4.893  17.196 -0.0289  0.2608 -0.7483
17413TIP3    H173654   2.939   4.910  17.152  0.5191  0.2754 -1.7957
17413TIP3    H273655   3.056   4.979  17.219 -1.0868  0.1833  1.1784
17414TIP3   OH273656   0.420   4.770   2.128  0.3430  0.7859 -0.3230
17414TIP3    H173657   0.425   4.709   2.201 -0.8273 -1.1756 -1.7952
17414TIP3    H273658   0.340   4.821   2.144 -1.1150 -1.1228 -1.2680
17415TIP3   OH273659   5.232   5.322  11.371  0.2478 -1.0648 -0.1605
17415TIP3    H173660   5.158   5.281  11.417 -1.2908  1.6574 -0.1090
17415TIP3    H273661   5.242   5.270  11.292 -3.4408 -0.0305 -1.4244
17416TIP3   OH273662   5.813   4.708   5.128  0.1561  0.0335  0.1802
17416TIP3    H173663   5.901   4.717   5.163 -0.4029 -0.2696  1.6990
17416TIP3    H273664   5.782   4.624   5.162 -0.2835 -0.4346 -1.3217
17417TIP3   OH273665   2.282   3.641  15.206 -0.3972 -0.3581  0.5823
17417TIP3    H173666   2.351   3.707  15.213 -2.8244  2.2689  0.2206
17417TIP3    H273667   2.270   3.609  15.296  0.3651  0.0909  0.8500
17418TIP3   OH273668   2.424   5.661   2.771  0.5611  0.1983 -0.3165
17418TIP3    H173669   2.454   5.612   2.694 -0.4465  0.5656 -0.9407
17418TIP3    H273670   2.352   5.610   2.806  0.2523  0.6363 -0.3033
17419TIP3   OH273671   6.625   4.988   5.630 -0.3468  0.4163  0.3147
17419TIP3    H173672   6.572   4.921   5.674 -0.5984 -0.2914 -1.0173
17419TIP3    H273673   6.595   4.985   5.539  2.2058 -0.2331 -0.5455
17420TIP3   OH273674   4.532   3.603   1.347 -0.4873  0.5362 -0.4110
17420TIP3    H173675   4.578   3.544   1.407  1.5194  1.7541 -0.6887
17420TIP3    H273676   4.554   3.571   1.259  0.3374  1.4402 -0.5562
17421TIP3   OH273677   1.931   4.681  15.780 -0.4023  0.2506 -0.2711
17421TIP3    H173678   1.936   4.771  15.749  0.0492  0.9221  1.7032
17421TIP3    H273679   1.848   4.648  15.745 -1.7842  2.2231  1.0476
17422TIP3   OH273680   4.254   4.145   1.429 -0.1469  0.4544 -0.0604
17422TIP3    H173681   4.231   4.167   1.339 -0.7519 -0.5244 -0.1455
17422TIP3    H273682   4.183   4.183   1.481 -0.3254  0.1356 -0.0739
17423TIP3   OH273683   6.207   0.776  12.145  0.3314  0.7260  0.1012
17423TIP3    H173684   6.270   0.808  12.209  0.8259  0.3861 -0.1988
17423TIP3    H273685   6.156   0.710  12.192 -0.1217  1.3435  0.4797
17424TIP3   OH273686   2.470   5.466  17.032  0.0794 -0.1850 -0.4136
17424TIP3    H173687   2.494   5.379  17.064 -1.2333 -0.5242 -0.3367
17424TIP3    H273688   2.430   5.450  16.946  1.0940  0.4740 -1.0219
17425TIP3   OH273689   2.549   5.814  14.767 -0.5083  0.1182 -0.3225
17425TIP3    H173690   2.488   5.749  14.733 -2.0538  1.5294 -0.2988
17425TIP3    H273691   2.525   5.896  14.724 -1.8457  1.7430  3.2547
17426TIP3   OH273692   1.715   0.099   1.833 -0.1817  0.0380  0.0091
17426TIP3    H173693   1.712   0.039   1.759 -0.1725  1.8279 -1.4851
17426TIP3    H273694   1.805   0.094   1.864  0.0768 -0.0002 -0.7264
17427TIP3   OH273695   2.850   3.584   4.521 -0.0568 -0.2832 -0.0307
17427TIP3    H173696   2.776   3.645   4.523  0.4150  0.4032 -2.1353
17427TIP3    H273697   2.906   3.616   4.451  1.5504 -1.6171  0.5995
17428TIP3   OH273698   2.833   3.764   1.103 -0.5644  0.2177 -0.3055
17428TIP3    H173699   2.772   3.739   1.172 -1.1989  0.5308 -0.7572
17428TIP3    H273700   2.913   3.714   1.123 -1.0527 -0.4052  0.1202
17429TIP3   OH273701   0.179   2.700   0.299  0.4074 -0.0306 -0.0723
17429TIP3    H173702   0.210   2.706   0.389 -0.6944 -1.7778  0.4357
17429TIP3    H273703   0.085   2.716   0.304  0.3421 -0.0844 -0.9212
17430TIP3   OH273704   4.456   0.193  16.551 -0.6093 -0.1440 -0.6813
17430TIP3    H173705   4.431   0.105  16.581  1.2753 -0.3655  0.3239
17430TIP3    H273706   4.430   0.251  16.623  0.8801 -0.2620 -0.0381
17431TIP3   OH273707   1.700   3.677   3.889 -0.3257  0.0814 -0.0383
17431TIP3    H173708   1.781   3.724   3.906 -0.5651  0.6067 -0.3284
17431TIP3    H273709   1.667   3.715   3.807 -0.9363 -0.0236  0.1570
17432TIP3   OH273710   1.010   0.632   3.411  0.0654 -0.0596  0.0786
17432TIP3    H173711   1.028   0.572   3.484 -0.8652  0.2457  0.5631
17432TIP3    H273712   1.097   0.657   3.379  0.4609 -1.1048  0.3361
17433TIP3   OH273713   1.056   3.631   5.230  0.0535 -0.2953  0.0075
17433TIP3    H173714   1.075   3.721   5.256 -0.4900 -0.8673  2.5845
17433TIP3    H273715   0.964   3.632   5.205 -0.6268 -0.5648  2.3487
17434TIP3   OH273716   3.683   4.545  12.321 -0.2476  0.4300  0.2019
17434TIP3    H173717   3.766   4.591  12.322 -0.3070  0.5041  1.4534
17434TIP3    H273718   3.619   4.610  12.292  0.8145 -0.8225 -5.6905
17435TIP3   OH273719   0.917   2.137  10.690 -0.0408  0.4645  0.1759
17435TIP3    H173720   0.948   2.058  10.733 -1.9080  0.1138  0.9432
17435TIP3    H273721   0.895   2.109  10.601 -1.1329 -0.0151  0.5815
17436TIP3   OH273722   0.287   0.709  16.249  0.4087 -0.4388  0.1043
17436TIP3    H173723   0.337   0.786  16.224  0.8987 -1.1295 -1.1035
17436TIP3    H273724   0.241   0.734  16.329  1.5296  0.6922  0.3980
17437TIP3   OH273725   2.835   2.843  16.611  0.2002 -0.2475  0.3785
17437TIP3    H173726   2.780   2.921  16.619 -1.6912 -1.6487  1.4804
17437TIP3    H273727   2.833   2.803  16.697  1.3111 -1.4318 -0.1276
17438TIP3   OH273728   0.332   1.633  15.132  0.2915 -0.2290 -0.3680
17438TIP3    H173729   0.238   1.613  15.129  0.1989  0.1260  0.0607
17438TIP3    H273730   0.375   1.555  15.096 -0.1377 -0.6045 -0.0656
17439TIP3   OH273731   1.463   1.077  16.347  0.4076  0.0023  0.1045
17439TIP3    H173732   1.380   1.125  16.340  0.6735  0.7824  1.9418
17439TIP3    H273733   1.525   1.128  16.295  0.1760  0.4684  0.2824
17440TIP3   OH273734   4.601   2.151   1.162 -0.3374 -0.5206 -1.2622
17440TIP3    H173735   4.589   2.240   1.128  0.4430 -0.2567 -0.8718
17440TIP3    H273736   4.609   2.162   1.257  0.2154 -0.9494 -1.2525
17441TIP3   OH273737   3.636   3.629   4.038 -0.2692  0.6499 -0.0352
17441TIP3    H173738   3.681   3.611   4.120 -0.0470 -0.2171 -0.3499
17441TIP3    H273739   3.701   3.674   3.984  0.3537 -0.9304 -0.6279
17442TIP3   OH273740   0.208   4.298  12.768  0.5214  0.5630  0.0237
17442TIP3    H173741   0.114   4.318  12.773  0.1493 -0.8292 -1.1332
17442TIP3    H273742   0.220   4.266  12.678  1.8146 -0.7977  0.6854
17443TIP3   OH273743   4.692   6.493  14.477 -0.0869 -0.1894 -0.0583
17443TIP3    H173744   4.635   6.424  14.510  0.9364 -0.8143  0.4189
17443TIP3    H273745   4.744   6.519  14.553 -1.1634  1.8141  0.0100
17444TIP3   OH273746   4.196   3.172   0.127 -0.5106  0.3470 -0.0209
17444TIP3    H173747   4.252   3.246   0.152 -0.7670  0.2374  0.8855
17444TIP3    H273748   4.119   3.213   0.089 -1.1004  0.5787  1.4130
17445TIP3   OH273749   0.557   4.419  11.953 -0.0765  0.2438  0.1274
17445TIP3    H173750   0.615   4.347  11.928 -0.5294 -0.6452  1.5686
17445TIP3    H273751   0.604   4.498  11.926  1.3911 -0.4983  0.4680
17446TIP3   OH273752   0.689   1.696   4.903  0.0420 -0.3066  0.5343
17446TIP3    H173753   0.707   1.662   4.815 -0.5487 -0.3437  0.4298
17446TIP3    H273754   0.652   1.622   4.950  1.0268 -0.4882  1.0337
17447TIP3   OH273755   4.306   1.207  14.681  0.1222 -0.3927 -0.5336
17447TIP3    H173756   4.331   1.271  14.614 -0.3946  0.2604 -0.1081
17447TIP3    H273757   4.224   1.241  14.717 -0.9386 -2.0567 -1.3212
17448TIP3   OH273758   5.714   2.059   5.329 -0.4086  0.0662 -0.9458
17448TIP3    H173759   5.778   2.008   5.280 -0.2016 -0.3479 -0.2572
17448TIP3    H273760   5.755   2.074   5.414 -1.9257 -1.7534  0.1631
17449TIP3   OH273761   3.980   4.821   4.298 -0.0680  0.5988  0.1576
17449TIP3    H173762   4.073   4.834   4.280 -0.1711 -1.5781 -2.1390
17449TIP3    H273763   3.935   4.874   4.232 -0.4557  0.0650 -0.0109
17450TIP3   OH273764   6.405   5.000  14.427 -0.3518  0.2062 -0.5717
17450TIP3    H173765   6.478   5.044  14.383 -0.6258 -0.4778 -1.7275
17450TIP3    H273766   6.336   5.065  14.430 -0.4527  0.1371 -1.4729
17451TIP3   OH273767   4.122   1.699   0.675  0.2076 -0.0651 -0.0557
17451TIP3    H173768   4.048   1.702   0.735  0.0625  0.0185 -0.2393
17451TIP3    H273769   4.165   1.615   0.694 -0.2581 -0.3661 -0.3427
17452TIP3   OH273770   1.593   4.728   3.878 -0.4187 -0.1923  0.8194
17452TIP3    H173771   1.608   4.764   3.965 -0.0500 -0.1088  0.7234
17452TIP3    H273772   1.645   4.648   3.876  0.5901  0.4648  0.2374
17453TIP3   OH273773   3.209   5.736  13.456 -0.0220 -0.2419 -0.9491
17453TIP3    H173774   3.170   5.685  13.384  0.8851 -2.0931 -0.1598
17453TIP3    H273775   3.139   5.740  13.522  0.0217 -0.8135 -0.8595
17454TIP3   OH273776   4.089   6.627   5.982  0.0049 -0.3401 -0.1419
17454TIP3    H173777   4.034   6.560   6.023  0.7107 -0.7167  0.2086
17454TIP3    H273778   4.041   6.653   5.904 -0.5374 -0.8735  0.0086
17455TIP3   OH273779   0.569   4.234  17.014  0.6687  0.3258 -0.1455
17455TIP3    H173780   0.626   4.280  17.075  0.7135 -0.0933  0.1309
17455TIP3    H273781   0.573   4.142  17.041 -0.5788  0.3746  0.2299
17456TIP3   OH273782   2.726   0.153  11.675 -0.0036  0.6307  0.3199
17456TIP3    H173783   2.773   0.227  11.636  0.0598  0.5816  0.3033
17456TIP3    H273784   2.752   0.155  11.768 -1.3464  1.6767  0.6967
17457TIP3   OH273785   1.434   4.274   6.177  0.1485 -0.2832  0.6322
17457TIP3    H173786   1.356   4.225   6.200 -0.8634  0.6719 -0.6776
17457TIP3    H273787   1.503   4.239   6.235 -0.7804 -2.4544  0.4642
17458TIP3   OH273788   6.377   2.779  13.681  0.2177 -0.0998  0.0676
17458TIP3    H173789   6.287   2.812  13.675  0.6379  0.8975 -1.2320
17458TIP3    H273790   6.385   2.719  13.607  0.3799 -0.7993  0.6524
17459TIP3   OH273791   3.873   2.808  14.280  0.1481  0.0152 -0.1305
17459TIP3    H173792   3.836   2.893  14.303 -1.0432  0.0558 -2.0300
17459TIP3    H273793   3.928   2.826  14.204 -1.2047 -1.0982 -1.4061
17460TIP3   OH273794   6.113   1.041  16.233 -0.2826 -0.0231 -0.2463
17460TIP3    H173795   6.142   0.972  16.173  0.5207 -1.0660  1.2855
17460TIP3    H273796   6.018   1.035  16.231 -0.2404 -0.7087 -0.6783
17461TIP3   OH273797   4.116   6.699   0.140  0.5101 -0.3783  0.1477
17461TIP3    H173798   4.119   6.650   0.057 -1.0100 -0.2708  0.0190
17461TIP3    H273799   4.195   6.671   0.187  0.4751 -1.7580 -0.5960
17462TIP3   OH273800   2.603   5.911   1.795  0.2519 -0.4183 -0.1909
17462TIP3    H173801   2.538   5.979   1.812 -0.9664 -1.6561  0.1946
17462TIP3    H273802   2.626   5.923   1.703  0.2842  0.7109 -0.0431
17463TIP3   OH273803   0.130   2.733   4.592 -0.2782 -0.5123  0.0021
17463TIP3    H173804   0.222   2.747   4.567 -0.5787 -1.3805 -1.6045
17463TIP3    H273805   0.081   2.794   4.537 -0.6059  0.6932  1.5933
17464TIP3   OH273806   4.865   2.468  15.471 -0.1734 -0.3319  0.6016
17464TIP3    H173807   4.907   2.487  15.555  0.3187 -0.8635  0.4799
17464TIP3    H273808   4.804   2.541  15.458  2.0208  1.4487 -0.0859
17465TIP3   OH273809   0.303   5.982   3.987 -0.1086  0.1683  0.2686
17465TIP3    H173810   0.301   5.943   4.074 -0.5701 -2.3756 -0.8350
17465TIP3    H273811   0.213   5.975   3.955  0.4371 -0.6551 -1.1396
17466TIP3   OH273812   4.196   5.257   2.429  0.6057 -0.1342 -0.9282
17466TIP3    H173813   4.184   5.175   2.478  0.1443  0.8782  0.6864
17466TIP3    H273814   4.156   5.240   2.343  1.5842 -1.9971 -1.0443
17467TIP3   OH273815   1.131   0.510  15.932 -0.4670 -0.1499  0.3257
17467TIP3    H173816   1.187   0.530  15.857  2.0101 -0.5926  1.9961
17467TIP3    H273817   1.185   0.531  16.009 -1.9014 -2.4237  2.0104
17468TIP3   OH273818   2.301   2.080   3.452  0.2651 -0.0351  0.3695
17468TIP3    H173819   2.340   1.993   3.461  2.3108  0.8941  0.7446
17468TIP3    H273820   2.303   2.118   3.540 -0.3913  0.4877  0.1691
17469TIP3   OH273821   4.153   5.355  17.158  0.5095 -0.0899  0.1090
17469TIP3    H173822   4.097   5.408  17.216 -0.8866 -0.5445 -0.7924
17469TIP3    H273823   4.103   5.275  17.143  2.8545 -1.9761  1.9327
17470TIP3   OH273824   5.553   0.149   0.842 -0.1864 -0.6376 -0.5550
17470TIP3    H173825   5.638   0.143   0.799 -0.3680  0.6866 -1.1493
17470TIP3    H273826   5.538   0.243   0.853 -0.6423 -0.9050  1.4409
17471TIP3   OH273827   1.762   5.708   4.942 -0.1883 -0.2610 -0.0923
17471TIP3    H173828   1.823   5.757   4.888 -0.8422 -0.4950 -1.0600
17471TIP3    H273829   1.814   5.677   5.016  0.0051  2.8334  1.1402
17472TIP3   OH273830   0.386   4.191   1.064 -0.2271  0.3575  0.5620
17472TIP3    H173831   0.375   4.096   1.064  2.1893  0.0392  1.0974
17472TIP3    H273832   0.348   4.220   0.981 -1.4759 -1.0075  0.6494
17473TIP3   OH273833   6.077   6.331  15.782  0.2313 -0.4407  1.0071
17473TIP3    H173834   6.162   6.299  15.812  0.3506 -0.9668  0.1264
17473TIP3    H273835   6.097   6.409  15.730  0.2653 -1.0610  0.0674
17474TIP3   OH273836   5.979   4.036   1.082 -0.3847 -0.7648  0.4423
17474TIP3    H173837   6.031   4.033   1.001 -1.2610 -0.5564 -0.1383
17474TIP3    H273838   6.043   4.026   1.152  0.9179  3.0080 -0.0959
17475TIP3   OH273839   3.562   5.328  10.557 -0.1363 -0.0539  0.2388
17475TIP3    H173840   3.652   5.353  10.537 -0.0563 -2.0730 -2.2532
17475TIP3    H273841   3.565   5.233  10.565 -2.0246 -0.1298  0.2949
17476TIP3   OH273842   1.530   5.575   2.985 -0.1854 -0.3294  0.3890
17476TIP3    H173843   1.494   5.660   3.010  2.3303  0.5748  1.1549
17476TIP3    H273844   1.487   5.512   3.042 -2.6218  0.3097 -0.6949
17477TIP3   OH273845   1.469   5.778   5.557  0.1755 -0.0648  0.5472
17477TIP3    H173846   1.420   5.697   5.570  0.0698  0.0559  0.8845
17477TIP3    H273847   1.434   5.814   5.475  0.7067 -0.7168  0.0200
17478TIP3   OH273848   0.734   0.900  12.246 -0.1056 -0.0317 -0.1061
17478TIP3    H173849   0.658   0.909  12.303  0.0482  1.0627 -0.0573
17478TIP3    H273850   0.697   0.889  12.158 -0.3182  0.7128 -0.1100
17479TIP3   OH273851   5.571   5.691  14.301 -0.3589  0.1938 -0.4444
17479TIP3    H173852   5.603   5.615  14.252 -0.3332 -1.5761  2.2500
17479TIP3    H273853   5.511   5.735  14.240 -1.9339 -3.0948 -1.3744
17480TIP3   OH273854   0.215   2.166   0.456  0.1277  0.4398 -0.1327
17480TIP3    H173855   0.128   2.130   0.474 -0.7787  1.2243 -2.6968
17480TIP3    H273856   0.266   2.090   0.428  0.1107  0.0750  0.8028
17481TIP3   OH273857   2.809   3.015   4.612  0.4183 -0.1280 -0.2076
17481TIP3    H173858   2.730   3.066   4.629  0.8675  0.2820  0.6673
17481TIP3    H273859   2.781   2.924   4.619  0.0744  0.0192  0.2964
17482TIP3   OH273860   0.956   0.619   1.651 -0.1431  0.3727 -0.5936
17482TIP3    H173861   1.003   0.552   1.602 -0.3296 -0.4067  0.2737
17482TIP3    H273862   1.013   0.696   1.647  1.8939 -0.9674  1.5976
17483TIP3   OH273863   0.847   4.706   0.029 -0.2551 -0.0632  0.2483
17483TIP3    H173864   0.927   4.739   0.070  0.2474  0.0837 -0.8509
17483TIP3    H273865   0.807   4.783  -0.011 -0.1360 -0.4180 -0.5616
17484TIP3   OH273866   5.502   4.614   4.968  0.1040  0.4185 -0.5362
17484TIP3    H173867   5.485   4.687   5.028 -0.5246  1.3898 -1.8644
17484TIP3    H273868   5.574   4.646   4.913 -0.1379  0.0118 -1.0853
17485TIP3   OH273869   2.651   5.416   5.681 -0.0960  0.1187 -1.0162
17485TIP3    H173870   2.735   5.388   5.720 -0.0188  0.6605 -0.7783
17485TIP3    H273871   2.661   5.511   5.670 -0.5655  0.1381 -1.2704
17486TIP3   OH273872   1.691   5.375  12.592 -0.0011  0.0221  0.1810
17486TIP3    H173873   1.701   5.288  12.632 -2.3317 -0.2975  0.1565
17486TIP3    H273874   1.635   5.359  12.516  0.7185  1.3332 -0.6225
17487TIP3   OH273875   0.474   0.037   3.236  0.2930  0.9573 -0.0421
17487TIP3    H173876   0.392  -0.006   3.211  0.4916 -0.4870  1.6213
17487TIP3    H273877   0.500   0.086   3.159 -1.1874 -0.0453 -1.2200
17488TIP3   OH273878   5.854   0.531  15.048  0.2981 -0.0449 -0.4201
17488TIP3    H173879   5.866   0.446  15.090 -1.2090 -0.7210 -1.3215
17488TIP3    H273880   5.836   0.592  15.120  1.1424 -0.5265  0.2075
17489TIP3   OH273881   0.969   1.078   2.242  0.2885 -0.3733  0.1046
17489TIP3    H173882   0.940   1.028   2.319  1.1205 -1.4211 -0.2496
17489TIP3    H273883   1.042   1.131   2.274  1.0618 -1.3041 -0.1153
17490TIP3   OH273884   2.628   4.759   0.536  0.3315  0.0325  0.4031
17490TIP3    H173885   2.701   4.703   0.511  0.0367 -1.3999  2.6688
17490TIP3    H273886   2.550   4.709   0.513  0.0659 -0.5736  2.5520
17491TIP3   OH273887   4.206   2.889   2.390 -0.1233  0.1835 -0.4401
17491TIP3    H173888   4.175   2.799   2.383 -1.5722  0.5180  1.1072
17491TIP3    H273889   4.274   2.886   2.458  0.8535  0.0147 -1.4248
17492TIP3   OH273890   1.671   3.604   0.976 -0.4637  0.4526 -0.4463
17492TIP3    H173891   1.711   3.560   0.901 -0.4996  0.0591 -0.2349
17492TIP3    H273892   1.587   3.636   0.944  0.0251  1.3091 -0.9046
17493TIP3   OH273893   3.349   1.800  14.971 -0.2444  0.2177  0.9089
17493TIP3    H173894   3.328   1.863  14.902 -1.6867 -0.0629  1.0813
17493TIP3    H273895   3.338   1.848  15.053  0.0271  0.1282  0.9998
17494TIP3   OH273896   2.637   6.592   0.456 -0.6493  0.4407 -0.2925
17494TIP3    H173897   2.656   6.517   0.399  0.4742 -0.8503  1.7429
17494TIP3    H273898   2.722   6.631   0.474 -0.6952 -0.5624  2.3566
17495TIP3   OH273899   3.428   0.182  12.334  0.4269  0.2600  0.0443
17495TIP3    H173900   3.364   0.201  12.403  0.1185 -1.4024  0.2305
17495TIP3    H273901   3.383   0.203  12.253 -0.6608 -1.6435  0.1283
17496TIP3   OH273902   6.104   4.393   0.305  0.2592 -0.0812  0.2181
17496TIP3    H173903   6.158   4.472   0.306  0.1099  0.0309 -0.3308
17496TIP3    H273904   6.164   4.323   0.277  0.3274 -0.1094  0.4423
17497TIP3   OH273905   5.066   0.070  13.796 -0.2595  0.2075 -0.2419
17497TIP3    H173906   5.135   0.017  13.757  0.3377  0.0510  0.9998
17497TIP3    H273907   5.031   0.016  13.867 -1.1446  0.5907 -0.3725
17498TIP3   OH273908   1.495   5.500   6.569 -0.3135  0.4158 -0.2392
17498TIP3    H173909   1.471   5.498   6.661 -0.1554 -0.6677 -0.2115
17498TIP3    H273910   1.521   5.590   6.552  1.1753  0.2623  1.1656
17499TIP3   OH273911   1.738   5.882   0.449 -0.4038  0.0767 -0.0701
17499TIP3    H173912   1.764   5.808   0.505 -0.8520  0.2115  0.3136
17499TIP3    H273913   1.732   5.956   0.509  0.1371  0.4490 -0.4730
17500TIP3   OH273914   2.125   5.614  11.557 -0.1712  0.6972 -0.3336
17500TIP3    H173915   2.065   5.685  11.582  1.7044  2.1971  0.0910
17500TIP3    H273916   2.212   5.652  11.569  0.8813 -1.6834 -0.1863
17501TIP3   OH273917   4.956   3.736   4.725 -0.1634 -0.2647 -0.3838
17501TIP3    H173918   4.895   3.760   4.795  0.1750 -0.7898  0.0938
17501TIP3    H273919   4.913   3.663   4.680 -0.1542 -0.2483 -0.4201
17502TIP3   OH273920   2.082   5.971  16.368 -0.1325 -0.8344 -0.2608
17502TIP3    H173921   2.061   5.882  16.398 -2.4394 -0.4303 -0.6130
17502TIP3    H273922   2.177   5.976  16.373 -0.1874 -2.1232  3.1795
17503TIP3   OH273923   6.456   0.160  11.803  0.1192  0.3711  0.1189
17503TIP3    H173924   6.384   0.100  11.823  0.7005  0.0258  1.2246
17503TIP3    H273925   6.530   0.103  11.780  1.5241  0.4887  3.9542
17504TIP3   OH273926   6.743   3.067  11.284  0.1707 -0.7859 -0.0728
17504TIP3    H173927   6.671   3.100  11.230  0.1857 -1.2477 -0.3813
17504TIP3    H273928   6.821   3.104  11.245  0.0656  0.0697  0.5279
17505TIP3   OH273929   1.577   4.504  11.668 -0.6660 -0.6488  0.2224
17505TIP3    H173930   1.671   4.508  11.654 -0.7030 -0.4568  0.0250
17505TIP3    H273931   1.567   4.491  11.762 -0.4296 -1.3214  0.1576
17506TIP3   OH273932   0.475   5.501   4.859 -0.3457 -0.2394 -0.1276
17506TIP3    H173933   0.518   5.580   4.827 -0.0027 -0.4098 -0.0908
17506TIP3    H273934   0.532   5.470   4.930 -0.8309 -0.1475  0.2995
17507TIP3   OH273935   6.592   2.685  11.374  0.2255  0.2913 -0.3580
17507TIP3    H173936   6.609   2.770  11.415  0.9311 -0.2347  0.4614
17507TIP3    H273937   6.614   2.698  11.282  1.0349  0.8051 -0.1056
17508TIP3   OH273938   0.500   3.650   6.524 -0.2479 -0.0350 -0.3638
17508TIP3    H173939   0.573   3.623   6.468 -0.4186  0.8126 -1.0101
17508TIP3    H273940   0.422   3.628   6.473 -0.4208  0.1234 -0.1672
17509TIP3   OH273941   5.258   0.665  13.113  0.3562 -0.1568 -0.2911
17509TIP3    H173942   5.287   0.619  13.192 -0.3260 -0.4219 -0.1889
17509TIP3    H273943   5.298   0.617  13.041  0.2590 -0.4522 -0.1473
17510TIP3   OH273944   2.964   0.239   2.138 -0.0795  0.4102  0.5179
17510TIP3    H173945   2.876   0.273   2.150 -0.7539 -1.1642  0.1983
17510TIP3    H273946   2.953   0.144   2.136  1.4619  0.2311 -0.7915
17511TIP3   OH273947   0.334   6.331   1.587 -0.2991 -0.6958 -0.4765
17511TIP3    H173948   0.393   6.257   1.603 -0.5418 -0.0447  4.0048
17511TIP3    H273949   0.247   6.293   1.586 -0.2205 -0.8605 -1.1405
17512TIP3   OH273950   3.487   0.411   2.352  0.2352 -0.4658  0.2064
17512TIP3    H173951   3.480   0.416   2.447 -0.6429  1.3518  0.0717
17512TIP3    H273952   3.412   0.357   2.325  2.3572 -3.8511  0.7427
17513TIP3   OH273953   3.933   2.818   5.268 -0.1696 -0.3156  0.3019
17513TIP3    H173954   3.968   2.743   5.317 -1.1196 -1.5967 -0.9361
17513TIP3    H273955   3.946   2.893   5.327  2.4984 -1.1123  0.8055
17514TIP3   OH273956   5.715   6.180  10.359 -0.0812  0.0326  0.0676
17514TIP3    H173957   5.795   6.179  10.412 -0.1474 -0.7549  0.1602
17514TIP3    H273958   5.746   6.184  10.269  0.1211 -2.0662  0.0198
17515TIP3   OH273959   3.312   0.254   0.367 -0.6309  0.2899 -0.2426
17515TIP3    H173960   3.294   0.287   0.279  0.3311 -0.3690 -0.6958
17515TIP3    H273961   3.226   0.234   0.403 -1.0082  0.1078 -1.2183
17516TIP3   OH273962   4.747   6.001  12.613 -0.4456  0.3164 -0.6361
17516TIP3    H173963   4.738   5.911  12.582 -0.8628  0.6237 -1.4194
17516TIP3    H273964   4.763   5.993  12.707 -3.6303 -0.4787 -0.1065
17517TIP3   OH273965   1.997   4.260   1.466 -0.0631 -0.0532  0.0527
17517TIP3    H173966   1.971   4.181   1.418  0.3747  1.0056 -1.9732
17517TIP3    H273967   1.956   4.332   1.419 -0.3648  0.9765  1.8142
17518TIP3   OH273968   6.133   1.204  14.690 -0.4707  0.0448 -0.5710
17518TIP3    H173969   6.054   1.150  14.685  1.8846 -3.6760  0.3862
17518TIP3    H273970   6.169   1.202  14.601 -1.2114  1.4678 -0.9265
17519TIP3   OH273971   6.066   0.960  15.282  0.0326 -0.1354 -0.1179
17519TIP3    H173972   5.974   0.980  15.266 -0.0080  0.8880  1.2994
17519TIP3    H273973   6.078   0.975  15.376  1.7751  0.3051 -0.3883
17520TIP3   OH273974   2.344   2.218  15.117 -0.1345  0.2673 -0.2549
17520TIP3    H173975   2.280   2.151  15.092  0.0860 -0.2391  0.5511
17520TIP3    H273976   2.371   2.195  15.206 -0.9371  2.0999  0.4818
17521TIP3   OH273977   6.502   6.580  15.382  0.3208  0.3608 -0.1315
17521TIP3    H173978   6.497   6.535  15.298  0.1316  0.3247 -0.1002
17521TIP3    H273979   6.591   6.562  15.413 -0.1228 -0.9911  0.4218
17522TIP3   OH273980   1.361   4.877  11.153  0.0902  0.2906 -0.0414
17522TIP3    H173981   1.425   4.880  11.081  1.3108 -0.5899  0.9948
17522TIP3    H273982   1.308   4.956  11.141  2.3316  1.8371 -0.0363
17523TIP3   OH273983   1.234   5.558   0.451  0.0881 -0.4054 -0.4575
17523TIP3    H173984   1.207   5.482   0.399 -3.2732  0.0629  0.4338
17523TIP3    H273985   1.205   5.634   0.400  0.1219  0.1606  0.3465
17524TIP3   OH273986   5.509   1.830   0.041 -0.0740 -0.2790  0.4223
17524TIP3    H173987   5.529   1.774   0.116  1.3009  2.3010  2.0703
17524TIP3    H273988   5.441   1.889   0.073  0.5788  0.8813 -0.2850
17525TIP3   OH273989   2.789   0.090  12.900  0.0455  0.0444  0.0296
17525TIP3    H173990   2.767   0.112  12.810 -0.7674  0.2013  0.2630
17525TIP3    H273991   2.781  -0.005  12.904 -0.9359  0.1310  0.2007
17526TIP3   OH273992   1.919   2.737  12.565  0.7077  0.7435  0.0423
17526TIP3    H173993   1.993   2.790  12.593  3.1386 -2.2049 -0.5185
17526TIP3    H273994   1.882   2.784  12.491 -0.6644  4.3869  2.8852
17527TIP3   OH273995   2.946   3.850   4.853 -0.2731 -0.0943 -0.2227
17527TIP3    H173996   2.886   3.788   4.894  0.4656 -0.0879  0.8951
17527TIP3    H273997   2.902   3.934   4.861  0.0563 -0.0314  0.9357
17528TIP3   OH273998   1.651   5.796  12.912 -0.5810  0.1902 -0.0634
17528TIP3    H173999   1.744   5.793  12.891 -0.2671 -1.3491  1.5371
17528TIP3    H274000   1.610   5.739  12.847 -0.4663  1.1419 -0.9893
17529TIP3   OH274001   1.875   0.815   2.887 -0.0816 -0.0584 -0.1124
17529TIP3    H174002   1.955   0.774   2.919  0.8975  0.5259 -1.7328
17529TIP3    H274003   1.807   0.788   2.949  1.4957  0.0282  1.7004
17530TIP3   OH274004   6.779   1.657   4.443  0.0508 -0.2476 -0.0434
17530TIP3    H174005   6.695   1.612   4.451 -1.2007  2.0362  0.2218
17530TIP3    H274006   6.792   1.668   4.348  0.4572 -1.3157 -0.1149
17531TIP3   OH274007   4.913   1.540   2.247  0.6392  0.2075  0.8997
17531TIP3    H174008   4.940   1.512   2.334  1.7705  2.9890  1.4954
17531TIP3    H274009   4.925   1.635   2.247 -1.0472  0.4787 -1.6994
17532TIP3   OH274010   1.085   4.902  13.257  0.5324 -0.5676  0.1956
17532TIP3    H174011   1.129   4.848  13.191 -1.2930 -0.6931 -0.9495
17532TIP3    H274012   1.153   4.961  13.289  0.9872  1.0816 -3.4874
17533TIP3   OH274013   5.826   3.307   5.353 -0.3369 -0.0076 -0.4968
17533TIP3    H174014   5.919   3.327   5.361 -0.8774  2.3359  0.4680
17533TIP3    H274015   5.788   3.340   5.435 -2.0573 -0.6649 -1.0156
17534TIP3   OH274016   5.215   3.686   4.761  0.3182 -0.3252  0.2339
17534TIP3    H174017   5.122   3.670   4.745  0.3913 -2.2767  1.6406
17534TIP3    H274018   5.243   3.740   4.686 -1.6178 -0.8733 -0.9216
17535TIP3   OH274019   6.776   6.724   6.063 -0.3250 -0.3473 -0.5067
17535TIP3    H174020   6.697   6.766   6.028  0.1658 -0.3165 -1.6249
17535TIP3    H274021   6.749   6.688   6.147 -1.9166 -1.5539 -1.4916
17536TIP3   OH274022   0.092   6.402  11.522  0.4462  0.0276  0.1999
17536TIP3    H174023   0.076   6.471  11.457  0.2372 -0.1477  0.0647
17536TIP3    H274024   0.050   6.325  11.486 -0.8960  0.2712  1.2085
17537TIP3   OH274025   3.870   3.379  12.354  0.0058 -0.0586  0.1091
17537TIP3    H174026   3.920   3.459  12.334 -0.4490  0.5125  1.2074
17537TIP3    H274027   3.893   3.358  12.444  2.1152 -2.6685 -0.9881
17538TIP3   OH274028   3.180   0.693   4.208  0.6623  0.1923  0.6742
17538TIP3    H174029   3.158   0.732   4.293  0.9237 -0.3087  0.9740
17538TIP3    H274030   3.126   0.614   4.204  2.5674 -1.1741  1.5197
17539TIP3   OH274031   2.338   3.034  14.873 -0.2621 -0.3293 -0.2267
17539TIP3    H174032   2.277   3.063  14.941 -0.3900  0.3923 -0.6524
17539TIP3    H274033   2.369   2.949  14.904 -1.0436 -0.4382  0.2747
17540TIP3   OH274034   3.914   6.287  12.064 -0.7180 -0.1793  0.0082
17540TIP3    H174035   3.904   6.382  12.061  1.1008  0.1006  1.6793
17540TIP3    H274036   3.986   6.268  12.004 -1.5612 -0.5865 -0.8820
17541TIP3   OH274037   5.492   0.436   3.993  0.2925 -0.2148  0.1349
17541TIP3    H174038   5.493   0.488   3.913 -1.1669 -0.0825  0.1941
17541TIP3    H274039   5.400   0.411   4.004  0.5010 -0.3237  1.7079
17542TIP3   OH274040   4.506   3.518  13.284 -0.0440 -0.0990 -0.3502
17542TIP3    H174041   4.452   3.501  13.361  0.6129 -0.7115 -0.0198
17542TIP3    H274042   4.595   3.499  13.312  0.2139 -0.2282 -1.2265
17543TIP3   OH274043   4.433   2.707  11.454  0.0541 -0.1625  0.6998
17543TIP3    H174044   4.365   2.684  11.391  0.0258  0.8858  0.3275
17543TIP3    H274045   4.506   2.738  11.401 -0.0696  0.9928  1.1744
17544TIP3   OH274046   3.616   2.806  12.186  0.0454 -0.0350 -0.0183
17544TIP3    H174047   3.654   2.873  12.242 -3.0528  1.1669  0.7894
17544TIP3    H274048   3.581   2.740  12.246 -2.4563  0.7873 -0.4925
17545TIP3   OH274049   1.575   0.969  15.895 -0.1933  0.2706  1.1538
17545TIP3    H174050   1.653   0.917  15.873 -0.3073 -0.3393  2.1368
17545TIP3    H274051   1.525   0.913  15.954 -1.9210  0.2448 -0.3040
17546TIP3   OH274052   3.862   4.168   4.465  0.4728 -0.4031  0.0841
17546TIP3    H174053   3.840   4.100   4.401  0.0465 -0.7577  0.6049
17546TIP3    H274054   3.787   4.227   4.464  0.5716 -0.2779  0.0840
17547TIP3   OH274055   1.616   0.294   5.548  0.5707  0.1352 -0.3166
17547TIP3    H174056   1.675   0.220   5.563  1.4778  0.4835 -1.9336
17547TIP3    H274057   1.651   0.364   5.604 -0.4834 -0.7298  1.4599
17548TIP3   OH274058   4.969   0.591   4.418 -0.7105 -0.2948 -0.6524
17548TIP3    H174059   4.991   0.684   4.425  0.0693 -0.3249 -2.4600
17548TIP3    H274060   4.874   0.588   4.435 -0.3159  0.4772  1.9326
17549TIP3   OH274061   6.785   0.343   1.303 -0.8045  0.5706 -0.1935
17549TIP3    H174062   6.764   0.421   1.356  0.6655 -0.2977  1.7288
17549TIP3    H274063   6.878   0.351   1.284 -0.4179 -1.1924  0.8424
17550TIP3   OH274064   0.853   4.118   2.027 -0.3662  0.1394  0.4468
17550TIP3    H174065   0.808   4.203   2.033 -0.8586  0.1591 -2.4642
17550TIP3    H274066   0.796   4.058   2.074 -1.0501  1.0534  0.8186
17551TIP3   OH274067   1.681   3.813   0.165  0.4739  0.7838 -0.4530
17551TIP3    H174068   1.640   3.843   0.246 -0.2438 -0.1982 -0.4406
17551TIP3    H274069   1.677   3.889   0.106 -2.1199  0.4792 -0.7319
17552TIP3   OH274070   2.970   5.566  12.353 -0.2021  0.2496  0.0186
17552TIP3    H174071   3.052   5.588  12.309  0.1061  1.8082  1.3089
17552TIP3    H274072   2.989   5.486  12.402  0.1028 -0.2407 -0.9088
17553TIP3   OH274073   6.675   4.427  16.390 -0.0209 -0.6581 -0.3398
17553TIP3    H174074   6.643   4.502  16.441 -3.6787 -1.6091 -1.1722
17553TIP3    H274075   6.672   4.353  16.451  0.5630 -0.7805 -0.4537
17554TIP3   OH274076   0.397   0.027  16.118 -0.0085 -0.5441 -0.4815
17554TIP3    H174077   0.405  -0.044  16.054 -0.4472 -0.6145 -0.4558
17554TIP3    H274078   0.383   0.105  16.065  4.0078  0.1056 -0.7233
17555TIP3   OH274079   5.472   3.657   5.639  0.5036  0.7369 -0.3942
17555TIP3    H174080   5.436   3.689   5.722  1.5500 -1.6498  1.0596
17555TIP3    H274081   5.423   3.703   5.572 -2.6003  0.3603  1.5284
17556TIP3   OH274082   2.576   4.557   2.798  0.0017  0.3379  0.2891
17556TIP3    H174083   2.527   4.624   2.749 -1.6290 -0.2359  1.0852
17556TIP3    H274084   2.535   4.474   2.773  0.5667 -0.1558  0.9822
17557TIP3   OH274085   3.458   5.224   0.337  0.1202  0.3595 -0.5675
17557TIP3    H174086   3.409   5.302   0.365  2.0033  0.7581  1.8387
17557TIP3    H274087   3.393   5.168   0.295 -2.1448  1.4264  1.3793
17558TIP3   OH274088   0.791   3.948   1.791 -0.3796  0.4190 -0.1948
17558TIP3    H174089   0.825   3.979   1.707  0.5653  0.9846  0.3955
17558TIP3    H274090   0.824   4.010   1.855  0.9551 -1.3982  0.9274
17559TIP3   OH274091   0.319   2.715   5.387  0.6285 -0.1573  0.1144
17559TIP3    H174092   0.262   2.729   5.463 -0.5931  0.9733 -0.9866
17559TIP3    H274093   0.259   2.691   5.316  1.6198  0.0917 -0.8197
17560TIP3   OH274094   5.544   2.089  14.290  0.2148  0.7344  0.5184
17560TIP3    H174095   5.599   2.012  14.274  0.8113  1.1157  0.7268
17560TIP3    H274096   5.595   2.143  14.351 -0.0588  1.4499  0.1205
17561TIP3   OH274097   2.692   4.096   4.446 -0.1936 -0.0011 -0.1562
17561TIP3    H174098   2.752   4.034   4.486 -0.7569  0.1847  1.0057
17561TIP3    H274099   2.694   4.173   4.503 -1.4167  0.0604 -0.1717
17562TIP3   OH274100   6.738   2.050   0.404  0.2208 -0.1546  0.1441
17562TIP3    H174101   6.668   2.102   0.365 -1.7264 -2.4511  0.5226
17562TIP3    H274102   6.716   2.045   0.497  1.8851  0.6124  0.6097
17563TIP3   OH274103   3.488   3.254  13.404 -0.5477  0.7891 -0.4393
17563TIP3    H174104   3.420   3.261  13.337 -1.5366  1.5360  0.6315
17563TIP3    H274105   3.498   3.160  13.418  0.6234  0.5606 -2.5839
17564TIP3   OH274106   4.459   2.012  15.964 -0.3592 -0.4092 -0.3446
17564TIP3    H174107   4.531   2.056  15.918 -0.1708  0.3662  0.6784
17564TIP3    H274108   4.399   1.986  15.895 -0.8090  2.0699 -0.9162
17565TIP3   OH274109   3.303   5.949  16.520 -0.2146  0.1639  0.8185
17565TIP3    H174110   3.315   6.041  16.494  0.2893  0.8264  3.2316
17565TIP3    H274111   3.262   5.908  16.444 -2.9643  3.0088  0.6333
17566TIP3   OH274112   6.287   4.121   0.442 -0.1202  0.1721  0.3827
17566TIP3    H174113   6.347   4.087   0.376 -1.6856 -1.2189 -0.3388
17566TIP3    H274114   6.230   4.181   0.394 -0.6772 -0.1349  0.6606
17567TIP3   OH274115   3.213   3.515  14.278 -0.6452  0.2092  0.2717
17567TIP3    H174116   3.301   3.509  14.314 -0.7294  1.4023  0.6720
17567TIP3    H274117   3.205   3.605  14.247 -1.7268  0.1149  0.2545
17568TIP3   OH274118   4.286   5.275  11.815 -0.1656  0.0796 -0.1956
17568TIP3    H174119   4.374   5.254  11.781 -0.6094 -2.9220  0.4016
17568TIP3    H274120   4.294   5.366  11.845  2.9947 -0.4028  0.6511
17569TIP3   OH274121   5.414   2.973   3.150  0.0639  0.2075 -0.3728
17569TIP3    H174122   5.324   2.963   3.117  0.4280 -2.5537 -0.6749
17569TIP3    H274123   5.404   3.022   3.232 -1.7862 -0.5022 -0.1387
17570TIP3   OH274124   1.071   3.187  14.778 -0.0053  0.4625  0.0451
17570TIP3    H174125   1.136   3.144  14.723 -1.3093 -0.8620 -0.5158
17570TIP3    H274126   0.987   3.163  14.739 -0.8913  0.7818  1.6919
17571TIP3   OH274127   4.464   0.075   6.523  0.4235  0.2329 -0.2870
17571TIP3    H174128   4.524   0.111   6.457  2.3538 -0.6940  0.9227
17571TIP3    H274129   4.428  -0.004   6.482  1.0618  0.0535 -0.5049
17572TIP3   OH274130   0.778   5.736   4.734  0.1157 -0.0724 -0.1574
17572TIP3    H174131   0.796   5.700   4.821 -1.8169 -0.8952 -0.0671
17572TIP3    H274132   0.689   5.706   4.714  0.5713  0.0124 -2.4606
17573TIP3   OH274133   3.064   0.509   1.145 -0.1334  0.5499 -0.0013
17573TIP3    H174134   3.081   0.586   1.090  4.9749  0.2931  0.9738
17573TIP3    H274135   3.135   0.448   1.124 -1.3427 -1.9068  2.7190
17574TIP3   OH274136   2.331   3.769   0.506  0.7513  0.0319  0.0937
17574TIP3    H174137   2.291   3.693   0.549  1.5111 -0.4899 -0.1098
17574TIP3    H274138   2.267   3.839   0.518 -0.0579 -0.6906  0.0959
17575TIP3   OH274139   6.664   4.484   4.211 -0.1014 -0.2097  0.0307
17575TIP3    H174140   6.715   4.440   4.279  1.2137 -2.1941 -2.1185
17575TIP3    H274141   6.627   4.412   4.159 -1.0238  1.2368 -1.3755
17576TIP3   OH274142   0.725   0.149  14.077  0.5775  0.0910 -0.4183
17576TIP3    H174143   0.738   0.097  13.998  1.1094  0.8998 -0.8685
17576TIP3    H274144   0.639   0.189  14.066  0.5760  0.0627 -0.5075
17577TIP3   OH274145   5.721   1.968   5.964  0.0883  0.9745  0.2187
17577TIP3    H174146   5.764   2.020   6.031 -0.8623  1.0627  0.7774
17577TIP3    H274147   5.714   2.027   5.888  0.2260  1.2205  0.3975
17578TIP3   OH274148   4.296   4.773  12.535  0.1860 -0.0013 -0.3394
17578TIP3    H174149   4.221   4.719  12.513  0.5861 -0.4004 -0.7595
17578TIP3    H274150   4.271   4.820  12.614 -0.8462  0.5617 -1.0041
17579TIP3   OH274151   3.783   4.038   2.567  0.0254  0.5749  0.4087
17579TIP3    H174152   3.728   3.962   2.588  0.4519 -0.1019 -0.8870
17579TIP3    H274153   3.776   4.048   2.472  1.8160  0.7225  0.2684
17580TIP3   OH274154   1.266   4.930   4.904  0.1719  0.1449  0.0826
17580TIP3    H174155   1.306   4.872   4.969  0.7182  0.5243  0.0883
17580TIP3    H274156   1.255   4.875   4.826 -2.8382 -1.0387  1.2567
17581TIP3   OH274157   3.447   0.039   0.918 -0.1719  0.1039 -0.0968
17581TIP3    H174158   3.425   0.055   1.009 -1.4696  1.7462 -0.6776
17581TIP3    H274159   3.490   0.119   0.889 -0.3629 -0.1463 -1.1023
17582TIP3   OH274160   1.361   5.089  17.135 -0.0021  0.1767 -0.9040
17582TIP3    H174161   1.404   5.170  17.164 -0.2180 -0.1076  0.2061
17582TIP3    H274162   1.433   5.027  17.123 -0.0418 -0.1203  0.3766
17583TIP3   OH274163   2.631   3.455   5.449  0.5505 -0.0847 -0.3737
17583TIP3    H174164   2.663   3.421   5.365 -0.7547  1.6974 -1.6168
17583TIP3    H274165   2.592   3.379   5.492 -0.6862 -0.5985 -2.3259
17584TIP3   OH274166   4.600   3.139  14.736 -0.4791  0.1968 -0.1499
17584TIP3    H174167   4.611   3.065  14.676 -0.3652  2.6296 -3.2733
17584TIP3    H274168   4.508   3.136  14.762 -0.9289 -0.0184 -1.7132
17585TIP3   OH274169   4.260   2.692  13.417 -0.0368 -0.0610 -0.1053
17585TIP3    H174170   4.340   2.669  13.465 -0.5435  0.9111  1.2369
17585TIP3    H274171   4.244   2.617  13.360  1.4898 -0.5346  0.0577
17586TIP3   OH274172   1.696   0.059  10.724 -0.3299 -0.6950 -0.2903
17586TIP3    H174173   1.666  -0.027  10.693 -1.3144 -0.1840 -0.7821
17586TIP3    H274174   1.689   0.116  10.647  3.2742 -0.8616 -0.8165
17587TIP3   OH274175   1.836   5.777   4.241  0.7390  0.0519 -0.5807
17587TIP3    H174176   1.886   5.826   4.306 -1.0958  2.6829 -1.0564
17587TIP3    H274177   1.783   5.716   4.293 -0.9150  2.3174  0.5035
17588TIP3   OH274178   5.093   2.979  12.458  0.0078 -0.4548  0.0219
17588TIP3    H174179   5.111   2.896  12.501 -2.5576 -0.5145  1.0643
17588TIP3    H274180   5.122   3.046  12.520 -0.8647 -0.5695  0.5669
17589TIP3   OH274181   1.445   0.117   5.432 -0.4152  0.2576 -0.3731
17589TIP3    H174182   1.514   0.166   5.477  0.1939 -0.1995 -0.7949
17589TIP3    H274183   1.414   0.054   5.496  1.3436 -1.2636 -0.9811
17590TIP3   OH274184   5.756   5.298   0.862  0.7663 -0.0601 -0.0936
17590TIP3    H174185   5.762   5.347   0.780 -0.4857 -0.7160 -0.5803
17590TIP3    H274186   5.770   5.364   0.930 -1.1509  1.0535 -0.7288
17591TIP3   OH274187   5.768   1.285   0.988  0.0417 -0.6626  0.0853
17591TIP3    H174188   5.745   1.378   0.988  0.9199 -0.4374  0.0055
17591TIP3    H274189   5.688   1.241   1.016 -1.1839 -0.1080 -2.3570
17592TIP3   OH274190   2.991   0.840   0.972 -0.0083  0.1363 -0.2944
17592TIP3    H174191   2.966   0.898   0.899 -0.9166 -1.1780 -1.0436
17592TIP3    H274192   2.948   0.757   0.953 -0.6708 -0.0888  2.0163
17593TIP3   OH274193   5.431   4.766   6.291 -0.4671  0.1900  0.3095
17593TIP3    H174194   5.484   4.772   6.370  0.7053  1.2133 -0.5331
17593TIP3    H274195   5.494   4.770   6.219 -1.3969 -2.1671 -0.6759
17594TIP3   OH274196   1.626   6.241   1.861  0.4355 -0.4327  0.2228
17594TIP3    H174197   1.602   6.326   1.897  2.0928  0.5981 -1.0220
17594TIP3    H274198   1.683   6.202   1.927 -0.9326 -0.9165  1.1317
17595TIP3   OH274199   3.187   4.524   3.378  0.8305  0.0315  0.3579
17595TIP3    H174200   3.109   4.575   3.357  1.1654  0.6654  0.6682
17595TIP3    H274201   3.153   4.440   3.410  0.2832  0.2477  0.3389
17596TIP3   OH274202   0.894   4.372  15.381  0.3367 -0.3606 -0.4465
17596TIP3    H174203   0.966   4.409  15.330  0.1006  0.2062 -0.3709
17596TIP3    H274204   0.933   4.352  15.467 -0.0104  1.5950  0.1852
17597TIP3   OH274205   2.279   4.407  16.045  0.7118  0.0932 -0.0669
17597TIP3    H174206   2.221   4.350  15.994  0.8693 -0.2900  0.1845
17597TIP3    H274207   2.225   4.483  16.066  0.2193 -0.3765  0.3800
17598TIP3   OH274208   0.384   2.962  16.380  0.0722 -0.2299  0.0765
17598TIP3    H174209   0.434   3.043  16.367 -1.2223  0.5360 -0.2649
17598TIP3    H274210   0.441   2.893  16.347  0.8807  0.6419 -0.3736
17599TIP3   OH274211   0.813   4.575   2.365 -0.4284 -0.0452 -0.5509
17599TIP3    H174212   0.802   4.528   2.448  0.8280 -0.4302 -0.5884
17599TIP3    H274213   0.850   4.659   2.390  2.9319 -1.3565 -0.9493
17600TIP3   OH274214   6.717   1.864   2.398 -0.3486 -0.2995 -0.3405
17600TIP3    H174215   6.786   1.896   2.339 -1.2351  0.5277 -0.9541
17600TIP3    H274216   6.732   1.910   2.480 -0.0982 -0.2176 -0.4311
17601TIP3   OH274217   4.584   2.280  15.206  0.4158 -0.6700 -0.0191
17601TIP3    H174218   4.626   2.195  15.191  0.4540 -1.0271  2.0895
17601TIP3    H274219   4.653   2.335  15.242 -0.0071 -0.1842  0.0490
17602TIP3   OH274220   6.619   3.452   4.791 -0.4466 -0.4748  0.2410
17602TIP3    H174221   6.673   3.522   4.755 -2.4569  0.3670 -1.2253
17602TIP3    H274222   6.675   3.410   4.856  1.5704  1.0683 -0.4368
17603TIP3   OH274223   1.278   0.771   3.632  0.5284 -0.0907 -0.0287
17603TIP3    H174224   1.324   0.854   3.619 -0.1795  0.0670 -1.6240
17603TIP3    H274225   1.338   0.704   3.599 -0.3729  0.1226 -2.1963
17604TIP3   OH274226   0.970   2.577  16.213 -0.0870 -1.2335 -0.3557
17604TIP3    H174227   0.956   2.490  16.250 -1.8434 -0.7077  0.2670
17604TIP3    H274228   1.015   2.626  16.282  0.3648 -1.4754 -0.4795
17605TIP3   OH274229   1.740   1.024   3.810 -0.3552 -0.5559  0.3149
17605TIP3    H174230   1.796   1.071   3.749  0.6771 -1.4971  0.5197
17605TIP3    H274231   1.801   0.975   3.866 -1.3839 -1.8564  0.3253
17606TIP3   OH274232   6.747   5.407   2.953  0.3070  0.0217  0.1191
17606TIP3    H174233   6.709   5.351   3.021  0.8745 -2.3458 -1.4651
17606TIP3    H274234   6.769   5.488   2.998 -2.6150 -0.1671  1.9982
17607TIP3   OH274235   2.726   0.482  14.823 -0.4077 -0.2279  0.3826
17607TIP3    H174236   2.758   0.429  14.896 -0.8600  1.0945  1.5698
17607TIP3    H274237   2.641   0.514  14.852 -0.2037  1.0339 -0.3787
17608TIP3   OH274238   2.778   6.005   3.306 -0.0409 -0.1973 -0.5712
17608TIP3    H174239   2.713   5.940   3.331 -0.5844  0.4481 -0.3188
17608TIP3    H274240   2.758   6.082   3.359  1.2557 -0.1725 -0.0998
17609TIP3   OH274241   0.766   6.072  12.702  0.0665 -0.2461 -0.0641
17609TIP3    H174242   0.676   6.041  12.702  0.0440 -0.1829 -1.2596
17609TIP3    H274243   0.775   6.124  12.622  1.1744 -0.2775  0.0215
17610TIP3   OH274244   5.411   2.903  15.513 -0.0494 -0.1999 -0.1521
17610TIP3    H174245   5.505   2.925  15.511  0.1147 -0.8879 -0.2369
17610TIP3    H274246   5.369   2.980  15.549  0.6362 -0.1463  0.5437
17611TIP3   OH274247   3.272   5.353  17.012 -0.3222  1.3040  0.1555
17611TIP3    H174248   3.269   5.438  16.967  3.3808  1.7294  0.5827
17611TIP3    H274249   3.301   5.291  16.945 -4.0359  0.0958 -0.4343
17612TIP3   OH274250   6.606   3.051   5.173  0.0635  0.4150 -0.0455
17612TIP3    H174251   6.681   2.993   5.185 -0.3698 -0.2352 -0.4691
17612TIP3    H274252   6.585   3.044   5.080 -0.3149  0.8498  0.0064
17613TIP3   OH274253   2.081   4.328  14.052 -0.0714  0.3417  0.6302
17613TIP3    H174254   2.055   4.352  13.962  0.9778 -0.1378  0.1919
17613TIP3    H274255   2.075   4.411  14.100  1.0830  0.9791 -0.2947
17614TIP3   OH274256   2.955   5.539   0.992 -0.3047  0.5285 -0.1648
17614TIP3    H174257   2.976   5.491   1.072  1.1631  0.0999 -0.7931
17614TIP3    H274258   3.040   5.563   0.955 -0.9451  0.2275 -1.8917
17615TIP3   OH274259   1.932   6.346  10.483  0.0323  0.0945 -0.2811
17615TIP3    H174260   2.020   6.311  10.474 -0.2034 -0.3701 -0.8718
17615TIP3    H274261   1.943   6.428  10.530  0.8422  0.2988 -0.8125
17616TIP3   OH274262   4.989   0.690  12.478  0.7205  0.2234 -0.2249
17616TIP3    H174263   4.923   0.667  12.412 -0.1297 -1.8267  1.3079
17616TIP3    H274264   4.939   0.730  12.549  1.4918  1.2837 -0.2625
17617TIP3   OH274265   0.160   3.164  11.133  0.3844 -0.4060  0.0349
17617TIP3    H174266   0.095   3.146  11.065 -0.3788  0.2820  0.5818
17617TIP3    H274267   0.199   3.248  11.107  2.0965 -1.5237 -1.0871
17618TIP3   OH274268   1.367   0.528   4.139 -0.2858  0.3868  0.7992
17618TIP3    H174269   1.458   0.546   4.162 -0.2362  0.5160  0.5052
17618TIP3    H274270   1.346   0.447   4.185  0.5521 -0.6607 -0.6318
17619TIP3   OH274271   3.670   4.484   2.258 -0.4377  0.0642  0.1588
17619TIP3    H174272   3.587   4.474   2.211  0.6757 -0.9617 -1.6363
17619TIP3    H274273   3.685   4.399   2.298  0.6198 -0.3205 -1.0190
17620TIP3   OH274274   2.894   4.315   4.998  0.4722 -0.2838 -0.2312
17620TIP3    H174275   2.845   4.376   5.053  0.0261 -0.0759 -0.8537
17620TIP3    H274276   2.986   4.339   5.011  0.4536 -0.9605  1.2747
17621TIP3   OH274277   5.353   6.293  13.309 -0.0960 -0.5199 -0.0172
17621TIP3    H174278   5.351   6.200  13.289  1.2034 -0.1006 -2.1400
17621TIP3    H274279   5.420   6.330  13.252 -0.1154  1.6201  1.2643
17622TIP3   OH274280   6.629   3.088  17.133  0.5073 -1.0069  0.5713
17622TIP3    H174281   6.572   3.164  17.121  1.0752 -0.8933 -1.8158
17622TIP3    H274282   6.573   3.023  17.175 -0.7169 -0.1090  0.3764
17623TIP3   OH274283   5.530   6.550  16.042 -0.0835 -0.1284  0.6563
17623TIP3    H174284   5.546   6.631  16.090  1.1972  0.8536 -1.3301
17623TIP3    H274285   5.469   6.575  15.973  0.9760 -0.6277 -0.4823
17624TIP3   OH274286   5.949   3.492  11.975  0.1556 -0.2963  0.4410
17624TIP3    H174287   5.909   3.553  12.037  0.6829  0.1256  0.3660
17624TIP3    H274288   5.901   3.505  11.893  0.3537  0.1071  0.3895
17625TIP3   OH274289   5.125   1.378   2.156 -0.4302  0.1676 -0.2392
17625TIP3    H174290   5.147   1.375   2.062 -1.7396  0.5128 -0.5631
17625TIP3    H274291   5.031   1.362   2.159 -0.4618  0.5589  0.9962
17626TIP3   OH274292   2.054   3.700   4.267  0.1493  0.1778 -0.0744
17626TIP3    H174293   2.024   3.741   4.348  1.9508  1.3663 -0.0105
17626TIP3    H274294   2.078   3.772   4.210  3.7772 -0.7498  0.1974
17627TIP3   OH274295   5.607   2.938  13.611  0.2735 -0.4651  0.4379
17627TIP3    H174296   5.513   2.943  13.599  0.4881  0.1202 -1.1770
17627TIP3    H274297   5.637   2.881  13.539  1.1162 -0.8402  1.0775
17628TIP3   OH274298   5.780   4.404  16.653 -0.2943 -0.0971 -0.4486
17628TIP3    H174299   5.713   4.423  16.587 -0.0120  0.3314 -0.6073
17628TIP3    H274300   5.745   4.441  16.734 -0.9466 -1.1968 -0.2074
17629TIP3   OH274301   0.051   4.608   3.794 -0.0197 -0.4630 -0.2670
17629TIP3    H174302   0.001   4.617   3.713  0.8244  0.0653 -0.7373
17629TIP3    H274303   0.114   4.539   3.775  0.1228 -0.3961 -0.0358
17630TIP3   OH274304   5.557   3.235   2.881  0.7010  0.2261 -0.1388
17630TIP3    H174305   5.485   3.173   2.866  2.2069 -0.9862 -2.6894
17630TIP3    H274306   5.544   3.304   2.816  0.5940  1.1900  0.8819
17631TIP3   OH274307   0.769   4.577  11.578  0.1071 -0.1025  0.4435
17631TIP3    H174308   0.864   4.582  11.578  0.0851  0.3571  0.5988
17631TIP3    H274309   0.747   4.543  11.665  0.1315 -0.2292  0.3992
17632TIP3   OH274310   1.958   4.797   5.497 -0.0267 -0.2305  0.1612
17632TIP3    H174311   2.043   4.792   5.541  0.1777 -0.6801 -0.2845
17632TIP3    H274312   1.974   4.850   5.419 -0.9208  2.6635  1.8477
17633TIP3   OH274313   5.891   1.127  11.456  0.1206  0.4551 -0.2808
17633TIP3    H174314   5.925   1.119  11.545 -0.7945  0.8882  0.1073
17633TIP3    H274315   5.934   1.206  11.421  2.2200 -0.9481 -1.0240
17634TIP3   OH274316   2.304   6.632  11.816  0.0782 -0.3410 -0.5065
17634TIP3    H174317   2.370   6.611  11.750  0.8865  0.1734  0.1347
17634TIP3    H274318   2.244   6.557  11.814  1.6891 -1.6895  0.2070
17635TIP3   OH274319   4.895   3.500   1.824  0.6758 -0.2684  0.2793
17635TIP3    H174320   4.975   3.511   1.773  1.7628  0.1934  2.0413
17635TIP3    H274321   4.883   3.584   1.869  1.2244 -1.5194  2.8532
17636TIP3   OH274322   0.430   2.493  11.912 -0.4426 -0.2263  0.1247
17636TIP3    H174323   0.491   2.530  11.847 -0.6491  3.2722  1.8266
17636TIP3    H274324   0.351   2.472  11.861  0.0360  0.7761 -1.0695
17637TIP3   OH274325   3.253   4.841   0.817 -0.3390 -0.2915 -0.1738
17637TIP3    H174326   3.282   4.931   0.800  0.0550 -0.3810  0.0260
17637TIP3    H274327   3.158   4.846   0.811 -0.2501 -0.1766 -1.7153
17638TIP3   OH274328   3.435   2.268  12.529  0.2155 -0.4696 -0.7187
17638TIP3    H174329   3.350   2.247  12.491 -0.3872  0.1027  0.3047
17638TIP3    H274330   3.488   2.298  12.455 -0.7758  0.1195 -1.1880
17639TIP3   OH274331   4.338   0.218  10.840  0.9021  0.3633  0.0277
17639TIP3    H174332   4.254   0.180  10.812 -0.0837  1.9564  0.7483
17639TIP3    H274333   4.388   0.144  10.873  0.4217 -0.8725 -1.9257
17640TIP3   OH274334   4.118   0.078   2.589 -0.3104  0.1346 -0.0744
17640TIP3    H174335   4.052   0.127   2.539 -0.4950 -0.6987 -0.6659
17640TIP3    H274336   4.133  -0.001   2.537 -1.0055 -1.0876  1.5502
17641TIP3   OH274337   4.846   3.630   0.777 -0.0011  0.1914 -0.2792
17641TIP3    H174338   4.927   3.673   0.748  0.0675 -0.6972 -1.4187
17641TIP3    H274339   4.805   3.695   0.835  0.8837  1.1625 -0.7147
17642TIP3   OH274340   5.280   6.662  12.329 -0.0333 -0.0070  0.3390
17642TIP3    H174341   5.334   6.601  12.379 -0.1876  0.5059  1.1332
17642TIP3    H274342   5.339   6.694  12.260 -0.2570 -1.8159 -0.7039
17643TIP3   OH274343   2.034   1.233   0.111 -0.0900 -0.6513 -0.4795
17643TIP3    H174344   2.124   1.262   0.125 -0.3260 -0.0184 -0.2720
17643TIP3    H274345   1.992   1.305   0.064 -1.2796  0.3316  1.9795
17644TIP3   OH274346   0.134   0.013  14.556 -0.5620  0.8730 -0.0544
17644TIP3    H174347   0.175   0.049  14.635  0.6129 -1.3978  0.3923
17644TIP3    H274348   0.040   0.026  14.571 -0.3538  0.5258  1.7011
17645TIP3   OH274349   0.286   1.459  17.159 -0.3793  0.1329 -0.3468
17645TIP3    H174350   0.212   1.412  17.195 -1.0808 -0.8067 -2.8862
17645TIP3    H274351   0.270   1.551  17.181 -2.3176 -0.0597 -0.8558
17646TIP3   OH274352   4.050   2.705  16.904 -0.0174 -0.2964 -0.5192
17646TIP3    H174353   4.084   2.639  16.844 -0.6176 -0.5371 -0.6020
17646TIP3    H274354   3.962   2.674  16.925 -1.3474  1.8589 -2.6530
17647TIP3   OH274355   0.546   6.316   3.478 -0.0967 -0.5694 -0.2487
17647TIP3    H174356   0.456   6.300   3.449 -0.1232  0.3327 -0.6847
17647TIP3    H274357   0.541   6.394   3.533  0.4434 -0.4340 -0.3822
17648TIP3   OH274358   2.517   1.551  16.765  0.8569  0.9218 -0.6049
17648TIP3    H174359   2.460   1.610  16.715  0.9620  0.8829 -0.7716
17648TIP3    H274360   2.475   1.465  16.757  1.1303  0.8291 -1.0210
17649TIP3   OH274361   3.361   2.165  11.626  0.2872  0.6082  0.3530
17649TIP3    H174362   3.377   2.172  11.720 -2.1246  0.5758  0.8008
17649TIP3    H274363   3.392   2.078  11.603  2.5167  1.2633  0.7420
17650TIP3   OH274364   0.660   1.501  12.361 -0.0675  0.2102  0.1416
17650TIP3    H174365   0.574   1.503  12.318 -0.8113  0.1448  1.6109
17650TIP3    H274366   0.680   1.408  12.372  1.2154  0.1706 -2.1741
17651TIP3   OH274367   1.190   3.874   4.627  0.0966 -0.3571  0.1031
17651TIP3    H174368   1.130   3.838   4.562  1.0434  0.5676 -1.3091
17651TIP3    H274369   1.228   3.796   4.669 -2.8836 -0.9580  1.8381
17652TIP3   OH274370   0.451   5.999   3.002  0.1456 -0.3343 -0.1619
17652TIP3    H174371   0.493   5.994   2.916 -0.4703  1.3635 -0.5680
17652TIP3    H274372   0.375   6.056   2.989 -0.1884 -0.3943  1.4184
17653TIP3   OH274373   2.888   4.853  14.178  0.1094 -0.4655 -0.2008
17653TIP3    H174374   2.882   4.788  14.248  1.4210 -1.9957 -1.4619
17653TIP3    H274375   2.830   4.924  14.206 -0.0900 -1.4437  1.9870
17654TIP3   OH274376   0.735   3.914   2.179  0.0327 -0.2936  0.2843
17654TIP3    H174377   0.771   3.853   2.244 -0.7490  0.0683  1.0743
17654TIP3    H274378   0.648   3.935   2.213  0.6112  1.9324  0.4672
17655TIP3   OH274379   3.725   1.850   0.927  0.2523 -0.3632  0.2055
17655TIP3    H174380   3.801   1.908   0.926 -0.1527  0.1689  0.3398
17655TIP3    H274381   3.691   1.857   1.016 -2.0349  2.1104 -0.8249
17656TIP3   OH274382   3.663   6.595   3.532  0.4328 -0.1582  0.3839
17656TIP3    H174383   3.655   6.637   3.618 -0.6947 -1.4675  0.9342
17656TIP3    H274384   3.578   6.555   3.517  1.2461 -1.6010 -0.4753
17657TIP3   OH274385   0.029   1.206  16.693  0.1547 -0.2273 -0.1194
17657TIP3    H174386  -0.013   1.127  16.726  0.7884 -0.2600  0.6105
17657TIP3    H274387  -0.036   1.275  16.706 -0.9107 -0.8495 -1.9703
17658TIP3   OH274388   3.537   0.645   0.624 -1.0660  0.1096 -0.0823
17658TIP3    H174389   3.503   0.635   0.713  0.5955  1.6615  0.7567
17658TIP3    H274390   3.624   0.684   0.635 -1.0675  0.8782 -2.3957
17659TIP3   OH274391   2.843   3.915  15.419 -1.1771 -0.4001 -0.5787
17659TIP3    H174392   2.810   3.993  15.464  0.7665 -0.4478  1.0029
17659TIP3    H274393   2.856   3.943  15.328 -2.0226  0.6426 -0.3850
17660TIP3   OH274394   1.578   1.841  11.789  0.2600 -0.1007  0.2266
17660TIP3    H174395   1.558   1.932  11.766 -0.3702 -0.3211 -0.0917
17660TIP3    H274396   1.589   1.843  11.885 -0.0211  0.2616  0.2526
17661TIP3   OH274397   1.064   6.296   2.258  0.0092  0.4725 -0.5149
17661TIP3    H174398   1.131   6.228   2.263 -0.4948 -0.0177 -0.4014
17661TIP3    H274399   1.113   6.376   2.240  0.5201 -0.0895 -1.7634
17662TIP3   OH274400   3.981   6.469  15.404 -0.8012  0.0485 -0.5328
17662TIP3    H174401   4.047   6.537  15.418 -0.0192 -0.6077 -0.9686
17662TIP3    H274402   4.005   6.400  15.465 -0.9994 -0.2576 -0.8012
17663TIP3   OH274403   0.461   5.927   4.555  0.4502 -0.1102  0.1784
17663TIP3    H174404   0.551   5.947   4.528  1.2053 -0.3708  2.3590
17663TIP3    H274405   0.409   6.000   4.521  1.5506  0.2702 -0.7271
17664TIP3   OH274406   2.804   1.162  16.231  0.6433 -0.1142  0.1754
17664TIP3    H174407   2.848   1.245  16.215 -0.8579  0.4223 -1.3940
17664TIP3    H274408   2.712   1.179  16.209 -0.0017 -1.7191  1.5014
17665TIP3   OH274409   1.371   4.347  16.488 -0.7288 -0.3310  0.4433
17665TIP3    H174410   1.306   4.416  16.476  0.4699  0.8957  0.8194
17665TIP3    H274411   1.320   4.267  16.497 -2.0577  0.1844 -2.0903
17666TIP3   OH274412   4.670   0.792  15.372 -0.3681  0.1354  0.2708
17666TIP3    H174413   4.604   0.860  15.362  0.0595  0.5270  0.0915
17666TIP3    H274414   4.684   0.785  15.467 -1.1207 -0.3921  0.3440
17667TIP3   OH274415   1.773   2.725  13.217 -0.4684 -0.3883 -0.4337
17667TIP3    H174416   1.716   2.656  13.182  0.2944 -0.8757 -0.7217
17667TIP3    H274417   1.735   2.744  13.303 -0.4396 -1.4714 -0.1667
17668TIP3   OH274418   4.357   5.962  14.197  0.9193  0.5974  0.2931
17668TIP3    H174419   4.369   5.987  14.288 -1.3959 -0.6544  0.9656
17668TIP3    H274420   4.384   5.870  14.194  1.1434  0.6796 -0.3278
17669TIP3   OH274421   4.139   2.518   3.554  0.0788 -0.2644 -0.4828
17669TIP3    H174422   4.060   2.567   3.533 -1.5358 -1.2370  2.9159
17669TIP3    H274423   4.211   2.578   3.536 -1.6436  1.9670 -0.1124
17670TIP3   OH274424   1.223   4.867  14.785 -0.0276  0.2575  0.6147
17670TIP3    H174425   1.236   4.868  14.690 -0.3338  0.8421  0.5801
17670TIP3    H274426   1.300   4.821  14.818  0.3333  0.4980  0.1232
17671TIP3   OH274427   1.247   2.349  16.108  0.4361 -0.2509 -0.0810
17671TIP3    H174428   1.194   2.329  16.031 -0.3738 -1.5310  0.7867
17671TIP3    H274429   1.251   2.445  16.110  0.1583 -0.2002 -1.4981
17672TIP3   OH274430   2.333   2.583  12.969  0.2600  0.7497  0.1320
17672TIP3    H174431   2.253   2.537  12.997 -1.3140  1.9008 -2.2789
17672TIP3    H274432   2.354   2.640  13.043 -0.0378 -0.9180  1.5623
17673TIP3   OH274433   4.728   5.217  13.455  0.0544  0.0722 -0.5556
17673TIP3    H174434   4.763   5.140  13.411 -1.7758 -0.3999 -1.2466
17673TIP3    H274435   4.637   5.194  13.473  0.1394  1.1678  1.3755
17674TIP3   OH274436   5.860   2.852   6.418 -0.4270  0.1557 -0.9585
17674TIP3    H174437   5.797   2.915   6.383 -0.7903 -0.0205 -0.6191
17674TIP3    H274438   5.876   2.880   6.507  0.1826  0.3565 -1.1329
17675TIP3   OH274439   0.097   6.671  14.859  0.5050  0.2167  0.0320
17675TIP3    H174440   0.125   6.758  14.831 -0.7665  0.5194 -0.3713
17675TIP3    H274441   0.079   6.625  14.777 -3.2607  1.1035  0.2689
17676TIP3   OH274442   5.075   4.608   5.062 -0.5123 -0.5838  0.3599
17676TIP3    H174443   5.156   4.584   5.107  0.7277  1.2266 -0.8040
17676TIP3    H274444   5.080   4.562   4.978 -0.6270 -0.3768  0.2394
17677TIP3   OH274445   3.263   4.619   4.091 -1.2337 -0.1003 -0.1008
17677TIP3    H174446   3.201   4.668   4.144 -0.7585  0.3495  0.0441
17677TIP3    H274447   3.290   4.546   4.148 -0.2159  0.7605  0.5294
17678TIP3   OH274448   1.827   4.707   0.841  0.2560  0.2409  0.6701
17678TIP3    H174449   1.898   4.757   0.800 -0.6538  0.0429 -1.2113
17678TIP3    H274450   1.860   4.684   0.928  3.1610 -1.3100 -0.7854
17679TIP3   OH274451   0.392   3.138  15.553  0.4595  0.2235 -0.1678
17679TIP3    H174452   0.431   3.124  15.467 -2.3410  0.6918 -1.5507
17679TIP3    H274453   0.356   3.227  15.549 -1.1390 -0.3516  0.8852
17680TIP3   OH274454   3.210   2.191   3.779 -0.0874  0.6634 -0.1893
17680TIP3    H174455   3.251   2.150   3.855  1.3135 -0.6330 -1.6058
17680TIP3    H274456   3.277   2.249   3.743 -0.4732  0.7237 -0.8309
17681TIP3   OH274457   3.852   4.048  13.116  0.2709  0.5641  0.0353
17681TIP3    H174458   3.876   3.957  13.136 -1.1405  0.0078 -0.7783
17681TIP3    H274459   3.907   4.071  13.041  0.1332  0.1477 -0.1952
17682TIP3   OH274460   2.825   2.989  11.765 -0.4488 -0.8715 -0.0037
17682TIP3    H174461   2.829   3.038  11.847 -0.6496 -1.6899  0.5062
17682TIP3    H274462   2.887   2.917  11.777 -0.1574 -0.7430 -0.7361
17683TIP3   OH274463   3.399   4.758  15.700  1.0340  0.0795  0.1926
17683TIP3    H174464   3.441   4.688  15.750 -1.5596 -1.2759  0.5517
17683TIP3    H274465   3.397   4.724  15.610 -0.9574 -0.7195  0.5066
17684TIP3   OH274466   4.251   3.873   1.565 -0.3313  0.4566  0.7043
17684TIP3    H174467   4.261   3.952   1.512 -0.7719 -0.6564 -1.0539
17684TIP3    H274468   4.341   3.847   1.587 -0.1238  0.5695 -0.0149
17685TIP3   OH274469   1.142   6.511   1.445 -0.1348 -0.2336  0.7412
17685TIP3    H174470   1.132   6.551   1.359 -1.9315  0.4474  1.2572
17685TIP3    H274471   1.130   6.417   1.429 -0.8955 -0.0638  0.3215
17686TIP3   OH274472   6.215   5.246  16.845  0.0498  0.5301 -0.0722
17686TIP3    H174473   6.182   5.210  16.763 -1.0727  0.8366  0.2306
17686TIP3    H274474   6.176   5.190  16.913  1.2308  0.0806  0.2353
17687TIP3   OH274475   3.930   0.187   2.328  0.0025 -0.4055  0.1237
17687TIP3    H174476   3.845   0.164   2.291 -1.2587 -0.0543  2.7375
17687TIP3    H274477   3.910   0.249   2.397  2.3376 -0.8079  1.1955
17688TIP3   OH274478   0.835   5.167   0.250  0.3083  0.6668 -0.0342
17688TIP3    H174479   0.882   5.214   0.319  0.6736  2.1342 -1.2585
17688TIP3    H274480   0.905   5.128   0.197  0.0861  1.1273 -0.6672
17689TIP3   OH274481   4.939   3.447   2.739 -0.3979 -0.5614  0.6621
17689TIP3    H174482   4.881   3.510   2.780 -0.2145 -0.2385  0.4298
17689TIP3    H274483   5.026   3.469   2.773  0.1501  1.3466 -1.8002
17690TIP3   OH274484   3.290   2.181   1.483 -0.0829  0.1080  0.2171
17690TIP3    H174485   3.272   2.141   1.568  3.3085 -3.0035 -0.4078
17690TIP3    H274486   3.307   2.107   1.425  0.7658  2.2897 -2.3952
17691TIP3   OH274487   5.610   3.115   5.992  0.0885 -0.0331 -0.9852
17691TIP3    H174488   5.639   3.066   5.915  1.6510  1.0064 -1.1018
17691TIP3    H274489   5.627   3.207   5.969 -0.1707  0.3453  0.2855
17692TIP3   OH274490   4.663   6.255  10.552 -0.2336 -0.1055 -0.0719
17692TIP3    H174491   4.578   6.295  10.533 -1.9139 -2.8618  1.2641
17692TIP3    H274492   4.652   6.163  10.528  1.6723 -0.9329  2.0240
17693TIP3   OH274493   4.678   2.242   2.703  0.4974  0.1432 -0.4016
17693TIP3    H174494   4.752   2.182   2.695  0.5119  0.1568 -0.3686
17693TIP3    H274495   4.715   2.329   2.686 -0.0982 -0.1584 -3.5876
17694TIP3   OH274496   1.015   5.692  11.090 -0.1255  0.8387  0.1788
17694TIP3    H174497   0.988   5.601  11.075 -0.6722  1.0939 -0.4427
17694TIP3    H274498   0.951   5.743  11.040 -0.4939  1.6141  1.4443
17695TIP3   OH274499   6.273   2.838   0.614 -0.0928  0.0954 -0.2224
17695TIP3    H174500   6.347   2.866   0.668  0.8229 -2.0382 -0.2905
17695TIP3    H274501   6.210   2.802   0.677  1.5698 -3.6887 -0.5709
17696TIP3   OH274502   2.294   2.081   0.477 -0.3839 -0.2115 -0.3593
17696TIP3    H174503   2.269   2.163   0.520  2.3479  1.1219 -1.2067
17696TIP3    H274504   2.337   2.108   0.396  1.4712 -2.4237 -0.1642
17697TIP3   OH274505   4.634   3.638   3.204 -0.5547 -0.5461 -0.2298
17697TIP3    H174506   4.683   3.705   3.253 -0.5195 -0.5937 -0.1989
17697TIP3    H274507   4.543   3.666   3.208 -0.6877 -1.1018  0.7520
17698TIP3   OH274508   1.786   3.640   2.931 -0.1020 -0.3816 -0.0381
17698TIP3    H174509   1.876   3.610   2.922 -0.1678 -0.9390  1.1124
17698TIP3    H274510   1.743   3.611   2.850  0.9247  0.5646 -0.9271
17699TIP3   OH274511   6.165   2.384   1.405  0.3139 -0.5020 -0.0671
17699TIP3    H174512   6.180   2.462   1.352 -0.6534 -0.5908 -0.4753
17699TIP3    H274513   6.165   2.416   1.496  0.5256 -0.1317 -0.1955
17700TIP3   OH274514   4.993   5.902  12.271 -0.4618  0.2667  0.0217
17700TIP3    H174515   4.993   5.986  12.316 -2.0681  0.6494 -0.6589
17700TIP3    H274516   4.928   5.911  12.201  1.0022 -0.7647 -1.5459
17701TIP3   OH274517   0.558   1.755   2.041 -0.5189  0.4503 -0.3534
17701TIP3    H174518   0.570   1.698   2.117  0.0016  2.1907  0.9217
17701TIP3    H274519   0.545   1.696   1.967  0.6645 -1.3151  0.8204
17702TIP3   OH274520   4.194   6.413  14.588  0.4465  0.3692  0.4540
17702TIP3    H174521   4.219   6.460  14.668  1.1870  1.1131 -0.2212
17702TIP3    H274522   4.169   6.481  14.526 -0.6887 -0.2382  0.2300
17703TIP3   OH274523   5.833   1.028  12.485  0.0640 -0.5167 -0.1902
17703TIP3    H174524   5.818   0.975  12.564  0.2791 -1.3016 -0.6707
17703TIP3    H274525   5.748   1.027  12.440  0.2413 -0.9919 -0.5187
17704TIP3   OH274526   5.633   5.662  16.594  0.2666  0.5541  0.8664
17704TIP3    H174527   5.665   5.573  16.578  0.0923  0.3510  1.6133
17704TIP3    H274528   5.635   5.671  16.689 -1.8913  0.5370  0.9279
17705TIP3   OH274529   0.639   6.149   6.237 -0.3103  0.5225 -0.7312
17705TIP3    H174530   0.545   6.169   6.231 -0.6389 -1.3697 -2.1827
17705TIP3    H274531   0.660   6.162   6.330 -2.0165  0.8562 -0.3719
17706TIP3   OH274532   4.247   6.659  13.260  0.1273  0.5789 -0.0461
17706TIP3    H174533   4.221   6.714  13.186 -0.8958  1.6155  1.0497
17706TIP3    H274534   4.187   6.584  13.256 -0.2073  0.8419 -0.0377
17707TIP3   OH274535   5.586   4.298   2.878 -0.3376  0.4871  0.3191
17707TIP3    H174536   5.493   4.278   2.871  0.1411 -1.4773 -0.8775
17707TIP3    H274537   5.592   4.363   2.948 -2.5502  0.2761  0.7250
17708TIP3   OH274538   6.462   5.617  14.721 -0.4130 -0.5913 -0.3302
17708TIP3    H174539   6.532   5.677  14.750 -1.6267  1.5776 -1.7347
17708TIP3    H274540   6.492   5.586  14.635 -0.6937 -0.4875 -0.4640
17709TIP3   OH274541   6.514   5.151  13.260 -0.2506 -0.1357  0.2943
17709TIP3    H174542   6.604   5.182  13.249 -0.1492 -0.6339 -0.2910
17709TIP3    H274543   6.518   5.058  13.238 -1.1004  0.0667 -0.7551
17710TIP3   OH274544   4.734   5.082  11.227 -0.1677  0.6623 -0.8559
17710TIP3    H174545   4.689   5.003  11.254  1.0854  0.9241  2.2008
17710TIP3    H274546   4.707   5.096  11.136 -0.9926 -2.8068 -1.1840
17711TIP3   OH274547   1.253   2.745  15.060  0.9597  0.4720  0.0351
17711TIP3    H174548   1.289   2.820  15.013 -0.2230  1.8449  1.3049
17711TIP3    H274549   1.187   2.709  15.001 -1.0823  2.6670  0.9021
17712TIP3   OH274550   1.806   6.444  11.453 -0.1484  0.4055 -0.1756
17712TIP3    H174551   1.897   6.414  11.462  0.5059  1.9368 -1.3138
17712TIP3    H274552   1.784   6.483  11.537  0.3109  0.1429  0.0625
17713TIP3   OH274553   2.947   2.362   5.747  0.4596 -0.4433 -0.5446
17713TIP3    H174554   2.969   2.401   5.831 -0.3592 -0.2100 -0.4381
17713TIP3    H274555   2.938   2.269   5.765  0.3390 -0.4000 -0.3902
17714TIP3   OH274556   0.912   3.901   2.700  0.1546 -0.1611  0.2921
17714TIP3    H174557   0.990   3.876   2.649  0.3997  1.7401 -0.2838
17714TIP3    H274558   0.862   3.957   2.641 -1.2152 -0.6381  0.9910
17715TIP3   OH274559   5.170   1.500   0.483 -0.2675 -0.4599  0.1390
17715TIP3    H174560   5.172   1.407   0.505  1.8836 -0.1151  1.5101
17715TIP3    H274561   5.254   1.516   0.440 -0.0754  1.1204  1.0708
17716TIP3   OH274562   5.680   0.977   2.680  0.3894  0.0259  0.2186
17716TIP3    H174563   5.717   1.059   2.711  0.5487  0.0214  0.0433
17716TIP3    H274564   5.655   0.930   2.760  0.4259  0.1836  0.3237
17717TIP3   OH274565   3.938   0.914  14.120 -0.3760  0.1285 -0.0880
17717TIP3    H174566   3.953   0.908  14.025 -1.8209  0.2526 -0.3321
17717TIP3    H274567   3.897   1.000  14.132  0.7687  0.5743  0.7940
17718TIP3   OH274568   5.884   5.358   3.778 -0.1213 -0.5391 -0.5657
17718TIP3    H174569   5.931   5.430   3.736  1.2050 -0.8042  0.4430
17718TIP3    H274570   5.948   5.287   3.782 -0.6533 -0.9528  0.6957
17719TIP3   OH274571   4.260   1.685   5.127  0.0199  0.0071 -0.1311
17719TIP3    H174572   4.324   1.694   5.198 -1.1854 -1.4121  1.1687
17719TIP3    H274573   4.306   1.716   5.049  1.8219  0.3306  1.0393
17720TIP3   OH274574   1.123   5.687  13.763 -0.5608  0.3206  0.4621
17720TIP3    H174575   1.052   5.751  13.768 -0.9954 -0.1511  0.3390
17720TIP3    H274576   1.198   5.737  13.733 -1.6071  0.2045 -2.4875
17721TIP3   OH274577   4.220   2.372   2.525  0.3195 -0.7096 -0.7048
17721TIP3    H174578   4.294   2.335   2.477  1.1809  0.5490 -0.3855
17721TIP3    H274579   4.145   2.318   2.500  1.3640 -2.0860 -0.9385
17722TIP3   OH274580   1.879   1.701   5.883  0.0480  0.0454  0.1672
17722TIP3    H174581   1.891   1.690   5.978 -1.2571  2.2381  0.6162
17722TIP3    H274582   1.784   1.697   5.871  0.3049 -2.7991 -1.4285
17723TIP3   OH274583   4.060   4.681   5.941  0.5867  0.0353  0.2092
17723TIP3    H174584   4.139   4.632   5.916  0.3726 -0.2985  0.1919
17723TIP3    H274585   4.026   4.634   6.017  0.8474  0.6452  0.7052
17724TIP3   OH274586   4.939   0.153  10.882  0.0499  0.3313 -0.4615
17724TIP3    H174587   4.934   0.116  10.794  1.1246  0.1618 -0.4663
17724TIP3    H274588   5.025   0.125  10.914 -1.3120 -1.5952  1.5566
17725TIP3   OH274589   5.481   5.437  16.021  0.2295 -0.1116  0.2193
17725TIP3    H174590   5.540   5.505  15.991  0.5193 -1.0502 -1.4065
17725TIP3    H274591   5.393   5.475  16.014  0.3682 -0.0031 -0.9647
17726TIP3   OH274592   3.451   1.431   5.013 -0.2844 -0.0566 -0.4363
17726TIP3    H174593   3.494   1.468   5.089  1.4767 -0.9833 -0.9612
17726TIP3    H274594   3.357   1.436   5.034  0.2209 -2.1065  2.6229
17727TIP3   OH274595   0.373   1.638  15.409  0.0663  0.1794 -0.9115
17727TIP3    H174596   0.461   1.649  15.444  0.0325  1.4595 -1.2004
17727TIP3    H274597   0.386   1.610  15.319  0.2285  2.3208 -1.5899
17728TIP3   OH274598   3.453   5.065   2.413  0.1230 -0.0207 -0.3467
17728TIP3    H174599   3.438   4.985   2.464 -0.2949 -0.8592 -1.7522
17728TIP3    H274600   3.366   5.101   2.399  0.2944  0.5654  0.1021
17729TIP3   OH274601   6.680   0.984   3.492  0.0657  0.6206  0.0373
17729TIP3    H174602   6.739   1.020   3.558  0.9630  1.8538 -1.4088
17729TIP3    H274603   6.736   0.928   3.437 -0.7176 -0.5947  0.4520
17730TIP3   OH274604   3.432   2.446   5.363  0.1355  0.3919 -0.5068
17730TIP3    H174605   3.472   2.375   5.412 -0.3097 -0.7784 -1.8128
17730TIP3    H274606   3.372   2.488   5.425  1.0993  0.2462  0.5429
17731TIP3   OH274607   2.338   2.988  13.077 -0.0769 -0.1320  0.2984
17731TIP3    H174608   2.346   3.079  13.105 -0.1318 -0.6299  1.9945
17731TIP3    H274609   2.429   2.958  13.068 -0.0539  0.2344 -0.8114
17732TIP3   OH274610   0.368   5.096   1.505  0.2600  0.2903  0.5208
17732TIP3    H174611   0.305   5.097   1.433  1.2772  0.5101 -0.3760
17732TIP3    H274612   0.406   5.009   1.503  0.2843  0.2936  0.8010
17733TIP3   OH274613   2.428   6.152   1.139 -0.3431 -0.7683 -0.2990
17733TIP3    H174614   2.449   6.065   1.104  0.7296 -0.0007 -1.6185
17733TIP3    H274615   2.382   6.196   1.067  0.9942  0.4819 -0.4096
17734TIP3   OH274616   0.837   3.499  11.180  0.8781  0.0221 -0.7960
17734TIP3    H174617   0.804   3.504  11.090  1.3140  1.5368 -0.8781
17734TIP3    H274618   0.932   3.488  11.170  1.1627  2.1448 -0.5127
17735TIP3   OH274619   0.729   4.728   4.502 -0.2393 -0.5111  0.1865
17735TIP3    H174620   0.666   4.749   4.570  0.5708  0.3479  0.6713
17735TIP3    H274621   0.745   4.634   4.512 -1.4646 -0.7383  0.0327
17736TIP3   OH274622   5.434   1.716   1.943  0.7130  0.0537 -0.1939
17736TIP3    H174623   5.382   1.637   1.931 -0.7333  0.9402  0.2011
17736TIP3    H274624   5.464   1.738   1.854 -0.5676  0.1972 -0.6012
17737TIP3   OH274625   2.080   0.491  13.481 -0.0550  0.4042  0.1787
17737TIP3    H174626   2.060   0.414  13.534  0.5311  0.0655 -0.0777
17737TIP3    H274627   2.158   0.529  13.522 -0.1289  0.6518  0.0891
17738TIP3   OH274628   4.295   0.793  15.364 -0.0457 -0.3650  0.4438
17738TIP3    H174629   4.319   0.701  15.381 -0.9856 -0.9634 -1.3146
17738TIP3    H274630   4.235   0.788  15.290 -1.5437  1.5458  1.5113
17739TIP3   OH274631   3.418   3.727   3.518  0.4985  0.5595 -0.2883
17739TIP3    H174632   3.362   3.797   3.553  0.5037 -0.0429  0.9522
17739TIP3    H274633   3.506   3.764   3.516  0.2513  1.1118 -1.1222
17740TIP3   OH274634   4.134   5.314  10.846  0.3460  0.3765 -0.0050
17740TIP3    H174635   4.051   5.350  10.816 -0.3851 -0.7296  0.6445
17740TIP3    H274636   4.159   5.252  10.777  0.5462  0.5900 -0.1227
17741TIP3   OH274637   2.459   2.697  15.691  0.3256  0.1660  0.3076
17741TIP3    H174638   2.515   2.767  15.657 -1.3573  1.6087  0.4479
17741TIP3    H274639   2.465   2.706  15.787 -0.3799  0.5359  0.3223
17742TIP3   OH274640   2.147   2.375   4.840 -0.1152  0.0445 -0.7880
17742TIP3    H174641   2.130   2.416   4.925  1.6281  0.6067 -0.6967
17742TIP3    H274642   2.075   2.313   4.829 -1.6961  1.6842 -0.0167
17743TIP3   OH274643   3.476   0.683  11.971 -1.0250  0.1917  0.3884
17743TIP3    H174644   3.385   0.703  11.948 -0.3983  0.8965 -1.5816
17743TIP3    H274645   3.482   0.588  11.962 -1.7516  0.0440  1.3020
17744TIP3   OH274646   4.328   3.201  11.122  0.3963 -0.0767  0.1357
17744TIP3    H174647   4.242   3.163  11.139 -0.0868  0.9914  0.1245
17744TIP3    H274648   4.371   3.137  11.065  0.2429 -1.3939  1.4892
17745TIP3   OH274649   5.690   0.721   6.308  0.3824  0.6199 -0.0861
17745TIP3    H174650   5.629   0.781   6.350 -1.9992 -0.9624 -1.1296
17745TIP3    H274651   5.755   0.778   6.266 -0.5503  2.3703  0.7914
17746TIP3   OH274652   3.859   1.496   5.211 -0.4431 -0.9796  0.1276
17746TIP3    H174653   3.883   1.571   5.157 -0.2739 -0.4975  0.8674
17746TIP3    H274654   3.814   1.437   5.151 -1.3447  0.0913 -0.2685
17747TIP3   OH274655   1.445   5.996   5.740  0.2312  0.5335  0.2485
17747TIP3    H174656   1.508   6.060   5.705 -0.3000  1.1168  0.3567
17747TIP3    H274657   1.448   5.923   5.678  0.1174  1.0830 -0.4024
17748TIP3   OH274658   4.568   4.486   0.340 -0.0646 -0.3196 -0.2372
17748TIP3    H174659   4.656   4.461   0.311  0.9054  0.1812  2.1205
17748TIP3    H274660   4.555   4.438   0.422 -1.2899  0.9079  0.3141
17749TIP3   OH274661   2.278   6.228  15.253 -0.1704 -0.1697 -0.6435
17749TIP3    H174662   2.262   6.270  15.169  0.8200  0.2794 -0.6073
17749TIP3    H274663   2.361   6.180  15.241  0.4464  0.6337  0.3504
17750TIP3   OH274664   1.579   6.720  11.646  0.2205  0.3123  0.2880
17750TIP3    H174665   1.634   6.708  11.724  0.3889 -0.6926  0.0315
17750TIP3    H274666   1.491   6.734  11.681 -0.0986 -2.2850  0.6701
17751TIP3   OH274667   0.669   4.149   4.219  0.0237  0.4223 -0.0973
17751TIP3    H174668   0.712   4.230   4.248 -0.0949 -0.0154  1.3557
17751TIP3    H274669   0.609   4.177   4.149 -1.1303  1.8490  1.4128
17752TIP3   OH274670   2.956   5.358  16.119  0.1409  0.4254  0.1369
17752TIP3    H174671   2.974   5.402  16.035 -1.0896  0.6879  0.0067
17752TIP3    H274672   3.017   5.284  16.120 -0.6542 -0.2787 -1.5450
17753TIP3   OH274673   2.005   5.192   4.268 -0.5860 -0.1294 -0.0726
17753TIP3    H174674   1.937   5.242   4.312  0.6047  1.2378  0.2450
17753TIP3    H274675   2.052   5.147   4.339 -1.7986 -1.9399 -0.3680
17754TIP3   OH274676   1.324   0.366   1.611 -0.6167  0.4392 -0.3279
17754TIP3    H174677   1.341   0.449   1.657 -1.8148  0.5705 -0.1090
17754TIP3    H274678   1.410   0.340   1.578 -0.1399  1.5347 -0.0076
17755TIP3   OH274679   4.227   0.285  13.096 -0.2647 -0.5210 -0.0646
17755TIP3    H174680   4.244   0.320  13.008 -0.7323 -2.5992 -1.0293
17755TIP3    H274681   4.254   0.354  13.155  0.0492  0.9389 -1.8599
17756TIP3   OH274682   2.754   6.103   4.550 -0.5371  0.0894 -0.1072
17756TIP3    H174683   2.824   6.153   4.507 -0.8816  1.4283  0.8273
17756TIP3    H274684   2.768   6.013   4.523  1.1776  0.4409 -0.4597
17757TIP3   OH274685   1.895   2.441  15.217 -0.1451  0.0872  0.2141
17757TIP3    H174686   1.809   2.465  15.251  0.2302  1.3253  0.3445
17757TIP3    H274687   1.913   2.354  15.252 -1.4796 -0.3017 -0.0733
17758TIP3   OH274688   1.838   0.919  11.833 -0.6913  0.1916 -1.1957
17758TIP3    H174689   1.781   0.965  11.772 -0.9461 -0.9744 -1.8621
17758TIP3    H274690   1.925   0.925  11.794 -0.4972  1.2417 -0.6086
17759TIP3   OH274691   1.114   6.678   1.208  0.5184  0.1179 -0.0478
17759TIP3    H174692   1.158   6.754   1.246  1.3007  0.5840 -1.8248
17759TIP3    H274693   1.141   6.678   1.116 -0.3882 -1.6507 -0.3409
17760TIP3   OH274694   0.738   1.888  10.924 -0.2664 -0.1369  0.1980
17760TIP3    H174695   0.749   1.983  10.921 -0.2170 -0.1571 -0.5781
17760TIP3    H274696   0.789   1.860  10.999  1.1296  0.2660 -0.5865
17761TIP3   OH274697   0.944   6.052  16.956 -0.0619 -0.4785  0.5011
17761TIP3    H174698   0.859   6.090  16.978  0.3137  0.9408 -0.4351
17761TIP3    H274699   0.992   6.123  16.913  1.3621 -1.4550  0.4247
17762TIP3   OH274700   3.059   4.531  11.315  0.1800  0.1723 -0.0947
17762TIP3    H174701   3.020   4.619  11.320  1.5649  0.7481  1.0007
17762TIP3    H274702   2.990   4.473  11.348 -0.1678  1.0627  0.7945
17763TIP3   OH274703   2.784   4.219  16.254  0.5840  0.2124 -0.3129
17763TIP3    H174704   2.765   4.303  16.214  1.3459  1.1660  1.2888
17763TIP3    H274705   2.878   4.206  16.240  0.8935  0.6403  1.3026
17764TIP3   OH274706   2.825   4.860   4.022  0.0749 -0.9762  0.0111
17764TIP3    H174707   2.874   4.853   3.940 -2.0701 -0.0707 -1.3931
17764TIP3    H274708   2.766   4.934   4.008 -0.7541 -1.2058  2.1626
17765TIP3   OH274709   4.373   2.776  13.076  0.2135 -0.0571 -0.0026
17765TIP3    H174710   4.318   2.848  13.046  0.5567 -0.1373 -0.8217
17765TIP3    H274711   4.315   2.722  13.129 -0.2099  0.4680  0.0713
17766TIP3   OH274712   4.828   6.280   5.255 -0.1324 -0.4095  0.3348
17766TIP3    H174713   4.759   6.306   5.193  0.0497 -0.5150  0.0871
17766TIP3    H274714   4.805   6.190   5.279 -0.3550 -0.2748  0.6311
17767TIP3   OH274715   1.878   2.869   1.614  0.4036  0.2865  0.1915
17767TIP3    H174716   1.949   2.809   1.636  0.5984  1.0345  1.6893
17767TIP3    H274717   1.919   2.955   1.614 -0.1461  0.5483 -0.6464
17768TIP3   OH274718   1.512   4.565  14.932 -0.5523  0.3720  0.2257
17768TIP3    H174719   1.419   4.582  14.917 -1.2695 -1.5021  2.3770
17768TIP3    H274720   1.519   4.470  14.936  1.6959  0.4398 -1.1802
17769TIP3   OH274721   1.149   4.116  12.305 -0.2532  0.1919  0.1366
17769TIP3    H174722   1.081   4.149  12.363  0.6663 -1.1997  2.0560
17769TIP3    H274723   1.143   4.172  12.227 -3.5281  0.1022  0.2637
17770TIP3   OH274724   2.071   5.337   3.089  0.4150  0.0751  0.3040
17770TIP3    H174725   2.093   5.413   3.035 -1.3904 -0.1568 -0.7781
17770TIP3    H274726   2.140   5.273   3.069  2.1995  1.5523  1.5602
17771TIP3   OH274727   0.511   4.924   3.541  0.0574 -0.7555 -0.0167
17771TIP3    H174728   0.597   4.939   3.582 -1.0061 -2.1338  2.8228
17771TIP3    H274729   0.450   4.921   3.614 -2.3172 -0.6054 -1.9596
17772TIP3   OH274730   3.494   0.454  10.452  0.0208 -0.3158  0.3539
17772TIP3    H174731   3.419   0.412  10.493  0.4585 -1.9390 -0.4197
17772TIP3    H274732   3.489   0.427  10.360  0.2780  1.4316 -0.1940
17773TIP3   OH274733   4.518   1.410  11.890 -0.1724  0.2865  0.0119
17773TIP3    H174734   4.600   1.422  11.842 -0.3772 -1.4468 -0.8106
17773TIP3    H274735   4.450   1.434  11.827 -0.3295  0.9574  0.4357
17774TIP3   OH274736   1.019   0.377  11.026  0.5067  0.3035 -0.3841
17774TIP3    H174737   0.983   0.388  10.938  0.3967 -0.0023 -0.3803
17774TIP3    H274738   0.943   0.354  11.080  1.0093 -2.4643 -0.7824
17775TIP3   OH274739   4.545   2.718  12.856 -0.2832  0.3607  0.2314
17775TIP3    H174740   4.477   2.753  12.913 -1.8008  1.0290 -1.9281
17775TIP3    H274741   4.512   2.633  12.828  0.5089 -0.0221  0.4371
17776TIP3   OH274742   1.029   6.136   2.594  0.2732 -0.3361  0.4278
17776TIP3    H174743   0.966   6.118   2.524  0.4032 -1.0045  0.4751
17776TIP3    H274744   1.014   6.228   2.617  0.7236  0.0978 -0.9641
17777TIP3   OH274745   1.680   2.038   2.200  0.3273  0.7971  0.5163
17777TIP3    H174746   1.675   2.024   2.294 -0.5456 -3.0253 -0.0015
17777TIP3    H274747   1.609   2.099   2.181 -1.2885 -0.5629  2.0013
17778TIP3   OH274748   6.303   3.171   0.757 -0.2555  0.1990  0.5241
17778TIP3    H174749   6.358   3.129   0.690 -0.4739 -0.6241  0.8600
17778TIP3    H274750   6.296   3.106   0.827 -0.3684  0.9020  1.1725
17779TIP3   OH274751   5.277   6.234   2.203 -0.2176  0.0585  0.0989
17779TIP3    H174752   5.215   6.224   2.130 -1.2452  0.3268  0.9274
17779TIP3    H274753   5.274   6.150   2.248  0.1267  0.0261  0.0618
17780TIP3   OH274754   0.587   2.059  14.508 -0.2347  0.5135 -0.6534
17780TIP3    H174755   0.614   1.970  14.487  1.2071  0.7221  0.2455
17780TIP3    H274756   0.509   2.049  14.562  1.4123 -0.3076  1.6450
17781TIP3   OH274757   4.883   1.877   5.410  0.0036  0.3332  0.3250
17781TIP3    H174758   4.836   1.806   5.454 -0.6154 -1.1987 -2.6156
17781TIP3    H274759   4.974   1.847   5.406 -0.0474  0.2050  0.0885
17782TIP3   OH274760   1.793   0.800   1.446 -0.6695 -0.1164 -0.5552
17782TIP3    H174761   1.782   0.866   1.516  2.4525  0.5984 -0.6885
17782TIP3    H274762   1.782   0.850   1.365 -0.1212 -0.1141 -0.6289
17783TIP3   OH274763   2.373   1.791   3.877  0.3312  0.2882  0.6065
17783TIP3    H174764   2.326   1.868   3.912  0.1384  0.4367  0.0242
17783TIP3    H274765   2.456   1.825   3.846  0.0197  0.3636 -0.1656
17784TIP3   OH274766   1.523   1.271  12.875  0.5357  0.2327  0.1937
17784TIP3    H174767   1.488   1.234  12.956  2.6223 -1.8923  0.1840
17784TIP3    H274768   1.484   1.219  12.805  0.3261  0.7359 -0.0741
17785TIP3   OH274769   2.685   6.496  11.997  0.2383 -0.7277  0.6440
17785TIP3    H174770   2.605   6.445  12.009 -0.2640 -0.0704  0.2006
17785TIP3    H274771   2.750   6.434  11.966 -0.5780 -0.9577 -0.6379
17786TIP3   OH274772   1.788   4.997  12.939  0.0936 -0.4155  0.4730
17786TIP3    H174773   1.805   5.091  12.936  0.1615 -0.4686 -1.1050
17786TIP3    H274774   1.703   4.989  12.982  1.2214  0.2054  2.9231
17787TIP3   OH274775   4.947   6.317   1.433 -0.4381  0.1917  0.3647
17787TIP3    H174776   4.969   6.396   1.385  0.6239 -0.7191 -0.6817
17787TIP3    H274777   4.858   6.332   1.465 -0.5303  1.4923 -0.4800
17788TIP3   OH274778   1.287   6.541   3.642  0.2621  0.2547  0.1806
17788TIP3    H174779   1.213   6.550   3.703  1.6963  1.9696  1.7283
17788TIP3    H274780   1.262   6.468   3.586 -1.4310 -0.9422  2.3797
17789TIP3   OH274781   2.720   3.595   3.598 -0.4570  0.2489 -0.3385
17789TIP3    H174782   2.745   3.528   3.534 -2.8410  0.0528 -1.0967
17789TIP3    H274783   2.801   3.615   3.645  0.6870 -1.7721 -1.4118
17790TIP3   OH274784   3.639   6.582   1.376  0.0973  0.0220 -0.5892
17790TIP3    H174785   3.644   6.662   1.324 -0.7427  0.5926  0.1872
17790TIP3    H274786   3.676   6.607   1.461 -0.5613 -0.2918 -0.2073
17791TIP3   OH274787   3.817   1.201   3.237 -0.1846 -0.0006  0.4362
17791TIP3    H174788   3.724   1.209   3.258 -0.5001 -0.0266 -0.8629
17791TIP3    H274789   3.841   1.112   3.263 -0.8021 -0.3658 -0.2482
17792TIP3   OH274790   5.964   1.641  14.762 -0.1535  0.7838 -0.4297
17792TIP3    H174791   5.947   1.735  14.765 -1.3230  0.6511 -2.1244
17792TIP3    H274792   5.932   1.614  14.676  0.5475 -1.0982 -0.1184
17793TIP3   OH274793   2.088   0.214  13.588 -0.1918 -0.0590 -0.0359
17793TIP3    H174794   2.035   0.155  13.535  0.6666  0.2585 -1.2753
17793TIP3    H274795   2.136   0.156  13.648 -0.1353 -0.5320 -0.5342
17794TIP3   OH274796   3.144   0.592  16.095  0.1247  1.0897  0.2424
17794TIP3    H174797   3.211   0.630  16.152 -1.2165  1.2302  1.7770
17794TIP3    H274798   3.193   0.539  16.032  1.5870 -0.6256  2.7057
17795TIP3   OH274799   0.146   4.309   3.846  0.5587 -0.5198  0.0606
17795TIP3    H174800   0.165   4.220   3.876  1.2924 -0.5399 -0.4648
17795TIP3    H274801   0.219   4.361   3.879  0.2925 -0.1639  0.0897
17796TIP3   OH274802   3.894   5.294  16.314  0.4576 -0.0044  0.2589
17796TIP3    H174803   3.907   5.369  16.371 -0.7667  1.1315 -0.9060
17796TIP3    H274804   3.812   5.255  16.344 -1.4005  1.9301 -2.0823
17797TIP3   OH274805   4.486   4.903   2.081 -0.3296  0.2936 -0.0172
17797TIP3    H174806   4.557   4.864   2.028  0.2062  0.3542  0.6465
17797TIP3    H274807   4.424   4.831   2.094  0.4386 -0.2237  0.8265
17798TIP3   OH274808   2.495   2.735   2.514  0.6668  0.3332 -0.0984
17798TIP3    H174809   2.539   2.735   2.430 -0.7991  1.4051 -0.8854
17798TIP3    H274810   2.474   2.827   2.532 -0.2695 -0.0251  0.7593
17799TIP3   OH274811   6.217   5.538   4.067 -0.0460  0.0495  0.5005
17799TIP3    H174812   6.221   5.617   4.121  1.4294  0.5864 -0.3712
17799TIP3    H274813   6.261   5.471   4.119 -1.2211 -0.2073  1.2037
17800TIP3   OH274814   6.511   5.780  11.742  0.2670  0.4609  0.5762
17800TIP3    H174815   6.534   5.873  11.734 -1.0531  0.8108  0.7932
17800TIP3    H274816   6.595   5.735  11.737  0.7193  1.4830 -2.2270
17801TIP3   OH274817   5.995   0.439  11.214 -0.2810 -0.0970  0.3377
17801TIP3    H174818   6.035   0.386  11.282 -0.5457  0.3209  0.8174
17801TIP3    H274819   6.069   0.474  11.164 -0.0863 -0.3317  0.4622
17802TIP3   OH274820   5.268   1.130  13.806  0.0538  0.0068 -0.1722
17802TIP3    H174821   5.266   1.036  13.823 -1.3232  0.1125  0.2629
17802TIP3    H274822   5.348   1.143  13.755  1.9009 -0.9669  2.3245
17803TIP3   OH274823   4.969   5.928   0.107  0.5923 -0.1807  0.3665
17803TIP3    H174824   4.954   6.020   0.132 -0.1322 -0.2581  0.2396
17803TIP3    H274825   5.060   5.925   0.080  0.5110  0.5927 -0.0118
17804TIP3   OH274826   5.756   6.622  11.215  0.4598  0.5142  0.3055
17804TIP3    H174827   5.845   6.603  11.244  0.4578 -0.3244 -0.2413
17804TIP3    H274828   5.764   6.704  11.166  0.8162  0.7903  0.8154
17805TIP3   OH274829   6.433   1.701   4.588  0.4185 -0.2120  0.1481
17805TIP3    H174830   6.441   1.728   4.680 -0.0234 -1.3506  0.5228
17805TIP3    H274831   6.425   1.606   4.591  0.0683 -0.2318 -1.0524
17806TIP3   OH274832   3.180   0.467  13.870 -0.6102 -0.2714  0.5011
17806TIP3    H174833   3.123   0.439  13.941 -0.5646 -0.8303  0.3201
17806TIP3    H274834   3.225   0.387  13.842 -0.7302 -0.0820 -0.2391
17807TIP3   OH274835   6.047   3.363  13.945  0.8240  0.2062 -0.8832
17807TIP3    H174836   6.115   3.306  13.981  1.7366  2.3015  0.8731
17807TIP3    H274837   6.084   3.396  13.864  1.2584  0.1255 -0.7186
17808TIP3   OH274838   0.615   3.599   4.361  0.0815 -0.3524 -0.2713
17808TIP3    H174839   0.527   3.566   4.346  0.0614 -0.2631 -0.3486
17808TIP3    H274840   0.624   3.674   4.302  0.8882 -1.5021 -1.6379
17809TIP3   OH274841   3.170   3.651   5.743  0.1728 -0.0614  0.4094
17809TIP3    H174842   3.099   3.653   5.679 -0.6189  0.3718  1.2908
17809TIP3    H274843   3.237   3.595   5.703  0.0682  0.9175 -1.1807
17810TIP3   OH274844   2.350   4.061  12.587  0.4067  0.3263  0.1672
17810TIP3    H174845   2.362   4.023  12.674 -1.4313  1.9808  1.1803
17810TIP3    H274846   2.303   3.993  12.538 -0.2166  0.1143  1.0393
17811TIP3   OH274847   4.877   1.981   2.690 -0.3549 -0.3922 -0.3287
17811TIP3    H174848   4.962   1.943   2.669 -0.2467  0.1218 -0.8469
17811TIP3    H274849   4.867   2.053   2.627 -1.2317 -0.5362 -0.3623
17812TIP3   OH274850   4.937   0.921   0.073 -0.3093  0.0980 -0.4426
17812TIP3    H174851   5.001   0.857   0.103 -0.0586  0.6641  0.2579
17812TIP3    H274852   4.958   0.934  -0.019  0.5333  0.2021 -0.2451
17813TIP3   OH274853   6.779   6.489   5.869  0.7330 -0.1737  0.2714
17813TIP3    H174854   6.760   6.430   5.943 -0.1162  0.1229  0.2926
17813TIP3    H274855   6.786   6.576   5.909  0.8802 -0.0992  0.0847
17814TIP3   OH274856   6.374   3.577   0.194 -0.0025  0.3089  0.4319
17814TIP3    H174857   6.303   3.568   0.131 -1.1212  1.9458  1.4073
17814TIP3    H274858   6.424   3.652   0.163 -0.1239  0.6603  1.0796
17815TIP3   OH274859   5.812   0.496   5.826 -0.0666 -0.4644 -0.0759
17815TIP3    H174860   5.802   0.412   5.871  0.5692 -0.3220  0.3472
17815TIP3    H274861   5.820   0.560   5.897 -0.0144 -0.1161 -0.3936
17816TIP3   OH274862   0.302   1.147   1.768  0.4384  0.4421 -0.1319
17816TIP3    H174863   0.342   1.061   1.752  0.4218  0.5676 -0.8222
17816TIP3    H274864   0.246   1.162   1.693 -2.1728 -0.4408  1.5506
17817TIP3   OH274865   4.143   5.753  16.508 -0.5684 -0.4263  0.2506
17817TIP3    H174866   4.233   5.720  16.506 -0.5825 -0.6168  1.7194
17817TIP3    H274867   4.147   5.832  16.562 -1.0930  0.2097 -0.6251
17818TIP3   OH274868   0.022   3.996   1.707 -0.1429 -0.0868  0.0581
17818TIP3    H174869   0.105   3.980   1.661 -0.2997 -2.0600  0.4162
17818TIP3    H274870  -0.011   4.078   1.670  1.6174  0.3480 -0.5969
17819TIP3   OH274871   6.309   6.560  13.726 -0.2374  0.0556 -0.4437
17819TIP3    H174872   6.375   6.490  13.726 -1.0975 -0.7840 -1.5489
17819TIP3    H274873   6.325   6.608  13.645 -2.4149 -1.5686 -1.8877
17820TIP3   OH274874   2.878   3.589   4.041 -0.0568  0.0086  0.3173
17820TIP3    H174875   2.912   3.520   3.984  2.1993  0.4445  1.0870
17820TIP3    H274876   2.867   3.664   3.983  0.1415 -0.1908  0.0210
17821TIP3   OH274877   5.707   3.843   5.686  0.1732 -0.6544  0.2133
17821TIP3    H174878   5.680   3.752   5.696  1.8775 -1.1722  0.3645
17821TIP3    H274879   5.731   3.871   5.775  1.3445 -0.6198 -0.1088
17822TIP3   OH274880   5.557   3.658  13.137  0.1153  0.0225 -0.2303
17822TIP3    H174881   5.519   3.571  13.132  1.1203 -0.4292 -0.0223
17822TIP3    H274882   5.578   3.681  13.046  1.2342 -0.5715 -0.1261
17823TIP3   OH274883   0.051   1.055   3.008 -0.3006  0.3296 -0.6023
17823TIP3    H174884  -0.031   1.102   3.025 -0.1643 -0.4775  2.6985
17823TIP3    H274885   0.096   1.107   2.941 -2.6371  1.8195 -1.0676
17824TIP3   OH274886   0.224   6.556   0.427 -0.3331 -0.2635 -0.0378
17824TIP3    H174887   0.320   6.556   0.423 -0.3292  2.4533 -1.0202
17824TIP3    H274888   0.203   6.486   0.489  2.3528  0.3315  1.6559
17825TIP3   OH274889   5.002   0.163   4.809  0.7347 -0.1306  0.0885
17825TIP3    H174890   5.020   0.162   4.715  2.5968 -0.2037  0.4237
17825TIP3    H274891   4.972   0.074   4.829  0.1756 -0.0716 -0.4471
17826TIP3   OH274892   0.836   1.840   1.925 -0.5333 -0.0087  0.2671
17826TIP3    H174893   0.770   1.855   1.992 -0.6792 -1.3163  0.4276
17826TIP3    H274894   0.881   1.760   1.952 -0.5539 -0.5255 -1.1506
17827TIP3   OH274895   5.622   3.644   5.337  0.1702  0.1379 -0.3659
17827TIP3    H174896   5.688   3.713   5.329  0.1358  0.0362 -1.7837
17827TIP3    H274897   5.539   3.687   5.313  0.3247 -0.6571 -2.4231
17828TIP3   OH274898   1.176   5.412  15.544 -0.5476  0.2119  0.2664
17828TIP3    H174899   1.270   5.398  15.533 -0.4982  0.2794  0.5997
17828TIP3    H274900   1.160   5.496  15.501 -0.3270  0.5468  0.8226
17829TIP3   OH274901   5.473   1.508   0.882  0.3816 -0.3119 -0.2813
17829TIP3    H174902   5.469   1.443   0.812 -0.2476 -0.1838 -0.3683
17829TIP3    H274903   5.566   1.516   0.901  0.4690 -1.1929 -0.3072
17830TIP3   OH274904   4.223   1.193   0.050 -0.3474  0.2212  0.4566
17830TIP3    H174905   4.286   1.122   0.061 -0.0936  0.6856  2.0397
17830TIP3    H274906   4.269   1.257  -0.006  0.0873 -0.0374  0.5172
17831TIP3   OH274907   5.004   5.358   1.178 -0.1728  0.0680  0.0308
17831TIP3    H174908   4.967   5.424   1.236  0.4867 -0.0989  0.6458
17831TIP3    H274909   4.930   5.301   1.156 -0.4246  0.1175  0.7282
17832TIP3   OH274910   4.878   4.548  14.286 -0.8275 -0.3472 -0.2336
17832TIP3    H174911   4.808   4.568  14.347 -1.1389 -3.3963  0.4695
17832TIP3    H274912   4.868   4.455  14.267  1.8406 -0.4006 -1.6365
17833TIP3   OH274913   3.060   5.667  16.836  0.5376  0.6742  0.2375
17833TIP3    H174914   3.148   5.635  16.819  1.0753  1.9123  0.7129
17833TIP3    H274915   3.072   5.751  16.879 -0.8727  0.8081  0.3916
17834TIP3   OH274916   0.062   5.470  15.586  0.2605 -0.2586 -0.1206
17834TIP3    H174917   0.052   5.383  15.625  1.9083 -0.1575  0.5688
17834TIP3    H274918  -0.021   5.485  15.540 -0.1916 -2.0261  0.0649
17835TIP3   OH274919   2.751   2.086   3.026 -0.1282 -0.9262 -0.5198
17835TIP3    H174920   2.667   2.058   3.063 -0.3086  0.0686 -0.1535
17835TIP3    H274921   2.728   2.125   2.941 -0.2320  0.8040  0.2908
17836TIP3   OH274922   6.147   1.443   0.863  0.3304 -0.2904  0.3039
17836TIP3    H174923   6.159   1.456   0.957 -2.3585 -0.5292  0.7134
17836TIP3    H274924   6.102   1.359   0.857 -0.7310  0.3646 -1.1052
17837TIP3   OH274925   4.443   2.286   5.644 -0.4962  0.1341  0.3327
17837TIP3    H174926   4.367   2.324   5.600 -0.7049  0.2018  0.7471
17837TIP3    H274927   4.413   2.270   5.734  0.1338  0.6616  0.6462
17838TIP3   OH274928   2.423   5.173   5.590  0.4674 -0.0985 -0.1113
17838TIP3    H174929   2.500   5.223   5.563  0.1290 -0.2323 -1.3470
17838TIP3    H274930   2.357   5.192   5.523 -0.2328 -0.8098  0.3665
17839TIP3   OH274931   3.714   3.118  13.675 -0.3474  0.7738 -0.1370
17839TIP3    H174932   3.642   3.103  13.615  1.3506  2.1918 -2.6131
17839TIP3    H274933   3.775   3.047  13.659 -0.5259  0.3671  0.9329
17840TIP3   OH274934   2.267   4.123   4.146  0.2258  0.1012  0.2645
17840TIP3    H174935   2.280   4.217   4.142 -1.3837  0.3666  1.0812
17840TIP3    H274936   2.343   4.090   4.195  1.2815  0.8475 -0.8525
17841TIP3   OH274937   3.339   3.441  15.980 -0.0088  0.0600 -0.4693
17841TIP3    H174938   3.327   3.348  15.959 -1.6253  0.2538 -0.3921
17841TIP3    H274939   3.359   3.482  15.896  0.2202 -0.2670 -0.5775
17842TIP3   OH274940   2.097   0.976  15.646  0.0930  0.0948 -0.5494
17842TIP3    H174941   2.057   0.889  15.654  0.9101 -0.3917 -1.6241
17842TIP3    H274942   2.190   0.959  15.637  0.3123  1.1167 -0.2344
17843TIP3   OH274943   4.351   4.156   0.020 -0.5204  0.5802 -0.3909
17843TIP3    H174944   4.274   4.173  -0.034 -0.0645  0.6446 -1.0183
17843TIP3    H274945   4.393   4.080  -0.020 -0.7813 -0.0635  0.5184
17844TIP3   OH274946   4.877   1.485   4.290  0.2272 -0.6133  0.1646
17844TIP3    H174947   4.943   1.420   4.314  0.5842 -2.1569 -4.6358
17844TIP3    H274948   4.927   1.557   4.250 -0.6510  0.2706  0.6257
17845TIP3   OH274949   6.425   2.388   0.593 -0.0138 -0.4150  0.2933
17845TIP3    H174950   6.396   2.440   0.668 -0.8113 -1.7991  0.9698
17845TIP3    H274951   6.346   2.343   0.563 -0.3350  2.1743 -3.1125
17846TIP3   OH274952   2.464   1.449  12.578 -0.2291 -0.3331 -0.4091
17846TIP3    H174953   2.397   1.440  12.646  0.3389 -0.7363  0.1039
17846TIP3    H274954   2.423   1.505  12.511 -1.1815 -0.8077 -0.2413
17847TIP3   OH274955   3.612   3.282  15.462  0.1765  0.0720 -0.5289
17847TIP3    H174956   3.595   3.190  15.482  1.4675 -0.0838 -0.0856
17847TIP3    H274957   3.557   3.331  15.523 -0.0390 -0.4035 -0.3415
17848TIP3   OH274958   4.533   1.674   0.526  0.7628  0.3574  0.1110
17848TIP3    H174959   4.498   1.609   0.587  3.3857 -1.4664 -0.2485
17848TIP3    H274960   4.628   1.667   0.536  1.1741  1.5218 -2.6575
17849TIP3   OH274961   6.189   3.861   3.984 -0.5580  0.0703  0.1324
17849TIP3    H174962   6.257   3.891   3.925  1.1142  0.2111  2.0651
17849TIP3    H274963   6.159   3.940   4.029 -1.4643 -0.0984 -0.1725
17850TIP3   OH274964   1.366   3.061   2.966 -0.1023 -0.0756  0.1515
17850TIP3    H174965   1.363   3.157   2.961  0.4152 -0.0962 -0.5389
17850TIP3    H274966   1.315   3.040   3.045 -0.8576  0.7185 -0.1155
17851TIP3   OH274967   1.815   2.249  12.649 -0.1980 -0.3971 -0.0493
17851TIP3    H174968   1.854   2.210  12.728  1.1739  0.8372 -0.1081
17851TIP3    H274969   1.757   2.317  12.682 -0.1800 -0.3629 -0.0897
17852TIP3   OH274970   5.231   2.800   3.007  0.0440  0.1492 -0.2947
17852TIP3    H174971   5.151   2.753   2.983  0.5410 -0.4433 -0.8030
17852TIP3    H274972   5.242   2.866   2.939  0.3345 -0.1924 -0.5843
17853TIP3   OH274973   5.223   4.700   3.466 -0.6231 -0.4824 -0.3115
17853TIP3    H174974   5.294   4.703   3.402 -0.4338 -0.7434 -0.1100
17853TIP3    H274975   5.164   4.632   3.434 -0.0405 -1.2877  0.3069
17854TIP3   OH274976   3.672   0.545   2.171 -0.3078  0.1567  0.2844
17854TIP3    H174977   3.615   0.486   2.221  1.5431 -0.7607  1.3975
17854TIP3    H274978   3.761   0.519   2.197  0.5816  2.3517 -0.4779
17855TIP3   OH274979   5.624   2.174   1.017 -0.6653 -0.5373 -0.0282
17855TIP3    H174980   5.566   2.101   1.035 -0.4946 -0.7571 -0.3542
17855TIP3    H274981   5.632   2.220   1.100 -1.6951 -0.2239 -0.0984
17856TIP3   OH274982   5.217   3.899  13.914 -0.1397 -0.2171  0.2199
17856TIP3    H174983   5.131   3.926  13.944 -1.1063  0.2708 -2.7703
17856TIP3    H274984   5.278   3.960  13.956 -1.3175 -0.1399  1.8085
17857TIP3   OH274985   5.877   5.780  13.854  0.4554 -0.3577  0.3600
17857TIP3    H174986   5.836   5.751  13.772 -1.6395  1.1987  0.8043
17857TIP3    H274987   5.804   5.786  13.916  1.3332  2.4520  1.1953
17858TIP3   OH274988   0.908   5.355  15.800  0.3143  0.4811  0.0936
17858TIP3    H174989   0.852   5.424  15.835  1.0233  1.2521 -0.2857
17858TIP3    H274990   0.997   5.389  15.808  0.5803  0.1176 -1.2253
17859TIP3   OH274991   0.141   2.102   1.389 -0.3795 -0.3981  0.1715
17859TIP3    H174992   0.072   2.167   1.371 -1.4937 -1.5349  0.2973
17859TIP3    H274993   0.183   2.087   1.304  0.6015  1.2780  0.3366
17860TIP3   OH274994   5.370   1.575   4.577  0.4433  0.3526 -0.1171
17860TIP3    H174995   5.385   1.589   4.671 -1.5644  1.3847  0.0654
17860TIP3    H274996   5.429   1.504   4.554  2.1946  1.2116  1.5652
17861TIP3   OH274997   4.989   5.805  11.239 -0.2600  0.1795  0.2757
17861TIP3    H174998   5.046   5.862  11.290 -1.8102  1.8891  0.1614
17861TIP3    H274999   4.947   5.750  11.305  1.6742 -1.2592  0.3334
17862TIP3   OH275000   3.716   6.325   2.946 -0.7006  0.5096 -0.1870
17862TIP3    H175001   3.709   6.355   3.036  1.4461 -0.5577  0.3690
17862TIP3    H275002   3.694   6.232   2.949  2.0319 -0.2042 -0.2421
17863TIP3   OH275003   1.852   1.741  15.975  0.0831 -0.5139 -0.4002
17863TIP3    H175004   1.772   1.728  15.924  0.2795 -1.7167 -0.4197
17863TIP3    H275005   1.821   1.754  16.065 -0.2417  1.2402 -0.7599
17864TIP3   OH275006   6.071   2.380  14.651  0.2666 -0.0753  0.0930
17864TIP3    H175007   6.122   2.384  14.571  2.7019 -2.5553  1.4263
17864TIP3    H275008   6.120   2.434  14.713  1.0542 -2.0358  1.2313
17865TIP3   OH275009   2.044   1.580  16.918 -0.5849  0.4010 -1.1826
17865TIP3    H175010   2.087   1.663  16.894  1.1396  0.1491  0.9481
17865TIP3    H275011   2.084   1.515  16.859  1.8721  0.2087  0.6227
17866TIP3   OH275012   1.463   4.798  11.408 -1.0025  0.4346  0.1114
17866TIP3    H175013   1.469   4.820  11.315 -0.0656  0.5228  0.1918
17866TIP3    H275014   1.374   4.825  11.433 -1.2696  0.3792 -0.7594
17867TIP3   OH275015   5.340   2.389  17.224  0.3988  0.7997  0.5561
17867TIP3    H175016   5.399   2.460  17.201  1.3295 -0.2710 -0.4022
17867TIP3    H275017   5.379   2.350  17.302  1.2837 -0.2703 -0.4118
17868TIP3   OH275018   3.122   6.046   1.742  0.1661 -0.5818 -0.1644
17868TIP3    H175019   3.185   6.064   1.812  0.2497  0.1400 -0.4230
17868TIP3    H275020   3.040   6.029   1.788 -0.1386  1.3651  0.0746
17869TIP3   OH275021   6.385   0.930  14.645 -0.0282  0.0114 -0.5363
17869TIP3    H175022   6.346   0.993  14.706  0.5679  1.6328 -1.8044
17869TIP3    H275023   6.319   0.919  14.577  1.0805  1.6310 -1.9130
17870TIP3   OH275024   6.247   4.381  15.970 -0.0693 -0.3941  0.1583
17870TIP3    H175025   6.255   4.299  16.018  1.6902 -0.3270  0.0099
17870TIP3    H275026   6.172   4.367  15.911 -1.7432 -0.7541  2.3090
17871TIP3   OH275027   3.810   5.812  10.687  0.0368  0.1651  0.7988
17871TIP3    H175028   3.722   5.779  10.671 -0.3469  1.2963  0.5572
17871TIP3    H275029   3.864   5.733  10.694 -0.7019 -0.5094 -0.7885
17872TIP3   OH275030   6.055   0.216  12.043 -0.1606 -0.0183 -0.2610
17872TIP3    H175031   6.087   0.126  12.053 -0.3356 -0.1595 -0.9636
17872TIP3    H275032   5.985   0.209  11.978  0.1631  0.6991 -0.6896
17873TIP3   OH275033   3.759   5.291  11.363 -0.4898  0.1286  0.2487
17873TIP3    H175034   3.765   5.352  11.289  0.3996 -1.4360 -1.0074
17873TIP3    H275035   3.792   5.340  11.438  2.9671  0.3141 -1.3069
17874TIP3   OH275036   0.931   1.058  16.440 -0.1504  0.4620 -0.5912
17874TIP3    H175037   0.869   0.997  16.480  1.1526 -0.4722  0.0338
17874TIP3    H275038   1.017   1.019  16.456  0.5656  1.4363 -1.9769
17875TIP3   OH275039   1.402   5.803  14.977 -0.6324  0.0867  0.0076
17875TIP3    H175040   1.379   5.846  15.060  0.7206  0.0574  0.4168
17875TIP3    H275041   1.486   5.842  14.953 -0.7956 -0.2505 -1.1079
17876TIP3   OH275042   5.890   3.693  15.365 -0.9468 -0.4832  0.3203
17876TIP3    H175043   5.892   3.776  15.316 -3.0428  0.0200  1.0079
17876TIP3    H275044   5.962   3.699  15.427 -0.0896  0.1355 -0.7168
17877TIP3   OH275045   5.134   6.088   2.819 -0.0645 -0.4013  0.6518
17877TIP3    H175046   5.096   6.146   2.885  1.6256  1.7981 -0.2562
17877TIP3    H275047   5.059   6.036   2.787 -1.1085 -0.7080  3.4115
17878TIP3   OH275048   1.210   0.856  13.072 -0.2428 -0.0359  0.2265
17878TIP3    H175049   1.204   0.783  13.133 -1.1995  0.3197  0.5608
17878TIP3    H275050   1.170   0.823  12.991  0.1242 -0.1756  0.1006
17879TIP3   OH275051   6.284   6.467  15.547 -0.0478  0.5758 -0.0389
17879TIP3    H175052   6.342   6.516  15.488  1.2436 -1.6091 -0.6567
17879TIP3    H275053   6.342   6.432  15.614 -0.3237 -3.0640 -1.6105
17880TIP3   OH275054   5.956   5.681   3.830  0.1771 -0.3717 -0.5369
17880TIP3    H175055   6.011   5.684   3.752 -0.2622 -0.7977 -0.8716
17880TIP3    H275056   6.007   5.724   3.899  0.2927  0.6063 -1.2282
17881TIP3   OH275057   2.977   4.287  12.989 -0.4016  0.1863  0.3415
17881TIP3    H175058   3.020   4.256  13.069  1.6626 -1.0929 -1.1841
17881TIP3    H275059   2.900   4.333  13.019  1.6057  1.8323  3.2120
17882TIP3   OH275060   2.563   6.094  12.873  0.1191  0.1265  0.2244
17882TIP3    H175061   2.511   6.070  12.949 -0.9989  0.3595 -0.4477
17882TIP3    H275062   2.587   6.185  12.888 -0.8034  0.4289 -0.0737
17883TIP3   OH275063   4.514   4.746  13.782 -0.1123  0.4334  0.9189
17883TIP3    H175064   4.557   4.742  13.867 -0.1730  2.4121  1.0728
17883TIP3    H275065   4.446   4.812  13.793  0.6999  1.6380 -1.0040
17884TIP3   OH275066   4.194   3.842  16.352  0.3045  0.1278 -0.3868
17884TIP3    H175067   4.289   3.832  16.358  0.2600  0.7891  1.7709
17884TIP3    H275068   4.178   3.931  16.384 -0.8800  0.6982 -2.4969
17885TIP3   OH275069   1.568   4.774   0.760 -0.6310  0.7824 -0.7059
17885TIP3    H175070   1.647   4.776   0.815  0.3701 -0.2471 -2.0505
17885TIP3    H275071   1.503   4.822   0.810 -0.0064 -0.8236  1.7828
17886TIP3   OH275072   3.437   1.255  16.926 -0.4478  0.1234  0.2542
17886TIP3    H175073   3.418   1.203  16.848  0.9017 -0.1914  0.1281
17886TIP3    H275074   3.516   1.216  16.963 -1.2942  0.0202  2.0089
17887TIP3   OH275075   2.042   2.200   1.914  0.2807  0.3565 -0.2277
17887TIP3    H175076   1.954   2.163   1.929 -0.4145  2.3282  0.7850
17887TIP3    H275077   2.035   2.244   1.830  0.3315  0.4612 -0.1763
17888TIP3   OH275078   3.435   5.603   4.332 -0.2934  1.0782 -0.0037
17888TIP3    H175079   3.398   5.534   4.387  1.9888  1.0348  1.5256
17888TIP3    H275080   3.451   5.560   4.248  0.5510 -0.1212  0.7489
17889TIP3   OH275081   3.281   0.576   5.100 -0.2962  0.9885 -0.1201
17889TIP3    H175082   3.239   0.628   5.032 -0.1486 -0.7730 -1.5979
17889TIP3    H275083   3.212   0.520   5.135 -0.0922  1.0219  0.3485
17890TIP3   OH275084   2.188   1.609  13.070  0.5694 -0.4663 -0.0356
17890TIP3    H175085   2.176   1.515  13.084 -1.0977 -0.1624  0.6129
17890TIP3    H275086   2.150   1.625  12.984  0.9348 -0.3897 -0.1858
17891TIP3   OH275087   3.492   5.236  12.307 -0.1783 -0.3983  0.1709
17891TIP3    H175088   3.459   5.265  12.392 -2.2314  0.9321 -1.0533
17891TIP3    H275089   3.444   5.155  12.289  0.4146 -0.7961  0.3784
17892TIP3   OH275090   2.144   1.504  13.996 -0.1707  1.1818  0.1509
17892TIP3    H175091   2.168   1.435  13.934 -1.3718  0.8203  0.0805
17892TIP3    H275092   2.162   1.466  14.082  0.5281  1.3106  0.0653
17893TIP3   OH275093   6.202   2.591  14.211  0.4956  0.0599  0.4361
17893TIP3    H175094   6.175   2.500  14.217  1.3376 -0.4549 -2.7783
17893TIP3    H275095   6.297   2.588  14.216  0.5854  0.6453 -0.9722
17894TIP3   OH275096   0.360   4.260   1.680  0.2395  0.3723  0.2811
17894TIP3    H175097   0.409   4.180   1.698 -0.0243 -0.4084 -2.2897
17894TIP3    H275098   0.321   4.284   1.764  0.9934 -1.7366  1.2584
17895TIP3   OH275099   0.646   2.438  17.009  0.2302  0.1899  0.5968
17895TIP3    H175100   0.577   2.488  16.965  0.1086  0.7520  1.4085
17895TIP3    H275101   0.727   2.483  16.986  0.1541  0.5587  1.0565
17896TIP3   OH275102   3.390   2.176  15.041 -0.7773  0.0545  0.0089
17896TIP3    H175103   3.319   2.130  14.997  0.5194  0.9638 -3.2066
17896TIP3    H275104   3.470   2.137  15.005  0.3532  0.9281  1.4808
17897TIP3   OH275105   4.416   2.242   5.953  0.0235 -0.7274 -0.0809
17897TIP3    H175106   4.334   2.223   5.999 -1.8002  1.3959 -2.2785
17897TIP3    H275107   4.455   2.157   5.935 -1.3754 -1.7426  1.5828
17898TIP3   OH275108   1.198   1.629  13.365 -0.2824 -1.0855  0.1525
17898TIP3    H175109   1.114   1.591  13.339  0.4084 -1.6026 -1.4000
17898TIP3    H275110   1.251   1.554  13.392  0.0340 -0.8870  0.0836
17899TIP3   OH275111   0.544   1.316  14.824  0.0790 -0.0942 -0.2247
17899TIP3    H175112   0.630   1.313  14.865 -0.2863 -0.6184  0.5178
17899TIP3    H275113   0.484   1.339  14.896 -0.1609  2.2636 -1.1233
17900TIP3   OH275114   4.793   0.552  14.800  0.2102  0.2044  0.9628
17900TIP3    H175115   4.809   0.636  14.758 -1.8118 -0.1228 -0.5668
17900TIP3    H275116   4.810   0.487  14.731 -0.3796 -0.4959  1.4583
17901TIP3   OH275117   1.250   1.189  15.278  0.7835  0.1047 -0.0945
17901TIP3    H175118   1.275   1.164  15.367  1.1914  0.3276 -0.1470
17901TIP3    H275119   1.314   1.255  15.252  0.6395  0.0744 -0.5372
17902TIP3   OH275120   1.553   4.476  11.949  0.8762  0.0122  0.2630
17902TIP3    H175121   1.525   4.473  12.041  0.1862 -1.5117  0.0029
17902TIP3    H275122   1.641   4.514  11.953  0.7368  0.2481  1.5203
17903TIP3   OH275123   6.592   4.104  14.416 -0.1890  0.3728  0.3849
17903TIP3    H175124   6.610   4.120  14.509 -0.9186  2.8764  0.1256
17903TIP3    H275125   6.587   4.009  14.409  1.9780  0.0504  2.5181
17904TIP3   OH275126   0.291   1.382  16.234  0.4710  0.0432  0.2622
17904TIP3    H175127   0.286   1.287  16.249 -0.1017  0.1564  0.7859
17904TIP3    H275128   0.267   1.421  16.317 -0.0438  0.6620 -0.1738
17905TIP3   OH275129   5.462   0.053  11.561  0.1094  0.2836  0.1452
17905TIP3    H175130   5.424   0.001  11.490 -0.8830  1.2913 -0.0824
17905TIP3    H275131   5.524   0.112  11.517  0.7174 -0.2323  0.3152
17906TIP3   OH275132   6.520   1.647  11.867  0.0303 -0.8566  0.4361
17906TIP3    H175133   6.599   1.608  11.905 -0.0301 -0.9178  0.4967
17906TIP3    H275134   6.469   1.677  11.942 -0.3381 -1.4489  0.4218
17907TIP3   OH275135   6.259   5.833   1.987 -0.4097  0.0361  1.0237
17907TIP3    H175136   6.313   5.815   1.911 -0.3958  1.4311  0.6847
17907TIP3    H275137   6.169   5.833   1.954 -0.2908  2.5223  0.5907
17908TIP3   OH275138   4.306   3.260   2.591  0.1598  0.0127  0.0488
17908TIP3    H175139   4.371   3.271   2.521  0.5539 -0.4691  0.3347
17908TIP3    H275140   4.346   3.196   2.651 -1.6645 -2.2218 -1.0701
17909TIP3   OH275141   5.045   0.425  16.522  0.2605  0.0514 -0.2316
17909TIP3    H175142   4.976   0.488  16.501 -0.3375 -0.4291  0.2671
17909TIP3    H275143   5.034   0.354  16.457  1.9257  1.1793 -1.8053
17910TIP3   OH275144   1.651   1.701   5.224  0.3858  0.0383 -0.3408
17910TIP3    H175145   1.656   1.625   5.281  2.0619  0.5857  0.3009
17910TIP3    H275146   1.740   1.738   5.227 -0.1675  1.4848 -1.3503
17911TIP3   OH275147   3.108   5.042  14.471  0.5163  0.0488 -0.0753
17911TIP3    H175148   3.146   5.120  14.432  2.3336 -0.3018  0.9136
17911TIP3    H275149   3.022   5.069  14.503  0.3150  1.1140 -1.5221
17912TIP3   OH275150   0.556   2.351  14.700 -0.2107  0.3108 -0.3235
17912TIP3    H175151   0.594   2.417  14.759 -0.6483  1.0067 -0.8066
17912TIP3    H275152   0.486   2.310  14.752  0.7347 -0.4912  0.3299
17913TIP3   OH275153   0.154   6.083   5.447 -0.0732  0.5631  0.1308
17913TIP3    H175154   0.186   6.166   5.483 -0.0305  0.3250  0.6426
17913TIP3    H275155   0.220   6.019   5.472  1.0871  0.7846 -2.2949
17914TIP3   OH275156   4.955   2.558   1.936  0.1272  0.8423 -0.1476
17914TIP3    H175157   4.886   2.557   2.002 -0.3179 -1.6091 -0.6016
17914TIP3    H275158   4.946   2.475   1.890  1.0952  2.0390 -2.6255
17915TIP3   OH275159   3.908   6.660  13.292 -0.2043  0.2122 -0.0101
17915TIP3    H175160   3.956   6.738  13.318  1.6752 -1.7609  2.7688
17915TIP3    H275161   3.853   6.640  13.368 -0.7551 -1.1048 -0.7367
17916TIP3   OH275162   2.521   2.687   5.286  0.0106 -0.0306  0.4198
17916TIP3    H175163   2.616   2.694   5.295  0.0321 -1.3392  1.4312
17916TIP3    H275164   2.487   2.709   5.372 -0.6147  0.5391  0.0313
17917TIP3   OH275165   0.513   0.019  12.966  0.5042  0.6005  0.3150
17917TIP3    H175166   0.482   0.109  12.981  0.7023  1.0636 -1.7811
17917TIP3    H275167   0.437  -0.025  12.927  0.4609 -0.0933  1.1963
17918TIP3   OH275168   2.231   4.999   0.857  0.6100  0.3300  0.3490
17918TIP3    H175169   2.190   5.085   0.856  0.6731  0.3461 -1.0035
17918TIP3    H275170   2.322   5.014   0.831  0.3376 -0.2863 -0.9872
17919TIP3   OH275171   1.724   6.583   3.539  0.0202  0.0989 -0.1932
17919TIP3    H175172   1.749   6.507   3.486  0.3191  0.0901 -0.0413
17919TIP3    H275173   1.677   6.640   3.478  1.5337  0.7023 -0.8157
17920TIP3   OH275174   4.121   4.986  14.088 -0.0150 -0.5760 -0.1564
17920TIP3    H175175   4.123   4.934  14.168  0.9305 -1.0338 -0.4695
17920TIP3    H275176   4.085   4.927  14.022  0.5982 -0.6766 -0.4018
17921TIP3   OH275177   4.357   0.184   5.577  0.1360 -0.4604 -0.6384
17921TIP3    H175178   4.411   0.257   5.606 -1.3919  0.9019 -1.1771
17921TIP3    H275179   4.377   0.114   5.639  1.3460  0.5188  0.1003
17922TIP3   OH275180   3.579   2.298   2.490 -0.2733  0.1693  0.7357
17922TIP3    H175181   3.496   2.334   2.522 -0.5466 -1.2697  1.6786
17922TIP3    H275182   3.554   2.241   2.418  0.1526  1.7500 -0.6985
17923TIP3   OH275183   4.510   3.744  11.930  0.1014 -0.0655  0.3035
17923TIP3    H175184   4.452   3.758  12.005  0.0632 -0.6302  0.3815
17923TIP3    H275185   4.566   3.822  11.928  0.4089 -0.2572  1.1876
17924TIP3   OH275186   3.460   2.619   0.893  0.1138 -0.0162 -0.4666
17924TIP3    H175187   3.547   2.626   0.855  0.5175  1.3812  0.6436
17924TIP3    H275188   3.472   2.563   0.970  0.3599  1.3802  0.5405
17925TIP3   OH275189   3.143   6.502   4.176 -0.2968  0.0523  0.3560
17925TIP3    H175190   3.176   6.442   4.243  2.9194  1.2542 -0.0647
17925TIP3    H275191   3.219   6.521   4.122 -2.2065  1.3686 -1.9323
17926TIP3   OH275192   6.556   1.730  12.889  1.3899 -0.0555  0.1689
17926TIP3    H175193   6.632   1.696  12.842  0.6705 -1.9051  0.3136
17926TIP3    H275194   6.549   1.675  12.967 -0.4253 -0.2506 -0.1196
17927TIP3   OH275195   1.974   1.230   0.430 -0.1148  0.9853 -0.3575
17927TIP3    H175196   1.986   1.317   0.392  1.1497 -0.2718 -2.9731
17927TIP3    H275197   2.034   1.174   0.381 -1.4818 -1.5340  0.7439
17928TIP3   OH275198   0.636   2.463  13.936  0.4646 -0.4299 -0.2162
17928TIP3    H175199   0.605   2.372  13.933  1.2800 -0.7414  0.6091
17928TIP3    H275200   0.720   2.461  13.889 -0.2216  0.1975 -1.4936
17929TIP3   OH275201   1.810   5.473   6.032  0.2788  0.1657  0.1368
17929TIP3    H175202   1.768   5.556   6.009 -0.2661  0.1536  1.0815
17929TIP3    H275203   1.766   5.445   6.112  1.0005 -0.6439  0.2558
17930TIP3   OH275204   2.595   6.605  15.470  0.5216 -0.0306  0.2375
17930TIP3    H175205   2.515   6.590  15.419  0.4451 -2.3494  0.9796
17930TIP3    H275206   2.638   6.678  15.426 -1.0591 -0.0017 -1.3210
17931TIP3   OH275207   1.094   0.226   3.399 -0.1207 -0.7951 -0.3279
17931TIP3    H175208   1.117   0.164   3.468 -1.0207 -1.2058 -0.3950
17931TIP3    H275209   1.178   0.261   3.370  0.3266 -1.2693  0.3696
17932TIP3   OH275210   3.513   3.326   6.192  0.2477  0.1591 -0.7223
17932TIP3    H175211   3.587   3.336   6.252  0.1105  0.5664 -0.6208
17932TIP3    H275212   3.522   3.237   6.157 -0.2243 -0.4521  0.6698
17933TIP3   OH275213   0.432   1.520   5.648 -0.3490 -0.5163  0.4399
17933TIP3    H175214   0.383   1.456   5.700  0.2205 -1.0994  0.2692
17933TIP3    H275215   0.497   1.468   5.601 -1.0239 -0.0241 -1.0676
17934TIP3   OH275216   2.388   3.798   2.601 -0.1195 -0.2683  0.1375
17934TIP3    H175217   2.342   3.851   2.536  0.2016  0.1394  0.2470
17934TIP3    H275218   2.468   3.846   2.619 -0.2120 -0.3771  0.8446
17935TIP3   OH275219   2.489   0.333   0.593 -0.0247  0.4959  0.0276
17935TIP3    H175220   2.469   0.388   0.669 -0.3729  0.6390 -0.1679
17935TIP3    H275221   2.475   0.390   0.518  2.4743  1.0270 -0.0612
17936TIP3   OH275222   0.862   1.414  15.246 -0.0337  0.1265  0.3487
17936TIP3    H175223   0.883   1.321  15.251 -1.7666 -0.5413 -3.0438
17936TIP3    H275224   0.937   1.454  15.202 -0.6338 -0.2256 -1.0162
17937TIP3   OH275225   3.243   1.627  16.341 -0.1269 -0.4060 -0.1709
17937TIP3    H175226   3.313   1.576  16.381 -0.3589 -1.6374 -1.3029
17937TIP3    H275227   3.214   1.686  16.411  1.3689 -0.5587  0.6021
17938TIP3   OH275228   3.026   3.581   3.489  0.4396 -1.0838 -0.0114
17938TIP3    H175229   2.956   3.625   3.442  0.5356 -0.2980  0.5691
17938TIP3    H275230   3.017   3.612   3.579  2.4757  0.2238 -0.2315
17939TIP3   OH275231   5.743   4.999  15.521  0.1770  0.3543 -0.6195
17939TIP3    H175232   5.784   5.080  15.493  1.2548 -0.7055 -2.1812
17939TIP3    H275233   5.817   4.939  15.536 -0.3862  0.5209  3.4657
17940TIP3   OH275234   6.282   0.392   0.147 -0.3776  0.6710 -0.7538
17940TIP3    H175235   6.329   0.409   0.065  1.0578 -1.0417 -0.3132
17940TIP3    H275236   6.223   0.321   0.126  2.0315 -1.7549  0.3737
17941TIP3   OH275237   1.977   4.266  14.468  0.0973 -0.8622 -0.0692
17941TIP3    H175238   2.036   4.337  14.443  0.3070 -1.0607 -0.1419
17941TIP3    H275239   2.010   4.189  14.420  0.1914 -1.1311  0.4211
17942TIP3   OH275240   5.526   3.545   4.914  0.4039 -0.3989  0.2531
17942TIP3    H175241   5.575   3.499   4.982 -0.5214 -0.2054  1.0616
17942TIP3    H275242   5.434   3.521   4.930 -0.0264  1.1970  0.3042
17943TIP3   OH275243   2.687   2.744   4.673  0.5170 -0.2104  0.2731
17943TIP3    H175244   2.598   2.707   4.670 -0.0484  1.1023  0.5856
17943TIP3    H275245   2.712   2.751   4.581 -0.1295  0.4057  0.1363
17944TIP3   OH275246   6.243   2.495   4.471 -0.2308 -0.7144  0.5259
17944TIP3    H175247   6.173   2.557   4.490 -0.4574 -1.2056  1.2777
17944TIP3    H275248   6.322   2.536   4.507 -0.1067 -0.1438 -0.3557
17945TIP3   OH275249   2.568   6.591  14.511 -0.0919 -0.5808 -0.1552
17945TIP3    H175250   2.622   6.534  14.565  0.1269 -0.6010 -0.3907
17945TIP3    H275251   2.632   6.641  14.459 -0.2147  0.8858  1.0540
17946TIP3   OH275252   1.271   0.018  13.433  0.4782  0.2263 -0.0550
17946TIP3    H175253   1.357  -0.019  13.410  0.1695  0.3072 -1.4102
17946TIP3    H275254   1.209  -0.036  13.383 -0.4701 -1.3812  2.7629
17947TIP3   OH275255   2.115   0.578  12.412  0.2482  0.1736 -0.4717
17947TIP3    H175256   2.079   0.640  12.475 -0.1150  1.3607 -1.8073
17947TIP3    H275257   2.126   0.497  12.461 -1.0382  0.7671  0.8398
17948TIP3   OH275258   1.245   1.691   2.648  0.2633  0.7190 -0.0482
17948TIP3    H175259   1.286   1.765   2.693  0.5834 -0.3123  1.3874
17948TIP3    H275260   1.313   1.624   2.644  0.0829  0.6162 -1.6579
17949TIP3   OH275261   2.749   5.993  13.100 -0.3148  0.5808 -0.1275
17949TIP3    H175262   2.767   6.080  13.064 -1.0455  0.2914 -1.2206
17949TIP3    H275263   2.798   5.933  13.043 -1.3011  0.1370 -0.5267
17950TIP3   OH275264   1.277   0.281   3.783  0.4761  0.3322 -0.0022
17950TIP3    H175265   1.249   0.293   3.873  0.4441  0.3632 -0.0162
17950TIP3    H275266   1.241   0.197   3.756  1.0651  0.0004  0.2385
17951TIP3   OH275267   4.537   0.081  10.947  0.2064  0.0144  0.3351
17951TIP3    H175268   4.592   0.055  10.873  0.4173 -1.9990  1.1548
17951TIP3    H275269   4.597   0.125  11.007  0.5892 -0.6751  0.4661
17952TIP3   OH275270   3.923   3.373   4.403 -0.1480 -0.1391  0.2454
17952TIP3    H175271   4.011   3.411   4.399 -1.8121  4.0297  0.4719
17952TIP3    H275272   3.897   3.384   4.495 -2.3379  2.2128 -0.6217
17953TIP3   OH275273   3.197   3.188  14.322 -0.1732  0.5635 -0.2257
17953TIP3    H175274   3.222   3.185  14.415  2.0520  2.7805 -0.7084
17953TIP3    H275275   3.129   3.255  14.318  1.0219  1.7775 -0.4555
17954TIP3   OH275276   0.908   0.245   0.294  0.1569 -0.3578 -0.1281
17954TIP3    H175277   0.900   0.157   0.330 -0.2637 -0.2229  0.1164
17954TIP3    H275278   0.891   0.303   0.368 -2.9106 -0.0712 -0.9666
17955TIP3   OH275279   5.969   0.666  12.723  0.2660  0.2194  0.5099
17955TIP3    H175280   6.020   0.742  12.751  0.0770  0.9903 -1.1777
17955TIP3    H275281   6.020   0.590  12.753 -0.1046  0.9676  3.2099
17956TIP3   OH275282   2.542   6.093   4.323  1.0057 -0.0378  0.2064
17956TIP3    H175283   2.525   6.060   4.235  0.6703 -0.3335  0.3757
17956TIP3    H275284   2.615   6.153   4.313  2.7244 -2.0658  0.1332
17957TIP3   OH275285   5.230   5.251   0.160  0.0280  0.2338 -0.2275
17957TIP3    H175286   5.313   5.272   0.204 -1.5373  0.9746  2.4983
17957TIP3    H275287   5.225   5.156   0.161  0.9235  0.1782 -0.5709
17958TIP3   OH275288   2.261   4.924   1.494  0.0515  0.0286 -0.0079
17958TIP3    H175289   2.245   4.886   1.580 -1.8904  1.0332  0.1109
17958TIP3    H275290   2.353   4.906   1.476  0.0196 -1.7931  1.4776
17959TIP3   OH275291   3.982   3.960  12.202  0.2446  0.3843 -0.2243
17959TIP3    H175292   4.025   4.045  12.190  0.2406  0.5482  0.8695
17959TIP3    H275293   3.956   3.959  12.295  0.3852 -0.8702 -0.1880
17960TIP3   OH275294   6.007   2.582   3.268  0.2357  0.1852  0.0474
17960TIP3    H175295   5.988   2.490   3.286 -0.2332 -0.1269 -1.8772
17960TIP3    H275296   5.989   2.627   3.350  0.3450 -1.4167  0.9818
17961TIP3   OH275297   3.118   1.918   2.201 -0.2128  0.4171 -0.4105
17961TIP3    H175298   3.205   1.886   2.224 -0.3462  0.2660 -0.1272
17961TIP3    H275299   3.102   1.883   2.113 -0.1967  0.0355 -0.2612
17962TIP3   OH275300   4.695   6.394   1.543  0.0919  0.1502  0.4554
17962TIP3    H175301   4.644   6.321   1.577 -2.2340  1.3658 -0.3229
17962TIP3    H275302   4.680   6.392   1.449  3.2055 -0.7270 -0.0801
17963TIP3   OH275303   4.492   6.777  11.257  0.1435 -0.0183  0.3700
17963TIP3    H175304   4.576   6.737  11.277  0.6641  1.2415  0.7602
17963TIP3    H275305   4.503   6.870  11.280 -1.3644  0.1456  0.4946
17964TIP3   OH275306   5.277   5.932   0.742  0.4149  0.1818  0.0624
17964TIP3    H175307   5.190   5.968   0.726  0.4451  0.0894 -0.3015
17964TIP3    H275308   5.281   5.922   0.837 -0.3296 -0.7332 -0.0028
17965TIP3   OH275309   4.661   3.662   4.850 -0.6965 -0.2043 -0.5402
17965TIP3    H175310   4.683   3.579   4.892 -1.7830 -0.4963 -0.5335
17965TIP3    H275311   4.628   3.717   4.920 -1.3755 -0.2770 -0.8016
17966TIP3   OH275312   6.743   5.588   1.929  0.2194 -0.2088  0.0404
17966TIP3    H175313   6.743   5.634   2.013  1.2596 -0.1573  0.0159
17966TIP3    H275314   6.811   5.522   1.938  0.1646 -0.3665 -0.6818
17967TIP3   OH275315   6.694   1.864   2.026 -0.1696 -0.0301  0.1008
17967TIP3    H175316   6.621   1.802   2.031  0.1142 -0.6691 -2.6321
17967TIP3    H275317   6.751   1.828   1.958  2.2826  0.9054  1.6169
17968TIP3   OH275318   5.605   4.779   5.354 -0.1176  0.1663 -0.2794
17968TIP3    H175319   5.678   4.805   5.409 -0.5639  0.8877 -0.0172
17968TIP3    H275320   5.644   4.758   5.269  0.4671 -0.0831  0.0534
17969TIP3   OH275321   3.793   3.529  14.979  0.7324  0.1112  0.2853
17969TIP3    H175322   3.839   3.453  14.944 -2.1160 -2.0439  1.0374
17969TIP3    H275323   3.760   3.574  14.901 -0.8766 -1.6356 -0.1058
17970TIP3   OH275324   4.352   2.535  12.460  0.0904 -0.1730  0.1114
17970TIP3    H175325   4.268   2.519  12.418  0.3162  1.2831 -0.9387
17970TIP3    H275326   4.344   2.622  12.499  0.6527 -0.5830  1.1674
17971TIP3   OH275327   6.263   2.119   6.329 -0.9041  0.3717  0.1650
17971TIP3    H175328   6.195   2.179   6.300 -0.6899  0.4915 -0.0959
17971TIP3    H275329   6.332   2.176   6.364 -0.4805  0.3052 -0.5550
17972TIP3   OH275330   6.123   4.400   1.582  0.0505 -0.1029  0.8043
17972TIP3    H175331   6.034   4.374   1.606 -0.0465 -0.2831  0.2573
17972TIP3    H275332   6.119   4.495   1.575  0.2102  0.0059  2.0151
17973TIP3   OH275333   3.607   4.116  13.917  0.1977  0.6409 -0.0047
17973TIP3    H175334   3.691   4.092  13.879 -0.0975 -2.0449  0.9071
17973TIP3    H275335   3.628   4.184  13.982  1.8979 -1.0446  1.2613
17974TIP3   OH275336   3.768   4.569   3.456  0.0733  0.2382  0.1656
17974TIP3    H175337   3.687   4.613   3.429  0.7929  0.7846 -1.1925
17974TIP3    H275338   3.827   4.581   3.381  0.4186 -2.7381 -0.1036
17975TIP3   OH275339   5.780   6.169  12.919 -0.0338  0.2929  0.5264
17975TIP3    H175340   5.767   6.127  13.004 -1.6976  0.6529  0.4548
17975TIP3    H275341   5.693   6.200  12.894  0.4789  0.3507 -1.2267
17976TIP3   OH275342   5.908   4.406   3.028 -0.4240  0.1015  0.4998
17976TIP3    H175343   5.981   4.349   3.052  1.3465  0.9078 -2.6174
17976TIP3    H275344   5.831   4.365   3.066  1.2820 -2.3732  1.3902
17977TIP3   OH275345   4.024   6.017   4.279 -0.5106 -0.3126  0.2374
17977TIP3    H175346   4.061   6.045   4.363  0.6786 -0.7024 -0.1355
17977TIP3    H275347   3.978   6.094   4.246  0.2005  0.2776  0.6040
17978TIP3   OH275348   0.385   0.183  10.983  0.3945 -0.0601  0.4843
17978TIP3    H175349   0.313   0.163  10.923 -2.0297  1.1529  2.8854
17978TIP3    H275350   0.361   0.267  11.022  3.0663  0.3062  1.4625
17979TIP3   OH275351   6.004   3.222   3.148  0.1559 -0.2584 -0.6295
17979TIP3    H175352   6.010   3.145   3.092  0.4377 -0.1316 -0.7781
17979TIP3    H275353   5.962   3.191   3.228  0.0369 -0.5090 -0.7890
17980TIP3   OH275354   4.812   5.343  10.428 -0.0858  0.3202 -0.0928
17980TIP3    H175355   4.877   5.413  10.431 -2.9183  3.0062  0.6817
17980TIP3    H275356   4.773   5.350  10.341  0.3091 -0.9961 -0.3929
17981TIP3   OH275357   1.687   2.297   0.590  0.0877  0.1057  0.3184
17981TIP3    H175358   1.637   2.217   0.573  0.4851  0.0122 -0.4157
17981TIP3    H275359   1.621   2.366   0.595 -0.0607  0.0811 -1.2845
17982TIP3   OH275360   2.651   5.431  14.194 -0.2535  0.1675 -0.0092
17982TIP3    H175361   2.586   5.361  14.196 -0.5319  0.4477  3.0206
17982TIP3    H275362   2.600   5.511  14.192  0.0493  0.3634  0.0914
17983TIP3   OH275363   5.143   2.926   2.706  0.3780 -0.4587  0.2242
17983TIP3    H175364   5.238   2.939   2.709  0.4186 -0.8207  0.6235
17983TIP3    H275365   5.124   2.911   2.613  0.4285  1.6168 -0.1470
17984TIP3   OH275366   2.397   3.989   1.390 -0.0389  0.2851  0.4686
17984TIP3    H175367   2.402   4.083   1.376  0.1301 -0.0578 -1.9647
17984TIP3    H275368   2.303   3.970   1.396 -0.0603  0.6465  1.4233
17985TIP3   OH275369   4.671   5.586  11.808  0.1700  0.1399  0.3717
17985TIP3    H175370   4.681   5.649  11.879  1.4197  0.0473  0.2924
17985TIP3    H275371   4.656   5.639  11.730 -1.5316  0.2297  0.7499
17986TIP3   OH275372   0.028   2.910  12.288  0.3390  0.1106  0.4349
17986TIP3    H175373   0.111   2.868  12.311  0.6637 -0.5325 -1.7548
17986TIP3    H275374   0.021   2.898  12.193 -2.1933  0.2938  0.5678
17987TIP3   OH275375   6.340   6.012   0.876 -0.4701 -0.1370  0.4106
17987TIP3    H175376   6.248   6.030   0.861 -0.2033 -0.1353 -1.3281
17987TIP3    H275377   6.386   6.059   0.805  0.7435 -1.3719  0.3572
17988TIP3   OH275378   0.003   3.875  14.171 -0.2334  0.1595  0.3065
17988TIP3    H175379   0.030   3.850  14.259  0.2598  1.1215  0.4384
17988TIP3    H275380   0.078   3.855  14.115 -0.3743 -0.0183  0.1808
17989TIP3   OH275381   5.654   0.608   3.751 -0.5143 -0.3460 -0.4159
17989TIP3    H175382   5.739   0.624   3.709  0.5001 -3.9884  0.0077
17989TIP3    H275383   5.635   0.688   3.800  1.7582  1.2520 -2.0543
17990TIP3   OH275384   4.730   1.654   1.526 -0.0058 -0.2979  0.3799
17990TIP3    H175385   4.824   1.658   1.506 -0.5195  2.1209 -1.7683
17990TIP3    H275386   4.725   1.673   1.620  1.6577 -0.5187  0.5343
17991TIP3   OH275387   4.725   5.873  16.722 -0.1106  0.0862 -0.1004
17991TIP3    H175388   4.764   5.960  16.711  0.3536 -0.3267 -1.7875
17991TIP3    H275389   4.637   5.890  16.756  0.0742  1.1899 -0.1608
17992TIP3   OH275390   4.692   4.829   2.556 -1.1718 -0.7353 -0.6625
17992TIP3    H175391   4.662   4.816   2.646 -2.5242 -1.7801 -1.2444
17992TIP3    H275392   4.708   4.740   2.524 -0.3317 -0.3449 -1.3276
17993TIP3   OH275393   4.914   3.269  14.578  0.7457 -0.3255 -0.7582
17993TIP3    H175394   4.939   3.190  14.626  1.0646  1.1149  1.5347
17993TIP3    H275395   4.995   3.298  14.537  0.9282 -0.4696 -0.5070
17994TIP3   OH275396   1.024   1.784  14.597  0.1964  0.2786 -0.1997
17994TIP3    H175397   1.113   1.804  14.568  0.4780  1.3876  1.3920
17994TIP3    H275398   1.006   1.697  14.561  1.9629 -0.0015 -0.4298
17995TIP3   OH275399   3.421   4.105   2.882  0.0771  0.1173 -0.3870
17995TIP3    H175400   3.352   4.053   2.841  0.9019 -1.1771 -0.1318
17995TIP3    H275401   3.408   4.091   2.976  2.1660 -2.0607 -0.3969
17996TIP3   OH275402   4.537   0.476  14.410 -0.1078  1.0368  0.3264
17996TIP3    H175403   4.462   0.473  14.351 -0.1536  1.4444  0.3661
17996TIP3    H275404   4.610   0.445  14.358 -0.6269 -1.0668  0.7809
17997TIP3   OH275405   4.184   5.507   5.608  0.5971 -0.5096  0.5194
17997TIP3    H175406   4.152   5.447   5.541 -1.2092  1.5727 -0.5476
17997TIP3    H275407   4.265   5.543   5.572  0.3707 -0.4444  0.0843
17998TIP3   OH275408   1.770   4.341   4.201 -0.4190  0.1348 -0.0009
17998TIP3    H175409   1.762   4.437   4.205  1.0502  0.1753  3.2432
17998TIP3    H275410   1.860   4.324   4.226 -0.2360 -2.0871 -2.0180
17999TIP3   OH275411   2.008   3.604   3.643 -0.2095  0.0053 -0.2528
17999TIP3    H175412   2.102   3.586   3.640 -0.2254 -0.2947  0.8763
17999TIP3    H275413   2.001   3.698   3.624  0.4870  0.4831  1.7620
18000TIP3   OH275414   4.759   1.010   0.930 -0.1364 -0.5703  0.4046
18000TIP3    H175415   4.836   0.954   0.921 -0.7677 -1.6970  1.9093
18000TIP3    H275416   4.778   1.066   1.005 -0.5179 -0.3914  0.3692
18001TIP3   OH275417   3.329   2.283   6.460 -0.2997  0.2007  0.3283
18001TIP3    H175418   3.368   2.371   6.459  0.2663 -0.0486 -1.3825
18001TIP3    H275419   3.386   2.232   6.517  1.1173  0.1847 -1.0872
18002TIP3   OH275420   1.848   5.126  16.774 -0.0855  0.1373 -0.1977
18002TIP3    H175421   1.914   5.061  16.798 -0.8645  0.2186  2.2899
18002TIP3    H275422   1.890   5.210  16.795  0.4163  0.3821 -2.1412
18003TIP3   OH275423   1.550   6.226  13.481  0.5823 -0.0442  0.1283
18003TIP3    H175424   1.586   6.145  13.515 -1.1930 -1.2416 -0.7290
18003TIP3    H275425   1.485   6.198  13.416 -1.2583  1.9923  0.9983
18004TIP3   OH275426   0.877   3.600   3.767  0.4335 -0.0797  0.1065
18004TIP3    H175427   0.788   3.566   3.764  1.0023 -1.6714  0.5951
18004TIP3    H275428   0.930   3.533   3.725  1.4524  0.6894  0.1363
18005TIP3   OH275429   3.903   2.052  16.488 -0.1945  0.9184  0.0596
18005TIP3    H175430   3.921   1.983  16.551 -0.4874  1.9228  1.2752
18005TIP3    H275431   3.878   2.006  16.408 -2.0907 -0.3550  1.3571
18006TIP3   OH275432   5.374   0.888  13.290 -0.3598  0.0262  0.1765
18006TIP3    H175433   5.299   0.829  13.281  0.1362 -0.6124  0.1588
18006TIP3    H275434   5.345   0.954  13.352 -1.6482  0.9370 -1.3586
18007TIP3   OH275435   0.229   6.123  11.688  0.3581 -0.0262  0.3000
18007TIP3    H175436   0.232   6.210  11.728  0.3279  0.2780 -0.3579
18007TIP3    H275437   0.288   6.129  11.613 -1.0765 -0.0052 -0.8520
18008TIP3   OH275438   1.361   0.433  15.740 -0.6439  0.1397 -0.2896
18008TIP3    H175439   1.302   0.358  15.738  0.9742 -1.1452 -1.0818
18008TIP3    H275440   1.420   0.414  15.813 -0.4657  0.8315 -0.2566
18009TIP3   OH275441   5.993   6.237   4.587 -0.1514 -0.2244  0.0787
18009TIP3    H175442   5.955   6.153   4.612  1.8250 -0.8357  1.1750
18009TIP3    H275443   6.002   6.284   4.670  0.7754  0.1744 -0.2393
18010TIP3   OH275444   2.961   1.387  12.606 -0.3134  0.1953 -0.4618
18010TIP3    H175445   2.975   1.364  12.515  0.3529  1.7179 -0.7476
18010TIP3    H275446   2.923   1.308  12.645 -0.2924 -0.5665 -1.9679
18011TIP3   OH275447   0.640   5.941  13.876 -0.0224  0.1991 -0.1564
18011TIP3    H175448   0.678   5.889  13.806  1.1357  0.5018  0.2354
18011TIP3    H275449   0.668   6.031  13.857  1.2976  0.1312  1.3163
18012TIP3   OH275450   4.698   4.995   4.185 -0.0516  0.1460  0.8370
18012TIP3    H175451   4.658   4.908   4.195  1.0233 -0.6603 -1.5499
18012TIP3    H275452   4.765   4.999   4.253  2.0746 -2.2068 -1.0202
18013TIP3   OH275453   2.221   3.417   5.898  0.0702  0.2134  0.5981
18013TIP3    H175454   2.309   3.423   5.860 -0.5002  0.3751 -0.7229
18013TIP3    H275455   2.236   3.415   5.993  1.6913 -2.9059  0.3633
18014TIP3   OH275456   5.471   1.342   0.666  0.5593  0.4999 -0.3827
18014TIP3    H175457   5.401   1.353   0.601  0.6756  1.7996 -0.2929
18014TIP3    H275458   5.513   1.260   0.641 -0.1826  0.3569 -1.2069
18015TIP3   OH275459   5.453   4.460   6.106  0.1235  0.1508 -0.2677
18015TIP3    H175460   5.457   4.364   6.096 -0.7080 -0.0454  1.1927
18015TIP3    H275461   5.543   4.488   6.094  0.5189 -0.9131  0.0910
18016TIP3   OH275462   6.471   5.026  16.953 -0.3153 -0.7650 -0.1308
18016TIP3    H175463   6.562   5.007  16.976 -0.2992 -0.3747  0.1378
18016TIP3    H275464   6.477   5.064  16.865 -0.3526 -2.0250 -0.6908
18017TIP3   OH275465   4.191   1.153  15.545  0.2825 -0.0987  0.2815
18017TIP3    H175466   4.254   1.112  15.603  0.6262  1.8553  1.3531
18017TIP3    H275467   4.199   1.247  15.563 -1.8041  0.3118 -0.6843
18018TIP3   OH275468   2.311   2.000   2.732 -0.1820 -0.1210  0.2036
18018TIP3    H175469   2.283   2.014   2.822  2.2310 -0.4186  1.0494
18018TIP3    H275470   2.338   2.087   2.701 -0.8564 -0.0460 -0.1770
18019TIP3   OH275471   2.321   2.628   2.864 -0.0159  0.0725  0.5446
18019TIP3    H175472   2.296   2.601   2.776 -2.1164  3.0836  0.1369
18019TIP3    H275473   2.252   2.591   2.921  0.9344 -1.2436  0.8641
18020TIP3   OH275474   3.423   5.560  10.596 -0.2730  1.3315  0.6041
18020TIP3    H175475   3.478   5.481  10.592 -1.9055  0.1612  0.5076
18020TIP3    H275476   3.467   5.623  10.540  0.6623  0.2056  0.0382
18021TIP3   OH275477   2.621   6.037  11.142  0.1048 -0.7356  0.0333
18021TIP3    H175478   2.631   6.022  11.236 -0.3700  0.2374  0.2432
18021TIP3    H275479   2.640   5.952  11.102  1.8361 -0.7700  0.9036
18022TIP3   OH275480   1.471   2.805  13.679  0.7454 -0.3694 -0.3911
18022TIP3    H175481   1.559   2.780  13.707  1.0950  1.3396  0.1000
18022TIP3    H275482   1.414   2.773  13.749  1.0788 -0.5860 -0.2159
18023TIP3   OH275483   5.917   5.162  17.077  0.6043 -1.1152  0.0281
18023TIP3    H175484   5.827   5.137  17.098  0.4834  0.5543  1.6747
18023TIP3    H275485   5.959   5.080  17.050 -0.9827 -2.2083  0.7809
18024TIP3   OH275486   5.966   4.498  11.659  0.6627 -0.6624 -0.3136
18024TIP3    H175487   5.870   4.492  11.661  0.6716 -0.8195 -0.3266
18024TIP3    H275488   5.985   4.587  11.690  0.5617 -1.0982  1.0506
18025TIP3   OH275489   3.545   0.526   5.864 -0.0936  0.0255  0.3551
18025TIP3    H175490   3.570   0.477   5.943  0.6888 -0.3115 -0.0972
18025TIP3    H275491   3.525   0.614   5.896  0.6621  0.0158  0.8722
18026TIP3   OH275492   2.397   5.261  16.069  0.4769 -0.1565 -0.0625
18026TIP3    H175493   2.385   5.351  16.099  1.3023 -0.3397  0.8246
18026TIP3    H275494   2.311   5.235  16.036 -0.4784  0.0128  2.2223
18027TIP3   OH275495   3.205   2.606  11.670 -0.2181 -0.1637 -0.0513
18027TIP3    H175496   3.182   2.550  11.595  2.4991  0.9286 -1.7894
18027TIP3    H275497   3.206   2.695  11.634  2.1699  0.2732  0.9825
18028TIP3   OH275498   5.732   3.703  13.351 -0.0486  0.6416 -0.0703
18028TIP3    H175499   5.672   3.683  13.280 -0.2966 -1.8686  0.7841
18028TIP3    H275500   5.815   3.664  13.324  0.0327  0.2704  0.7061
18029TIP3   OH275501   3.968   2.060  16.040 -0.4069 -0.1512  0.5988
18029TIP3    H175502   4.052   2.053  16.086  1.4988 -1.3865 -2.9299
18029TIP3    H275503   3.970   2.147  16.000 -0.1629 -0.7639 -0.7185
18030TIP3   OH275504   0.909   3.101  16.557  0.8737  0.0563 -0.1313
18030TIP3    H175505   0.861   3.167  16.508  1.3597  0.9862  0.6490
18030TIP3    H275506   0.847   3.029  16.567  0.6266  0.0099 -1.7541
18031TIP3   OH275507   2.802   0.415  12.758  0.1687 -0.2214  0.2786
18031TIP3    H175508   2.862   0.353  12.717  0.1629 -0.2576  0.3249
18031TIP3    H275509   2.824   0.412  12.851  0.5296  0.2421  0.2120
18032TIP3   OH275510   2.525   0.448   5.842 -0.0123  0.2793 -0.6207
18032TIP3    H175511   2.484   0.367   5.814  0.0415 -0.5085  1.5278
18032TIP3    H275512   2.550   0.433   5.933  0.8224  2.3806 -0.4653
18033TIP3   OH275513   2.035   1.971   5.861  0.7929 -0.0356  0.2169
18033TIP3    H175514   1.942   1.951   5.849  0.8468 -0.0372 -0.2187
18033TIP3    H275515   2.075   1.950   5.777  1.1393  0.2411  0.3102
18034TIP3   OH275516   2.509   5.886   1.122  0.0244  0.4285  0.3709
18034TIP3    H175517   2.519   5.834   1.042  1.2927 -2.7675  2.4965
18034TIP3    H275518   2.453   5.833   1.178 -0.5406  2.4673  1.7960
18035TIP3   OH275519   1.706   0.789  12.423  0.6529  0.3484 -0.1094
18035TIP3    H175520   1.760   0.860  12.386  0.4024  0.3021 -0.5681
18035TIP3    H275521   1.654   0.758  12.349  0.5933 -0.1610  0.1484
18036TIP3   OH275522   6.771   5.814  17.216  0.6029  0.1769  0.1707
18036TIP3    H175523   6.760   5.895  17.266 -0.2213 -0.3898  0.9163
18036TIP3    H275524   6.745   5.837  17.127  1.0573  0.9146  0.2219
18037TIP3   OH275525   2.791   5.308   6.206 -0.7016  0.0817 -0.6542
18037TIP3    H175526   2.741   5.331   6.128  0.2013 -1.6515 -1.7799
18037TIP3    H275527   2.865   5.257   6.173  1.0553  1.4130  1.1025
18038TIP3   OH275528   2.233   5.477   2.208 -0.4208 -0.0796 -0.2519
18038TIP3    H175529   2.275   5.435   2.283  1.2554 -1.2223 -1.7825
18038TIP3    H275530   2.279   5.560   2.199  0.5287 -0.6618 -0.9844
18039TIP3   OH275531   4.917   4.874  10.994 -0.2603 -0.0174  0.8727
18039TIP3    H175532   4.828   4.847  11.014 -0.0722  0.7462  2.9267
18039TIP3    H275533   4.954   4.802  10.943 -1.3614 -1.3330  1.8927
18040TIP3   OH275534   0.871   2.249  15.154  0.1887 -0.0010  0.0357
18040TIP3    H175535   0.816   2.326  15.139  1.1949  0.7826  0.2272
18040TIP3    H275536   0.810   2.176  15.161 -0.8693  0.9282  0.8278
18041TIP3   OH275537   1.342   1.796  17.210 -0.0831  0.6883  0.3328
18041TIP3    H175538   1.406   1.760  17.149  0.0965  0.4722  0.6498
18041TIP3    H275539   1.365   1.889  17.217  0.3050  0.5741  0.5845
18042TIP3   OH275540   2.105   4.379   2.043  0.1281  0.5991  0.2629
18042TIP3    H175541   2.017   4.374   2.080  0.1922 -0.9220  0.2061
18042TIP3    H275542   2.091   4.402   1.951 -0.1797  0.7899  0.3569
18043TIP3   OH275543   6.536   4.444  14.766  0.4122 -0.2038 -0.3478
18043TIP3    H175544   6.599   4.453  14.837 -0.3446 -2.0186  0.6056
18043TIP3    H275545   6.451   4.460  14.807  0.1431  0.9515 -1.3408
18044TIP3   OH275546   0.257   1.964  16.407  0.2338 -0.0497 -0.2017
18044TIP3    H175547   0.302   1.916  16.337  1.2180  1.1126 -0.3791
18044TIP3    H275548   0.197   2.022  16.361  2.1864  2.0341 -0.1812
18045TIP3   OH275549   4.123   0.919  13.812 -0.6526 -0.2093  0.5116
18045TIP3    H175550   4.087   0.833  13.788  1.0070  0.1974 -3.7656
18045TIP3    H275551   4.209   0.899  13.847 -1.0789 -0.4253  1.4532
18046TIP3   OH275552   6.485   2.118   0.041  0.6490 -1.0515 -0.1970
18046TIP3    H175553   6.558   2.172   0.069 -0.9528  0.4218  1.2119
18046TIP3    H275554   6.415   2.180   0.020 -0.5160 -2.4728 -0.6213
18047TIP3   OH275555   3.913   1.786   1.473 -0.1639  0.5581 -0.1744
18047TIP3    H175556   3.981   1.745   1.527  0.5530 -0.5449 -1.8966
18047TIP3    H275557   3.913   1.878   1.500  1.0840  0.2882  0.7819
18048TIP3   OH275558   1.787   2.579  11.385 -0.6775  0.2830 -0.2913
18048TIP3    H175559   1.858   2.595  11.446 -0.1198  1.5015 -1.2358
18048TIP3    H275560   1.725   2.650  11.401 -0.5229  0.6173 -1.1242
18049TIP3   OH275561   2.780   5.036  15.940  0.3179  0.2775 -0.1404
18049TIP3    H175562   2.795   5.123  15.976  0.2287  0.0028  0.5568
18049TIP3    H275563   2.686   5.021  15.952 -0.0122  0.8184 -1.8926
18050TIP3   OH275564   0.124   1.614   6.061 -0.2557 -0.2307  0.2956
18050TIP3    H175565   0.053   1.590   6.121 -1.2427 -2.5330 -1.7333
18050TIP3    H275566   0.192   1.548   6.076 -0.7502 -1.1701 -1.5337
18051TIP3   OH275567   0.675   3.650  12.422  0.3738  0.6079  0.0441
18051TIP3    H175568   0.719   3.666  12.339  2.1109  0.5136  0.9223
18051TIP3    H275569   0.643   3.560  12.415  0.7780  0.4970 -0.4103
18052TIP3   OH275570   3.296   3.993  13.496 -0.7975 -0.7625 -0.1475
18052TIP3    H175571   3.365   4.053  13.524 -0.8224  1.7228 -4.9371
18052TIP3    H275572   3.215   4.039  13.516 -0.9747 -1.5606  1.0187
18053TIP3   OH275573   2.844   1.603  11.535  0.4345  0.7032 -0.2713
18053TIP3    H175574   2.854   1.698  11.532 -1.2618  0.8510 -2.0075
18053TIP3    H275575   2.771   1.588  11.595 -0.3491  0.5992 -1.2363
18054TIP3   OH275576   0.755   2.325  10.484  0.2180  0.0857  0.0732
18054TIP3    H175577   0.726   2.308  10.574 -0.6439  2.0569  0.1892
18054TIP3    H275578   0.734   2.417  10.469  2.6952  0.4682 -1.2863
18055TIP3   OH275579   0.446   6.105  12.216  0.6426 -0.3934  0.1209
18055TIP3    H175580   0.408   6.057  12.290  0.7793 -1.1590 -0.2991
18055TIP3    H275581   0.385   6.177  12.201  0.4428 -0.4185  0.7698
18056TIP3   OH275582   4.144   6.552   5.269  0.1936 -0.1460  0.9827
18056TIP3    H175583   4.217   6.610   5.291 -1.3274  2.3618 -0.2891
18056TIP3    H275584   4.077   6.573   5.334 -0.0088 -1.1820  1.1050
18057TIP3   OH275585   5.578   6.385  11.236  0.0359 -0.3311 -0.0614
18057TIP3    H175586   5.644   6.452  11.219 -1.2162  0.6966 -1.0043
18057TIP3    H275587   5.584   6.325  11.161 -0.3852  0.0109 -0.3745
18058TIP3   OH275588   5.821   0.167  15.812  0.4407 -0.3277 -0.0581
18058TIP3    H175589   5.871   0.137  15.736  1.3115  2.7454 -0.7471
18058TIP3    H275590   5.734   0.189  15.777  0.4437 -0.1179  0.0630
18059TIP3   OH275591   2.765   6.768  15.303  0.1796  0.0353  0.2014
18059TIP3    H175592   2.849   6.813  15.296 -1.8805  4.2861  1.2814
18059TIP3    H275593   2.715   6.797  15.227 -2.3078  2.1614  2.5444
18060TIP3   OH275594   5.000   4.385  16.607  0.3194 -0.4686 -0.0521
18060TIP3    H175595   5.017   4.340  16.524 -2.1550 -1.4027 -0.0943
18060TIP3    H275596   5.070   4.354  16.665  1.3601 -0.7596 -1.4289
18061TIP3   OH275597   5.712   2.779   4.207  0.3992  0.3370 -0.2013
18061TIP3    H175598   5.648   2.709   4.222 -0.1007  0.7977 -0.1708
18061TIP3    H275599   5.685   2.850   4.264 -0.8014  1.6348 -2.3150
18062TIP3   OH275600   1.531   4.194   2.560 -0.3008  0.1869 -0.0952
18062TIP3    H175601   1.488   4.214   2.476 -0.6071  1.8285  0.4489
18062TIP3    H275602   1.484   4.117   2.592  0.9007 -1.5027 -2.2045
18063TIP3   OH275603   2.991   1.498   5.051 -0.2949 -1.0479 -0.0300
18063TIP3    H175604   2.944   1.490   4.968  0.6374 -0.3966 -0.6376
18063TIP3    H275605   3.069   1.550   5.029 -0.6401  0.1549  1.4892
18064TIP3   OH275606   2.341   1.658  17.074 -0.2059  0.2796 -0.1750
18064TIP3    H175607   2.395   1.582  17.093 -0.9107 -0.3309 -0.6045
18064TIP3    H275608   2.253   1.633  17.101 -0.5455  0.7392 -0.8368
18065TIP3   OH275609   6.551   4.880  16.569 -0.1752  0.1097  0.5066
18065TIP3    H175610   6.510   4.886  16.483  1.5105 -0.7288 -0.4004
18065TIP3    H275611   6.550   4.969  16.603  1.0688  0.8682 -1.3388
18066TIP3   OH275612   4.580   0.372   6.327 -0.2337  0.0612  0.5929
18066TIP3    H175613   4.526   0.403   6.400  0.6226 -0.0078  1.2661
18066TIP3    H275614   4.600   0.281   6.349  0.4381  0.1892  0.5248
18067TIP3   OH275615   2.482   3.036  12.160  0.0534  0.1188 -0.4327
18067TIP3    H175616   2.399   3.061  12.202  0.1079  0.9054 -0.7923
18067TIP3    H275617   2.460   2.957  12.110 -0.6036  0.6212 -0.9436
18068TIP3   OH275618   5.458   2.126   2.523 -0.4659 -0.4570 -0.5989
18068TIP3    H175619   5.427   2.166   2.441  2.4500  0.9054 -1.1093
18068TIP3    H275620   5.494   2.042   2.497  3.5141  1.3490 -1.3816
18069TIP3   OH275621   5.928   2.208  13.648  0.4088  0.2747 -0.4011
18069TIP3    H175622   5.896   2.123  13.618 -0.7175  0.2312  0.9042
18069TIP3    H275623   5.967   2.191  13.734  0.0736  1.0942 -0.0800
18070TIP3   OH275624   6.469   0.995   3.245 -0.4896  0.1886 -0.1703
18070TIP3    H175625   6.476   0.923   3.183 -0.5981  1.2491 -1.4519
18070TIP3    H275626   6.505   0.961   3.327 -2.2030 -1.8866 -0.2456
18071TIP3   OH275627   2.567   0.303   3.291 -0.2681  0.1479  0.0335
18071TIP3    H175628   2.512   0.377   3.266  1.0233  1.7135  1.5947
18071TIP3    H275629   2.512   0.250   3.348 -0.4584  1.2198  0.8605
18072TIP3   OH275630   2.279   2.102  14.802 -0.2742  0.0623 -0.3509
18072TIP3    H175631   2.299   2.011  14.780  0.9162 -0.5799  3.0924
18072TIP3    H275632   2.184   2.109  14.792 -0.5946 -2.0588  0.9591
18073TIP3   OH275633   4.078   1.985  13.411 -0.2501 -0.0092 -0.2756
18073TIP3    H175634   4.069   1.997  13.316 -0.4858  0.7048 -0.1682
18073TIP3    H275635   4.072   1.891  13.424 -4.1950  0.1075 -0.6109
18074TIP3   OH275636   2.464   2.957   0.658  0.3612 -0.0493 -0.1251
18074TIP3    H175637   2.434   2.910   0.736  0.3373 -0.7110 -0.5319
18074TIP3    H275638   2.554   2.983   0.679  0.6323 -0.9210 -0.1839
18075TIP3   OH275639   4.948   0.329   1.276 -0.6787  0.2122 -0.1369
18075TIP3    H175640   4.994   0.245   1.287 -0.9019  0.0511 -0.4531
18075TIP3    H275641   4.891   0.316   1.201 -0.2717  0.8426 -0.5591
18076TIP3   OH275642   6.183   1.401  12.053 -0.3486  0.1319 -0.2522
18076TIP3    H175643   6.167   1.396  11.959 -1.8900  0.5951 -0.0266
18076TIP3    H275644   6.278   1.403  12.061 -0.1840  4.5667 -2.0884
18077TIP3   OH275645   0.597   5.363  16.449  0.0596 -0.3550 -0.0673
18077TIP3    H175646   0.606   5.354  16.544 -0.2507  2.4179  0.2570
18077TIP3    H275647   0.653   5.293  16.414  0.2350 -1.3846  2.1255
18078TIP3   OH275648   3.305   3.023  13.632  0.3674 -0.2627  0.2721
18078TIP3    H175649   3.334   2.964  13.701  0.9243  1.3474  1.4617
18078TIP3    H275650   3.234   3.074  13.672  2.2850  2.3490  0.5181
18079TIP3   OH275651   6.388   3.013  11.437 -0.0729  0.2223  0.0333
18079TIP3    H175652   6.441   2.944  11.396 -0.9129 -2.0503  2.6004
18079TIP3    H275653   6.306   3.013  11.388 -0.7356 -1.8624  1.0756
18080TIP3   OH275654   3.859   0.722   2.008  0.6844  0.1499  0.0567
18080TIP3    H175655   3.840   0.684   1.922  0.3895 -1.1593  0.6807
18080TIP3    H275656   3.865   0.646   2.067 -0.1276  1.0821  1.3845
18081TIP3   OH275657   0.713   5.115  12.387  0.4403 -0.0882 -0.4209
18081TIP3    H175658   0.660   5.184  12.428  0.2548 -1.1028  1.0937
18081TIP3    H275659   0.649   5.049  12.361  0.8564 -0.8327  0.4442
18082TIP3   OH275660   1.991   3.231   5.168  0.0268 -0.1689 -0.1136
18082TIP3    H175661   1.984   3.213   5.262  0.6701  0.6766  0.0964
18082TIP3    H275662   1.900   3.232   5.137 -0.0976 -2.4972  0.1087
18083TIP3   OH275663   0.734   4.053   2.526 -0.0595  0.5348  0.2474
18083TIP3    H175664   0.671   4.050   2.455 -0.3694 -0.5903  0.5487
18083TIP3    H275665   0.708   4.128   2.579  0.4771  1.6892 -1.0838
18084TIP3   OH275666   3.217   2.665  13.801  0.5715  0.5206 -0.5193
18084TIP3    H175667   3.304   2.641  13.833 -0.2362  1.0229  2.1834
18084TIP3    H275668   3.220   2.761  13.794 -0.7429  0.8426  2.7244
18085TIP3   OH275669   4.667   2.144  15.820  0.4283 -0.4519 -0.1056
18085TIP3    H175670   4.713   2.097  15.889 -0.0131 -0.4786  0.1676
18085TIP3    H275671   4.684   2.236  15.838  3.1779 -0.5334 -1.9242
18086TIP3   OH275672   1.034   4.906   2.000  0.2297  0.4859  0.7155
18086TIP3    H175673   1.035   4.913   1.905 -2.9504 -0.6436  0.5611
18086TIP3    H275674   1.085   4.827   2.019 -2.5961 -1.6907 -0.3714
18087TIP3   OH275675   3.357   1.390  13.713 -0.3831 -0.0574 -0.1182
18087TIP3    H175676   3.262   1.393  13.705 -0.4313  0.8251  0.7948
18087TIP3    H275677   3.385   1.481  13.712  0.4366 -0.2996 -0.0854
18088TIP3   OH275678   0.648   0.865  15.163  0.4213 -0.1207 -0.5005
18088TIP3    H175679   0.716   0.798  15.164  0.8801  0.3431  1.2806
18088TIP3    H275680   0.571   0.821  15.199  0.5660  0.1473  0.1370
18089TIP3   OH275681   1.748   1.344  16.393  0.4201 -0.1077 -0.2188
18089TIP3    H175682   1.722   1.333  16.484  2.8632 -0.1782  0.5145
18089TIP3    H275683   1.750   1.255  16.358  0.1794 -0.1436 -0.1457
18090TIP3   OH275684   0.424   6.535  13.353 -0.3023 -0.6848 -0.5990
18090TIP3    H175685   0.452   6.626  13.366 -0.6977 -0.7588  0.9486
18090TIP3    H275686   0.500   6.483  13.382 -0.4324 -0.8537 -0.5635
18091TIP3   OH275687   4.583   0.061   5.439  0.3694  0.7107 -0.6352
18091TIP3    H175688   4.610   0.066   5.530 -1.0787 -0.4378 -0.1156
18091TIP3    H275689   4.665   0.059   5.389  1.1684  1.6593  0.5966
18092TIP3   OH275690   2.549   0.020   5.878  0.4815  0.1617 -0.3146
18092TIP3    H175691   2.541  -0.006   5.970  1.8330 -1.3473 -0.6171
18092TIP3    H275692   2.553  -0.062   5.829  3.3375  0.9055 -1.4198
18093TIP3   OH275693   0.857   3.408  12.521  0.8000  0.0339 -0.2655
18093TIP3    H175694   0.776   3.431  12.474  0.7985 -0.6733 -0.6246
18093TIP3    H275695   0.898   3.492  12.541 -0.0925  0.4087  0.0396
18094TIP3   OH275696   0.050   2.446  15.711 -0.2817  0.3751 -0.3752
18094TIP3    H175697  -0.003   2.514  15.669 -0.9916  0.6147  0.8877
18094TIP3    H275698   0.106   2.493  15.772 -2.3355 -0.3077  2.1541
18095TIP3   OH275699   1.932   4.817  16.118  0.1108 -0.6898  0.3493
18095TIP3    H175700   1.900   4.738  16.162 -1.1498  0.0627  0.8094
18095TIP3    H275701   1.910   4.888  16.177  0.7672  0.0777 -0.3094
18096TIP3   OH275702   5.085   2.314   4.027 -0.5580 -0.3346  0.1061
18096TIP3    H175703   5.052   2.360   4.104 -0.3920  1.0861 -0.6436
18096TIP3    H275704   5.020   2.246   4.009 -1.2015  0.0947  0.7917
18097TIP3   OH275705   4.121   5.168  14.849 -0.0624 -0.2857 -0.3163
18097TIP3    H175706   4.156   5.226  14.782 -0.2933 -0.4785 -0.6027
18097TIP3    H275707   4.073   5.101  14.801  0.8491 -1.1521 -0.0393
18098TIP3   OH275708   5.046   1.839  15.261  0.4106 -0.1925  0.0333
18098TIP3    H175709   4.951   1.855  15.266  0.0284 -2.1595 -0.4304
18098TIP3    H275710   5.082   1.922  15.230 -1.0171  0.9778  1.3992
18099TIP3   OH275711   4.754   0.055  16.221 -0.2226  0.1058 -0.2459
18099TIP3    H175712   4.672   0.061  16.271 -1.2506 -0.7136 -1.7821
18099TIP3    H275713   4.753   0.131  16.164 -1.4700 -1.5454 -2.4949
18100TIP3   OH275714   1.383   5.680   1.323  0.1960 -0.3102  0.4179
18100TIP3    H175715   1.383   5.649   1.233  0.3320  3.6141 -1.0353
18100TIP3    H275716   1.475   5.683   1.348  0.2136 -0.5785  0.3828
18101TIP3   OH275717   1.187   5.972   0.976 -0.3564 -0.0028  0.2431
18101TIP3    H175718   1.219   5.904   0.917 -0.4888 -0.2245  0.4278
18101TIP3    H275719   1.194   6.053   0.925  0.7400 -0.0073  0.3742
18102TIP3   OH275720   4.148   3.743  14.027  0.2046  0.3187 -0.0793
18102TIP3    H175721   4.200   3.795  14.088  0.3896  0.4726 -0.3691
18102TIP3    H275722   4.211   3.710  13.963 -0.4085  2.6998 -1.9760
18103TIP3   OH275723   0.573   4.631   0.640 -0.2793  0.1565  0.2827
18103TIP3    H175724   0.495   4.621   0.585  1.0849 -1.7688 -1.3831
18103TIP3    H275725   0.571   4.556   0.699  0.0205  0.4023  0.6070
18104TIP3   OH275726   4.308   2.444  15.896  0.1769 -0.2471 -0.3982
18104TIP3    H175727   4.317   2.523  15.949  1.3311 -1.1457  0.7819
18104TIP3    H275728   4.368   2.458  15.822 -0.8189  0.6444 -1.0682
18105TIP3   OH275729   6.560   3.843  14.413  0.3856  0.0147  0.3039
18105TIP3    H175730   6.630   3.784  14.440  1.7917  0.6005 -1.8949
18105TIP3    H275731   6.492   3.785  14.376  0.4357 -0.4314  0.9094
18106TIP3   OH275732   5.410   2.323   3.631  0.2182 -0.2605 -0.0570
18106TIP3    H175733   5.492   2.317   3.582 -0.8905 -1.0392 -1.8740
18106TIP3    H275734   5.350   2.369   3.572 -0.3684  1.2484  1.6661
18107TIP3   OH275735   4.027   5.188  13.435 -0.1283 -0.0414 -0.4558
18107TIP3    H175736   4.024   5.271  13.482 -0.3724  0.7731 -1.8970
18107TIP3    H275737   3.939   5.177  13.399 -0.2930 -1.2589  0.2950
18108TIP3   OH275738   1.175   6.157   4.096  0.6353  0.1160  0.2534
18108TIP3    H175739   1.170   6.106   4.176  2.5712  0.1252  0.4100
18108TIP3    H275740   1.215   6.098   4.032 -0.1122  0.3826 -0.4654
18109TIP3   OH275741   5.726   5.942  14.819  0.1743 -0.6824  0.1358
18109TIP3    H175742   5.760   5.955  14.731 -1.7280 -0.5916 -0.6139
18109TIP3    H275743   5.662   5.872  14.810  0.3603 -1.0557  1.5621
18110TIP3   OH275744   5.584   2.326   2.326  0.1825 -0.5928  0.0787
18110TIP3    H175745   5.495   2.334   2.359  0.5053  1.9596  0.4240
18110TIP3    H275746   5.587   2.384   2.250  2.0371  0.7902  1.1570
18111TIP3   OH275747   4.205   1.918   2.214 -0.0970  0.0474 -0.0616
18111TIP3    H175748   4.238   1.839   2.257 -0.1344 -1.3700 -2.5590
18111TIP3    H275749   4.284   1.962   2.181 -0.3358 -1.0986 -2.2403
18112TIP3   OH275750   3.193   3.212   6.654 -0.1761  0.3563  0.0406
18112TIP3    H175751   3.279   3.185   6.687 -1.2847 -0.9708  1.9507
18112TIP3    H275752   3.135   3.206   6.730 -2.2671 -0.1873 -1.5379
18113TIP3   OH275753   2.181   5.876  11.865  0.5844 -0.6872  0.2731
18113TIP3    H175754   2.257   5.929  11.840 -0.8628  2.0342  1.4524
18113TIP3    H275755   2.189   5.867  11.960 -2.5704  2.9695  0.9746
18114TIP3   OH275756   4.275   4.473  17.164  0.3254  0.0878  0.0825
18114TIP3    H175757   4.210   4.404  17.178  1.7287 -0.8229  2.3119
18114TIP3    H275758   4.357   4.436  17.195  1.4922  2.0609 -0.5332
18115TIP3   OH275759   0.259   6.461   4.306  0.0013  0.5099  0.0548
18115TIP3    H175760   0.248   6.382   4.359 -2.7419  0.8870  0.1279
18115TIP3    H275761   0.354   6.472   4.298  0.4307 -1.4035  2.1114
18116TIP3   OH275762   4.862   0.092   1.603 -0.4978  0.0285 -0.6573
18116TIP3    H175763   4.823   0.150   1.669 -1.1249 -0.0297 -0.9674
18116TIP3    H275764   4.856   0.005   1.641 -0.2010  0.0819 -0.4878
18117TIP3   OH275765   6.429   5.932  16.994  0.1562 -0.4197  0.2695
18117TIP3    H175766   6.362   5.960  17.057  0.9410  1.3134  0.3670
18117TIP3    H275767   6.408   5.981  16.914  2.3456  1.5766  0.8485
18118TIP3   OH275768   4.507   0.122  10.532  0.2922 -0.4220  0.7418
18118TIP3    H175769   4.526   0.197  10.588  1.0891 -1.4917  1.9279
18118TIP3    H275770   4.551   0.049  10.574  1.5490 -1.1202 -1.6779
18119TIP3   OH275771   6.746   3.603  11.759 -0.5265 -0.2718 -0.2350
18119TIP3    H175772   6.778   3.514  11.772  2.7693  1.2476  3.2029
18119TIP3    H275773   6.797   3.636  11.685 -1.5322 -1.0993 -1.3122
18120TIP3   OH275774   1.502   4.001  11.566 -0.0083 -0.2578  0.2532
18120TIP3    H175775   1.441   3.941  11.608 -3.4776  2.3389 -0.8428
18120TIP3    H275776   1.541   4.050  11.638  0.7772 -1.8349  0.9455
18121TIP3   OH275777   4.564   2.994   3.616  0.3557 -0.1712  0.3664
18121TIP3    H175778   4.552   2.986   3.521 -0.2190  0.7715  0.3540
18121TIP3    H275779   4.659   3.001   3.628  0.6879 -3.6012  0.1310
18122TIP3   OH275780   1.745   0.370   0.547  0.1382 -0.7106 -0.7174
18122TIP3    H175781   1.674   0.417   0.504 -0.5452 -1.5889 -0.5588
18122TIP3    H275782   1.710   0.283   0.565  1.2904 -1.2044 -0.7612
18123TIP3   OH275783   2.341   4.538   1.583  0.0390 -0.0394 -0.5644
18123TIP3    H175784   2.371   4.623   1.616  0.7903 -0.0199 -1.2714
18123TIP3    H275785   2.327   4.553   1.490  0.6947 -0.8251 -0.7956
18124TIP3   OH275786   4.724   0.311  16.746  0.0287 -0.6892  0.1146
18124TIP3    H175787   4.713   0.403  16.771 -0.9177 -0.7021 -0.2460
18124TIP3    H275788   4.673   0.302  16.666  0.7546 -1.3453 -0.2731
18125TIP3   OH275789   3.473   5.401   2.374 -0.3061  0.0256 -0.2610
18125TIP3    H175790   3.432   5.367   2.295 -0.0139 -0.8135 -0.0550
18125TIP3    H275791   3.416   5.372   2.445  0.0566 -0.2217 -0.0676
18126TIP3   OH275792   4.532   4.425  13.584 -0.3105  0.6803 -0.0446
18126TIP3    H175793   4.593   4.450  13.653 -1.2012  1.1383  0.5823
18126TIP3    H275794   4.451   4.472  13.605 -1.6135 -1.6985  0.3920
18127TIP3   OH275795   4.506   2.290   1.649 -0.4940 -0.3793 -0.3593
18127TIP3    H175796   4.564   2.364   1.665  0.2445 -0.8593 -0.7733
18127TIP3    H275797   4.491   2.292   1.554 -1.0624 -0.3310 -0.2713
18128TIP3   OH275798   5.001   0.065  11.412 -0.2165 -0.2090  0.1911
18128TIP3    H175799   5.052  -0.002  11.457 -1.7144 -2.2980 -1.0901
18128TIP3    H275800   4.940   0.098  11.478 -1.5458 -2.3532  0.1036
18129TIP3   OH275801   5.762   4.886  11.334 -0.3629  0.2811 -1.0436
18129TIP3    H175802   5.798   4.800  11.353  1.4348  0.5878 -2.8674
18129TIP3    H275803   5.681   4.890  11.385  1.0193 -1.3271  1.3947
18130TIP3   OH275804   4.802   1.791  16.256  0.3948 -0.5760  0.2516
18130TIP3    H175805   4.790   1.723  16.190 -0.5194 -0.4414  0.2767
18130TIP3    H275806   4.750   1.762  16.330  1.9445 -1.0526  1.1710
18131TIP3   OH275807   5.741   3.483  10.711  0.1011 -0.9374 -0.2917
18131TIP3    H175808   5.800   3.557  10.722  0.3173 -1.0163 -0.8830
18131TIP3    H275809   5.746   3.462  10.617 -0.3315 -1.3838 -0.2192
18132TIP3   OH275810   0.162   3.067  11.673 -0.3345 -0.0449  1.1165
18132TIP3    H175811   0.215   3.107  11.742  2.0067  1.4148 -1.4347
18132TIP3    H275812   0.104   3.138  11.643  1.4673  0.5485 -1.1053
18133TIP3   OH275813   1.939   4.397   5.796 -0.3875 -0.4927  0.0494
18133TIP3    H175814   2.025   4.401   5.755 -0.5890 -1.7921 -0.5308
18133TIP3    H275815   1.951   4.342   5.873 -0.5871 -0.2268  0.2733
18134TIP3   OH275816   5.321   2.740   2.389  0.0854  0.1990 -0.0441
18134TIP3    H175817   5.299   2.685   2.313 -1.8263 -1.9785  2.0177
18134TIP3    H275818   5.342   2.678   2.458 -0.9989  2.0771  2.0221
18135TIP3   OH275819   6.463   3.361   2.483  0.6431 -0.2966  0.1585
18135TIP3    H175820   6.413   3.406   2.550  0.7498 -0.5274  0.3930
18135TIP3    H275821   6.461   3.420   2.408 -0.6238 -0.6268 -0.0894
18136TIP3   OH275822   3.038   5.476  15.875 -0.2583  0.0246  0.7660
18136TIP3    H175823   3.051   5.543  15.943 -0.6775  0.8235  0.0703
18136TIP3    H275824   3.071   5.517  15.796 -1.5133 -0.1813  0.1220
18137TIP3   OH275825   2.372   3.999  14.211 -0.5318 -0.3135 -0.1082
18137TIP3    H175826   2.350   3.911  14.182 -0.5755 -0.3354 -0.0083
18137TIP3    H275827   2.401   3.989  14.302  1.2804 -0.4801 -0.6892
18138TIP3   OH275828   0.999   0.787   4.255  0.1137 -0.7334 -0.4470
18138TIP3    H175829   1.039   0.735   4.186  0.9244 -0.7762  0.0462
18138TIP3    H275830   0.924   0.830   4.213  0.8143 -0.4758 -1.4313
18139TIP3   OH275831   4.996   0.057   1.383  0.3268  0.3824  0.2034
18139TIP3    H175832   4.962   0.066   1.472 -0.1698  0.0048  0.0551
18139TIP3    H275833   4.921   0.027   1.332  1.1140 -1.4014  0.0622
18140TIP3   OH275834   0.169   0.171   1.116 -0.2245 -0.0869  0.2832
18140TIP3    H175835   0.263   0.173   1.094 -0.4702  0.5596 -0.7546
18140TIP3    H275836   0.140   0.261   1.105 -2.0071 -1.0647 -4.1809
18141TIP3   OH275837   2.685   0.386  14.582 -0.0167  0.0277 -0.1373
18141TIP3    H175838   2.778   0.384  14.558  0.3260 -1.9073  1.2525
18141TIP3    H275839   2.686   0.408  14.676 -1.0284  1.1007 -0.3710
18142TIP3   OH275840   6.268   5.029   1.121  0.5691 -0.4355 -0.3267
18142TIP3    H175841   6.355   4.991   1.110  0.8174  0.0917 -0.2219
18142TIP3    H275842   6.275   5.116   1.081  0.5564  0.2304  1.0594
18143TIP3   OH275843   4.435   1.101  17.075 -0.4797  0.0974  0.1345
18143TIP3    H175844   4.440   1.006  17.088  0.3421  0.1483  0.2576
18143TIP3    H275845   4.527   1.129  17.071 -0.7186  0.7921 -0.5959
18144TIP3   OH275846   3.852   1.472  11.447 -0.3329 -0.0088  0.4553
18144TIP3    H175847   3.869   1.493  11.355  2.1743 -0.6947  0.7271
18144TIP3    H275848   3.803   1.389  11.444  1.8346 -1.3153 -0.2322
18145TIP3   OH275849   5.592   3.094   0.858 -0.1266 -0.0922 -0.3493
18145TIP3    H175850   5.532   3.168   0.864  0.4476  0.4085 -0.6749
18145TIP3    H275851   5.652   3.105   0.932  1.3934  1.0730 -1.7295
18146TIP3   OH275852   4.846   3.942  15.884  0.0721 -0.4797 -0.3206
18146TIP3    H175853   4.768   3.887  15.877 -0.1616 -0.0141 -1.6486
18146TIP3    H275854   4.884   3.921  15.969 -1.7512 -0.3774  0.5349
18147TIP3   OH275855   0.229   2.059  13.315 -0.5510  0.2267 -0.0524
18147TIP3    H175856   0.214   2.108  13.234  0.5029  0.3675 -0.1721
18147TIP3    H275857   0.264   2.124  13.376  1.3745 -0.4586 -0.3798
18148TIP3   OH275858   0.036   6.693   1.451 -0.0656 -0.2616  0.1489
18148TIP3    H175859   0.103   6.755   1.424 -1.1024  2.1747  2.9464
18148TIP3    H275860   0.083   6.627   1.502  0.8190 -1.0898 -1.6746
18149TIP3   OH275861   3.955   1.822  13.785 -0.4800  0.0174  0.4822
18149TIP3    H175862   3.909   1.787  13.709  1.2854 -0.0884 -0.5816
18149TIP3    H275863   3.921   1.911  13.795  0.7262  0.7769 -1.7377
18150TIP3   OH275864   5.991   0.102  14.122  0.1110 -0.4116 -0.3661
18150TIP3    H175865   6.042   0.056  14.055  0.3426 -2.0644  0.9044
18150TIP3    H275866   5.973   0.035  14.188 -3.9231  0.0637 -0.8822
18151TIP3   OH275867   5.453   2.313   0.222  0.3966 -0.0078 -0.1569
18151TIP3    H175868   5.449   2.407   0.241  1.6311 -0.0364  0.3172
18151TIP3    H275869   5.428   2.270   0.303 -2.1839 -0.1025 -0.9566
18152TIP3   OH275870   4.389   0.320   2.811 -0.3299  0.1392 -0.4060
18152TIP3    H175871   4.301   0.357   2.808 -0.4676 -0.1939 -0.5648
18152TIP3    H275872   4.390   0.255   2.741  0.4867  1.1031 -1.3049
18153TIP3   OH275873   5.332   2.708  10.834  0.0072  0.7796  0.2453
18153TIP3    H175874   5.247   2.720  10.791  0.3270 -1.4338 -1.0814
18153TIP3    H275875   5.310   2.682  10.923 -0.6751  2.8878  0.7169
18154TIP3   OH275876   4.199   3.960  14.198 -0.6651  0.6675  0.1505
18154TIP3    H175877   4.260   3.963  14.272 -2.3375  3.2604  1.4942
18154TIP3    H275878   4.187   4.051  14.173 -0.6002 -0.1306 -2.9787
18155TIP3   OH275879   2.497   6.571  13.675 -0.4871 -0.0103 -0.2416
18155TIP3    H175880   2.553   6.517  13.619 -1.4068 -0.2585 -0.9223
18155TIP3    H275881   2.507   6.533  13.762 -1.6993 -1.7501 -0.8380
18156TIP3   OH275882   5.903   6.657  16.148  0.3803  0.7020  0.1205
18156TIP3    H175883   5.946   6.739  16.124 -2.5527  2.1890 -0.2662
18156TIP3    H275884   5.961   6.588  16.115  1.6188  2.6429 -1.8006
18157TIP3   OH275885   0.445   3.038  16.074  0.1282 -0.0069  0.4889
18157TIP3    H175886   0.516   3.099  16.093 -1.3541  1.2335  2.2093
18157TIP3    H275887   0.436   3.040  15.979  0.9980  1.4388  0.4241
18158TIP3   OH275888   1.429   5.854  15.266 -1.2270 -0.1201  0.2593
18158TIP3    H175889   1.404   5.851  15.359 -0.7946 -0.0541  0.3794
18158TIP3    H275890   1.477   5.772  15.252 -1.0087  0.0234  0.1759
18159TIP3   OH275891   2.784   2.599   3.367 -0.5392  0.1375  0.8717
18159TIP3    H175892   2.827   2.679   3.337 -1.6626  0.8212  1.0464
18159TIP3    H275893   2.705   2.592   3.314  1.1044 -2.5793 -1.3275
18160TIP3   OH275894   1.440   4.403  13.162 -0.1209  0.4675 -0.3663
18160TIP3    H175895   1.358   4.422  13.118  0.3410  0.6734 -1.1439
18160TIP3    H275896   1.502   4.385  13.092  0.7587  1.3546  0.1648
18161TIP3   OH275897   3.670   5.033  16.185 -0.3042  0.9723  0.2118
18161TIP3    H175898   3.753   5.026  16.138  0.1002  0.9271  0.9340
18161TIP3    H275899   3.604   5.036  16.116  0.3568  1.8925 -0.3870
18162TIP3   OH275900   5.940   0.764   5.945 -0.0955 -0.0458  0.6951
18162TIP3    H175901   5.993   0.812   5.881  0.6527 -0.2478  1.1675
18162TIP3    H275902   5.974   0.791   6.030  0.2221 -1.2748  0.9728
18163TIP3   OH275903   2.137   6.329   4.300  0.1355 -0.0595  0.0446
18163TIP3    H175904   2.148   6.255   4.240  1.0562  0.0394  0.0982
18163TIP3    H275905   2.053   6.367   4.275 -1.5578 -2.5961  1.5925
18164TIP3   OH275906   2.582   5.213   0.720  0.9488 -0.3536  0.1741
18164TIP3    H175907   2.631   5.148   0.670 -0.0106 -1.0078  0.0657
18164TIP3    H275908   2.573   5.288   0.660 -1.0657 -1.5146 -1.0410
18165TIP3   OH275909   1.311   2.562   1.020 -0.8951  0.2671 -0.6615
18165TIP3    H175910   1.320   2.482   1.073  4.1987  1.2022  0.1780
18165TIP3    H275911   1.294   2.531   0.932  1.9331 -1.9267 -0.5252
18166TIP3   OH275912   6.732   5.700   2.966  0.0411 -0.0498 -0.0746
18166TIP3    H175913   6.683   5.689   2.885  0.7377 -4.1416 -0.0277
18166TIP3    H275914   6.669   5.678   3.035  0.4819 -0.1597  0.2929
18167TIP3   OH275915   2.565   5.421   0.078  0.3145  0.3553 -0.4021
18167TIP3    H175916   2.565   5.347   0.017  1.4760  1.2119 -1.4568
18167TIP3    H275917   2.550   5.381   0.163 -1.1122 -0.8843 -1.2082
18168TIP3   OH275918   3.823   0.975  13.610 -0.4875 -0.6002  0.1936
18168TIP3    H175919   3.853   0.988  13.700 -0.8326 -0.7988  0.3396
18168TIP3    H275920   3.728   0.970  13.617 -0.5140 -0.6477 -0.1781
18169TIP3   OH275921   4.075   4.953   0.617 -0.1082 -1.3611 -0.0559
18169TIP3    H175922   4.119   5.024   0.663 -2.1061 -0.7522  0.9991
18169TIP3    H275923   4.069   4.882   0.681 -2.4993 -0.6733  0.5513
18170TIP3   OH275924   2.754   2.151   0.823  1.0285  0.5131 -0.4007
18170TIP3    H175925   2.741   2.061   0.793  0.8559  0.3682  0.1024
18170TIP3    H275926   2.717   2.153   0.912  2.4306  0.6733  0.1928
18171TIP3   OH275927   5.618   5.378  16.803  0.3296  0.2978 -0.0176
18171TIP3    H175928   5.539   5.431  16.808 -0.1934 -0.4839  0.0440
18171TIP3    H275929   5.671   5.407  16.877  1.4347  2.9279 -1.7530
18172TIP3   OH275930   1.460   5.347   3.126 -0.3251  0.2819 -0.1065
18172TIP3    H175931   1.431   5.256   3.129  0.8608 -0.0838  0.5018
18172TIP3    H275932   1.410   5.391   3.195 -0.9252  0.1183 -0.4256
18173TIP3   OH275933   3.878   1.416  13.012  0.0283  0.1580  0.8542
18173TIP3    H175934   3.856   1.323  13.004  1.6566 -0.1252 -0.6666
18173TIP3    H275935   3.930   1.435  12.934 -1.1907  2.6300  0.6007
18174TIP3   OH275936   0.046   0.331   1.573 -0.1567  0.3270  0.1369
18174TIP3    H175937  -0.036   0.331   1.622 -0.8400  0.9250 -0.9752
18174TIP3    H275938   0.038   0.258   1.512  0.5144 -0.1645  0.6381
18175TIP3   OH275939   0.544   4.090   2.321 -0.7301  0.0079  0.1309
18175TIP3    H175940   0.453   4.091   2.349 -1.1391  0.0543 -1.1793
18175TIP3    H275941   0.558   4.175   2.278  0.1177  0.2778  0.9223
18176TIP3   OH275942   5.669   3.809  16.022  0.1815  0.2282  0.1956
18176TIP3    H175943   5.664   3.746  16.095 -0.9854 -1.0257 -0.9396
18176TIP3    H275944   5.733   3.771  15.963  0.3117  0.6885  0.0400
18177TIP3   OH275945   4.068   4.597  13.843 -0.4656 -0.1556  0.3392
18177TIP3    H175946   4.081   4.654  13.918  2.5970 -0.8767  0.4196
18177TIP3    H275947   4.030   4.517  13.879  0.9350 -0.4737  1.1439
18178TIP3   OH275948   2.547   4.451  11.965 -0.2559  0.0188  0.7117
18178TIP3    H175949   2.453   4.442  11.979  0.0453 -1.4438  1.9213
18178TIP3    H275950   2.586   4.389  12.026  1.5024  0.6734  0.2734
18179TIP3   OH275951   1.801   3.657  17.090 -0.2623  0.2502  0.1428
18179TIP3    H175952   1.860   3.661  17.166  1.9787 -1.7147 -1.4003
18179TIP3    H275953   1.818   3.738  17.043  0.7000  0.0411  0.1071
18180TIP3   OH275954   4.903   2.222   2.222  0.3308  0.3297  0.3207
18180TIP3    H175955   4.878   2.309   2.252  0.4932  0.1746  0.9195
18180TIP3    H275956   4.945   2.237   2.137  0.5417  0.8571  0.5129
18181TIP3   OH275957   4.596   3.964   1.670  0.4934  0.2856 -0.7000
18181TIP3    H175958   4.561   3.878   1.648 -0.6066  0.5016  0.1768
18181TIP3    H275959   4.600   4.010   1.586  1.0038 -0.5793 -1.1634
18182TIP3   OH275960   4.834   2.816  14.335  0.4666 -0.0928  0.1831
18182TIP3    H175961   4.892   2.741  14.324  0.5071 -0.3075  1.7008
18182TIP3    H275962   4.766   2.805  14.268 -0.2464 -2.1858  1.2155
18183TIP3   OH275963   4.507   5.834   1.042  0.2547 -0.0522  0.3421
18183TIP3    H175964   4.504   5.767   0.973  0.8937  1.2342 -0.9568
18183TIP3    H275965   4.600   5.850   1.056  0.0940  0.7338  0.5022
18184TIP3   OH275966   5.376   0.103  15.227  0.2114  0.1602 -0.2501
18184TIP3    H175967   5.399   0.012  15.210 -0.8671 -0.1518 -0.0699
18184TIP3    H275968   5.323   0.100  15.307  2.3541  1.2376  1.2479
18185TIP3   OH275969   1.679   3.962  15.647 -0.0706  0.5569  0.1319
18185TIP3    H175970   1.693   4.018  15.723  0.2203 -0.3851  0.7862
18185TIP3    H275971   1.747   3.988  15.585  0.3652  0.6024  0.6251
18186TIP3   OH275972   0.370   4.260   4.626 -0.2170 -0.3567 -0.2626
18186TIP3    H175973   0.410   4.290   4.707 -1.5226  0.5926  0.0331
18186TIP3    H275974   0.276   4.260   4.643 -0.5175 -0.0590 -1.7908
18187TIP3   OH275975   1.612   1.412  12.194 -0.1177 -0.0154  0.0084
18187TIP3    H175976   1.614   1.355  12.271  0.2610  2.3260  1.7882
18187TIP3    H275977   1.529   1.458  12.200  0.3198  0.8549 -0.4757
18188TIP3   OH275978   6.625   3.617  16.475  0.3716 -0.0519  0.2934
18188TIP3    H175979   6.628   3.704  16.436  3.5533 -0.3844 -0.3442
18188TIP3    H275980   6.535   3.607  16.505 -0.6018  2.5893 -1.5862
18189TIP3   OH275981   0.541   0.048  13.284 -0.0002 -0.3245 -0.0343
18189TIP3    H175982   0.474   0.056  13.217  0.1334 -0.8949 -0.2443
18189TIP3    H275983   0.503   0.088  13.362 -1.3458 -2.3523  0.3920
18190TIP3   OH275984   0.326   3.823   5.119  0.2784  0.1641  0.1366
18190TIP3    H175985   0.244   3.801   5.074  0.2382 -0.8634  0.6875
18190TIP3    H275986   0.368   3.888   5.063  0.2800 -1.1686 -1.4423
18191TIP3   OH275987   2.637   4.440   0.600  0.6075  0.2800  0.4408
18191TIP3    H175988   2.706   4.461   0.662 -0.9833  2.4257  1.5442
18191TIP3    H275989   2.622   4.346   0.612  1.3934  0.3653  2.1643
18192TIP3   OH275990   1.059   6.012  15.626  0.0824  0.6976  0.3950
18192TIP3    H175991   1.117   6.010  15.702  0.5905  1.2898  0.0258
18192TIP3    H275992   1.033   6.104  15.617 -2.4895  0.1397  1.7330
18193TIP3   OH275993   4.485   1.353   4.893  0.0839  0.0797 -0.1279
18193TIP3    H175994   4.508   1.409   4.819 -0.2388  1.5976  0.8911
18193TIP3    H275995   4.563   1.300   4.909 -0.9009 -2.5885 -3.5697
18194TIP3   OH275996   3.534   4.759  13.259  0.6213  0.3158  0.3915
18194TIP3    H175997   3.439   4.750  13.252  0.4402  2.4058 -0.1073
18194TIP3    H275998   3.558   4.816  13.186  2.5392 -1.7832 -0.6840
18195TIP3   OH275999   5.266   4.850  13.987 -0.5915 -0.0499  0.5589
18195TIP3    H176000   5.291   4.794  13.914 -3.4969  0.9838 -1.2870
18195TIP3    H276001   5.203   4.798  14.037 -0.0481 -0.0439  1.2522
18196TIP3   OH276002   4.795   1.111  13.406 -1.1430  0.0562 -0.6509
18196TIP3    H176003   4.757   1.076  13.487 -1.3196  1.9260  0.0983
18196TIP3    H276004   4.886   1.082  13.407 -0.1787  2.9297  1.9762
18197TIP3   OH276005   0.927   1.377   2.560 -0.2705  0.4567 -0.7264
18197TIP3    H176006   0.982   1.410   2.631 -1.0951 -0.9504  0.5973
18197TIP3    H276007   0.989   1.352   2.492  0.6157  0.5398  0.0358
18198TIP3   OH276008   1.195   3.701  14.682 -0.3973 -0.8214 -0.4092
18198TIP3    H176009   1.173   3.608  14.694 -1.0027 -0.5143  0.8863
18198TIP3    H276010   1.111   3.744  14.667  0.0202 -0.6863 -2.5756
18199TIP3   OH276011   5.013   0.530  11.192  0.1446 -0.0597  0.0298
18199TIP3    H176012   4.994   0.455  11.249 -0.8300  0.3333  0.2271
18199TIP3    H276013   4.930   0.577  11.185  0.9448  1.4377  0.5176
18200TIP3   OH276014   5.648   2.931   1.304  0.2451  0.1501  0.2937
18200TIP3    H176015   5.728   2.966   1.264  0.7272 -0.6624  0.5338
18200TIP3    H276016   5.647   2.968   1.392  1.1557 -1.0283  0.8104
18201TIP3   OH276017   1.542   3.927   5.079  0.3109 -0.2713  0.3952
18201TIP3    H176018   1.587   3.843   5.079  0.6201 -0.1094  1.0934
18201TIP3    H276019   1.608   3.991   5.051 -0.2671 -0.4316 -1.3785
18202TIP3   OH276020   5.480   0.600  15.079 -0.4811 -0.0290 -1.0913
18202TIP3    H176021   5.512   0.510  15.082  1.3262  0.6129 -0.5754
18202TIP3    H276022   5.539   0.644  15.017 -2.0251  0.5598 -2.1976
18203TIP3   OH276023   2.053   6.199  12.233 -0.2814 -0.6681  0.1498
18203TIP3    H176024   2.075   6.288  12.257  2.8759 -1.6771  1.2002
18203TIP3    H276025   2.055   6.199  12.137  2.1160 -0.1590  0.1785
18204TIP3   OH276026   5.194   4.339  12.886 -0.0497  0.5191  0.1856
18204TIP3    H176027   5.191   4.243  12.878 -0.8074  0.5102  0.5467
18204TIP3    H276028   5.160   4.356  12.974  0.6327  1.0876  0.3364
18205TIP3   OH276029   0.931   1.958  14.847  0.5555 -0.1262  0.4381
18205TIP3    H176030   0.878   2.020  14.797 -0.3178 -0.5726  0.7991
18205TIP3    H276031   0.876   1.881  14.856  1.9635 -1.2949 -0.7359
18206TIP3   OH276032   2.607   5.075  16.900  0.2309 -0.0006 -0.1980
18206TIP3    H176033   2.545   5.002  16.904 -0.8895  0.8539 -1.4797
18206TIP3    H276034   2.690   5.037  16.926 -0.6455 -1.3954  0.6164
18207TIP3   OH276035   3.460   6.408   2.471  0.4888 -0.1839  0.3949
18207TIP3    H176036   3.405   6.378   2.398 -0.8321 -1.6692  1.9426
18207TIP3    H276037   3.516   6.333   2.492  2.0636  0.8116 -0.1720
18208TIP3   OH276038   4.037   5.297   0.826  0.6833  0.2062  0.1807
18208TIP3    H176039   4.096   5.311   0.900 -1.1902 -1.2181  1.9559
18208TIP3    H276040   4.006   5.385   0.804 -1.9366  0.2573  3.7562
18209TIP3   OH276041   4.231   1.106  13.627 -0.0050 -0.1744 -0.6313
18209TIP3    H176042   4.184   1.043  13.681 -0.3645  0.2073 -0.4967
18209TIP3    H276043   4.310   1.128  13.677  0.0547 -0.4134 -0.6201
18210TIP3   OH276044   5.092   3.236   5.480 -0.1891  0.5923 -0.1690
18210TIP3    H176045   4.998   3.218   5.481  0.0329 -0.5560  1.6816
18210TIP3    H276046   5.098   3.331   5.480 -1.3499  0.6768 -0.5072
18211TIP3   OH276047   3.665   1.274  11.994 -1.1402 -0.3633  0.1711
18211TIP3    H176048   3.631   1.318  12.071  0.0937  0.2613  0.3653
18211TIP3    H276049   3.715   1.341  11.948  0.1099 -1.3650  0.0707
18212TIP3   OH276050   4.066   0.244  14.970 -0.3315 -0.1843  0.2339
18212TIP3    H176051   4.115   0.285  15.041 -2.9303  3.0299  0.2945
18212TIP3    H276052   4.090   0.294  14.892 -0.0355 -1.5594 -0.5798
18213TIP3   OH276053   4.099   2.429  12.328  0.2805  0.2526  0.4067
18213TIP3    H176054   4.113   2.336  12.309 -1.4855 -0.2150  1.3344
18213TIP3    H276055   4.093   2.434  12.423  0.0382  1.2683  0.3414
18214TIP3   OH276056   0.820   3.929   5.169 -0.2951 -0.6443  0.4787
18214TIP3    H176057   0.819   3.834   5.158 -0.3329 -0.5187 -0.6094
18214TIP3    H276058   0.783   3.944   5.256 -1.4175 -1.5577  0.1514
18215TIP3   OH276059   0.782   1.671  11.544  0.0297 -0.4102  0.5096
18215TIP3    H176060   0.860   1.725  11.528 -1.1956  0.9916 -0.9001
18215TIP3    H276061   0.779   1.660  11.639  0.4339  1.8160  0.8044
18216TIP3   OH276062   0.465   2.774  14.968 -0.4808  0.4796 -0.0461
18216TIP3    H176063   0.516   2.772  15.049 -0.7886 -0.8242  0.1314
18216TIP3    H276064   0.531   2.781  14.899 -0.2505  2.2324  0.3389
18217TIP3   OH276065   5.173   5.952   3.080  0.0543  0.4208  0.0236
18217TIP3    H176066   5.256   5.993   3.056  1.5245  0.4145  4.5411
18217TIP3    H276067   5.114   6.025   3.095  0.1676  0.5583 -0.2011
18218TIP3   OH276068   0.076   5.561  11.912 -0.5963  0.3199  0.1547
18218TIP3    H176069   0.053   5.640  11.864 -1.0056 -0.1245 -0.3882
18218TIP3    H276070   0.117   5.592  11.993 -0.2492  1.0717 -0.3117
18219TIP3   OH276071   1.012   1.774   3.946  0.4016  1.0056  0.2659
18219TIP3    H176072   1.023   1.833   4.020  1.2349  1.1066  0.0757
18219TIP3    H276073   1.050   1.691   3.975 -1.8318  0.2075  0.9479
18220TIP3   OH276074   1.364   4.211  15.102 -0.5549  0.2950  0.6020
18220TIP3    H176075   1.321   4.132  15.133 -0.3985 -0.2341 -0.4768
18220TIP3    H276076   1.341   4.279  15.165 -3.6635  0.2280 -0.4022
18221TIP3   OH276077   2.820   0.556   4.317 -0.0953 -0.3487 -0.1451
18221TIP3    H176078   2.792   0.605   4.239 -1.7001 -2.0800 -0.6847
18221TIP3    H276079   2.896   0.506   4.287  1.7573  1.9498  0.4896
18222TIP3   OH276080   2.576   5.630   2.186 -0.4587  0.2856  0.0714
18222TIP3    H176081   2.551   5.538   2.181 -0.4462  0.2452  0.8355
18222TIP3    H276082   2.493   5.677   2.195 -0.3650  0.2483  1.1534
18223TIP3   OH276083   2.453   2.390  14.061  0.3126 -0.3224 -0.1655
18223TIP3    H176084   2.380   2.363  14.004  0.5674  0.8762 -1.0829
18223TIP3    H276085   2.436   2.345  14.144 -0.1475 -1.9797 -1.1315
18224TIP3   OH276086   2.241   2.748  13.200 -0.2058 -0.4455 -0.1779
18224TIP3    H176087   2.156   2.751  13.244  1.7641  1.4461  3.7948
18224TIP3    H276088   2.267   2.840  13.192  1.7219 -1.0169 -0.7832
18225TIP3   OH276089   2.173   6.457   5.719 -0.7509  0.5576  0.3436
18225TIP3    H176090   2.108   6.389   5.739  0.1058  0.4537  2.9162
18225TIP3    H276091   2.204   6.486   5.805  0.9463  2.2253 -0.8126
18226TIP3   OH276092   2.728   5.165  12.591  0.2405  0.1186 -0.5270
18226TIP3    H176093   2.705   5.156  12.684 -0.5982  2.4796 -0.4416
18226TIP3    H276094   2.818   5.134  12.584  1.0406  1.8719  1.5087
18227TIP3   OH276095   6.544   2.550   5.112 -0.5814  0.1984 -0.0382
18227TIP3    H176096   6.454   2.558   5.082 -0.5210  3.0329  0.3727
18227TIP3    H276097   6.569   2.639   5.136  0.9788 -1.1484  3.7088
18228TIP3   OH276098   5.739   0.753   1.461 -0.1884 -0.2750  0.3130
18228TIP3    H176099   5.811   0.816   1.459 -0.8842  0.5078 -1.3415
18228TIP3    H276100   5.778   0.669   1.438  0.8474 -0.6082  3.0271
18229TIP3   OH276101   3.956   6.420  10.912  0.3678  0.3676 -0.4199
18229TIP3    H176102   3.877   6.408  10.964 -1.2241 -0.3979 -2.9624
18229TIP3    H276103   4.025   6.437  10.977 -1.4569 -1.0561  1.9566
18230TIP3   OH276104   3.126   3.150  12.172 -0.4695  0.0233 -1.1424
18230TIP3    H176105   3.174   3.209  12.115  1.4029 -0.8179 -0.4686
18230TIP3    H276106   3.183   3.074  12.182 -2.0822 -1.1449 -0.5829
18231TIP3   OH276107   2.950   4.074   0.790  0.2726  0.3288  0.4809
18231TIP3    H176108   2.869   4.080   0.840 -0.4879 -1.5266 -0.4832
18231TIP3    H276109   3.017   4.056   0.855 -0.3399  0.2675  1.1031
18232TIP3   OH276110   1.022   1.155  12.670  0.1311  0.2898 -0.4448
18232TIP3    H176111   1.008   1.249  12.664 -1.7900  0.0226 -0.4695
18232TIP3    H276112   0.955   1.117  12.612  0.1199 -1.1281  0.4683
18233TIP3   OH276113   4.864   4.700  11.725  0.0951 -0.0268 -0.0392
18233TIP3    H176114   4.874   4.605  11.727  0.7189  0.0036 -1.0898
18233TIP3    H276115   4.850   4.725  11.816 -0.9265 -1.2089  0.1406
18234TIP3   OH276116   4.686   5.470  17.201  0.3501  0.1500  0.0656
18234TIP3    H176117   4.592   5.483  17.186  0.2033 -1.1502 -0.2145
18234TIP3    H276118   4.707   5.523  17.277 -0.6370  0.3865  0.1690
18235TIP3   OH276119   4.908   5.485  14.376 -0.4805 -0.4129  0.2193
18235TIP3    H176120   4.897   5.425  14.302  0.3660  0.8637 -0.9514
18235TIP3    H276121   4.820   5.520  14.392 -0.8454 -1.4213  0.4584
18236TIP3   OH276122   0.903   2.518   3.641  0.3765  0.1597  0.0441
18236TIP3    H176123   0.881   2.455   3.572 -0.6253 -0.7714  1.2190
18236TIP3    H276124   0.825   2.572   3.650 -0.7227 -1.7948  2.7164
18237TIP3   OH276125   5.543   4.088   4.313  0.0954  0.2382 -0.6003
18237TIP3    H176126   5.493   4.007   4.303 -1.8158  1.3342 -0.1036
18237TIP3    H276127   5.550   4.122   4.223 -1.1362  0.7007 -0.5333
18238TIP3   OH276128   0.169   4.092  11.667  0.1072 -0.0192  0.4516
18238TIP3    H176129   0.213   4.156  11.612  1.0002 -0.4115  0.7039
18238TIP3    H276130   0.085   4.076  11.624 -1.1722  3.0981  1.6289
18239TIP3   OH276131   5.267   3.059   1.056 -0.2325 -0.1910  0.4440
18239TIP3    H176132   5.219   3.142   1.052  0.2516  0.0598 -0.1819
18239TIP3    H276133   5.351   3.082   1.096 -0.4044 -0.5304  1.0106
18240TIP3   OH276134   2.550   2.061   4.644 -0.0348 -0.0626  0.6800
18240TIP3    H176135   2.562   2.019   4.559 -2.9312 -0.3997  0.3682
18240TIP3    H276136   2.596   2.004   4.705  0.2258 -1.0238 -0.3797
18241TIP3   OH276137   0.590   3.413   3.012  0.4569  0.3532  0.2393
18241TIP3    H176138   0.558   3.503   3.022  3.0824  1.6775 -2.6881
18241TIP3    H276139   0.511   3.359   3.022 -1.3006  2.9906  1.2713
18242TIP3   OH276140   0.878   0.720  11.108 -0.3151  0.4020 -0.1284
18242TIP3    H176141   0.893   0.805  11.067 -0.9648  0.2012 -0.8147
18242TIP3    H276142   0.928   0.659  11.053  1.5258  0.5499  1.3618
18243TIP3   OH276143   5.939   4.447   2.455  0.4934 -0.0731  0.4186
18243TIP3    H176144   5.894   4.460   2.538  1.1504 -0.4665  0.8329
18243TIP3    H276145   5.952   4.536   2.421 -0.1098  0.0679  0.5501
18244TIP3   OH276146   1.905   1.053  15.824  0.3134  0.2512 -0.4557
18244TIP3    H176147   1.973   1.045  15.757  1.2344  1.1138  0.3421
18244TIP3    H276148   1.842   1.115  15.787 -0.0895 -0.6401 -1.2481
18245TIP3   OH276149   5.722   5.920   3.156  0.4408  0.4010 -0.0290
18245TIP3    H176150   5.720   6.004   3.109  0.5480  0.3046 -0.2078
18245TIP3    H276151   5.650   5.870   3.118  0.4206  0.3864  0.0292
18246TIP3   OH276152   0.538   1.629   6.298 -0.1094 -0.2854  0.0755
18246TIP3    H176153   0.460   1.573   6.291 -0.5679  0.4590 -0.8732
18246TIP3    H276154   0.508   1.715   6.270  0.2694  0.7790  2.8013
18247TIP3   OH276155   2.902   6.223  13.047  0.2868 -0.2505 -0.2195
18247TIP3    H176156   2.941   6.252  13.130  0.9822  0.7650 -0.8755
18247TIP3    H276157   2.978   6.197  12.994  0.2041  2.3704 -1.7565
18248TIP3   OH276158   0.552   4.446   2.618 -0.1781 -0.1079  1.0189
18248TIP3    H176159   0.636   4.489   2.633  0.2141 -0.0729 -1.1077
18248TIP3    H276160   0.554   4.369   2.676  0.2144  1.2693  2.8721
18249TIP3   OH276161   3.411   3.669   4.282  0.0782 -0.3832 -0.4849
18249TIP3    H176162   3.364   3.603   4.332  1.5569 -0.4159  0.8994
18249TIP3    H276163   3.423   3.629   4.195 -1.1728 -0.9412 -0.4037
18250TIP3   OH276164   3.140   0.813   1.271 -0.0733 -0.1304 -0.2625
18250TIP3    H176165   3.046   0.827   1.258 -0.3554 -2.9465 -1.7606
18250TIP3    H276166   3.182   0.880   1.216 -1.2676 -1.3554 -2.7664
18251TIP3   OH276167   5.133   3.189   3.231  0.5182 -0.1318 -0.2107
18251TIP3    H176168   5.093   3.269   3.265 -0.8608 -1.3958  1.2625
18251TIP3    H276169   5.106   3.185   3.140  1.4605  1.5975 -0.5817
18252TIP3   OH276170   2.733   0.843   4.822 -1.0720  0.1118 -0.0504
18252TIP3    H176171   2.797   0.772   4.824 -0.8304  0.2584 -1.7733
18252TIP3    H276172   2.673   0.824   4.894  0.9262 -0.0003  1.6092
18253TIP3   OH276173   1.957   6.143   4.561  0.5807 -0.5995 -0.1815
18253TIP3    H176174   2.030   6.192   4.600 -0.0907 -0.4483  0.8853
18253TIP3    H276175   1.891   6.209   4.542  0.9465 -0.6487 -1.7300
18254TIP3   OH276176   2.854   5.800  12.924 -0.1213 -0.0048  0.0541
18254TIP3    H176177   2.762   5.780  12.912  0.0944 -0.7480 -0.4035
18254TIP3    H276178   2.885   5.824  12.836  0.4064 -0.9838 -0.0375
18255TIP3   OH276179   2.156   3.363  16.112 -0.3091  1.1138 -0.1362
18255TIP3    H176180   2.165   3.298  16.182  0.1155 -0.9112 -2.0434
18255TIP3    H276181   2.198   3.442  16.148  2.5126 -0.7379  0.7920
18256TIP3   OH276182   0.461   0.151   6.486 -0.1666 -0.6330 -0.2654
18256TIP3    H176183   0.454   0.240   6.454  0.2653 -0.0391  1.2429
18256TIP3    H276184   0.444   0.096   6.410 -1.1551  0.7334 -1.0351
18257TIP3   OH276185   4.348   0.196  11.546  0.3675 -0.1364 -0.3173
18257TIP3    H176186   4.262   0.233  11.526 -0.4872 -0.5319  2.3769
18257TIP3    H276187   4.410   0.254  11.502 -1.0596  3.0466  1.6380
18258TIP3   OH276188   1.301   5.145  14.823 -0.2391 -0.0986 -0.4274
18258TIP3    H176189   1.300   5.049  14.827 -0.5368 -0.1389 -1.3142
18258TIP3    H276190   1.218   5.168  14.780 -0.1989  0.5593 -0.1556
18259TIP3   OH276191   4.611   0.259   3.450  0.5676  0.6205  0.3391
18259TIP3    H176192   4.524   0.235   3.418  1.4050 -0.4254 -1.2317
18259TIP3    H276193   4.638   0.185   3.504  1.3926 -0.0911 -1.0191
18260TIP3   OH276194   4.753   0.847  15.943 -0.1396 -0.7450  1.0299
18260TIP3    H176195   4.710   0.776  15.992  1.6894 -0.9262  2.4031
18260TIP3    H276196   4.846   0.835  15.961  0.1569  2.3699  1.7928
18261TIP3   OH276197   0.711   1.143   5.878  0.1701  0.7909  0.6498
18261TIP3    H176198   0.623   1.109   5.896 -0.3638  1.6777 -0.2719
18261TIP3    H276199   0.711   1.231   5.916  0.7226  0.7319  0.7945
18262TIP3   OH276200   1.693   3.235   1.295  0.2304 -0.5931  0.4667
18262TIP3    H176201   1.685   3.267   1.205 -0.9336 -2.4398 -0.1052
18262TIP3    H276202   1.774   3.185   1.296 -0.1285 -1.1766  0.2604
18263TIP3   OH276203   2.560   0.055   0.968  0.1042  0.2741 -0.0964
18263TIP3    H176204   2.604   0.136   0.997 -1.8489  0.6062  2.1206
18263TIP3    H276205   2.510   0.081   0.891  0.7406  0.7777 -0.3502
18264TIP3   OH276206   4.006   2.563   0.743 -0.3929 -0.4163  0.5138
18264TIP3    H176207   4.078   2.571   0.680 -1.5523 -0.8972 -0.9194
18264TIP3    H276208   4.008   2.471   0.770  0.5094 -0.0549  1.6792
18265TIP3   OH276209   4.852   0.646   0.342  0.2470 -0.0476 -0.4591
18265TIP3    H176210   4.876   0.724   0.391 -0.9197  0.7624 -1.1279
18265TIP3    H276211   4.904   0.651   0.261 -0.2460  0.3533 -0.7579
18266TIP3   OH276212   3.668   3.936   0.165  0.0101  0.3956  0.2180
18266TIP3    H176213   3.712   3.884   0.097 -0.3220  1.5030 -0.8665
18266TIP3    H276214   3.740   3.979   0.212  0.1427  1.5020 -0.9771
18267TIP3   OH276215   4.736   0.039  12.764  0.5616  0.7105 -0.2171
18267TIP3    H176216   4.735   0.132  12.744  4.2167  0.8190 -0.2217
18267TIP3    H276217   4.783   0.033  12.847  0.0403 -1.1051 -0.0344
18268TIP3   OH276218   5.752   6.052   1.163  0.6338 -0.2194 -0.7094
18268TIP3    H176219   5.821   6.057   1.229  0.8424  0.4911 -0.9721
18268TIP3    H276220   5.792   6.007   1.089  0.7517 -0.0047 -0.7776
18269TIP3   OH276221   3.163   1.590   0.072 -0.1228  0.1627 -0.4773
18269TIP3    H176222   3.127   1.621  -0.011 -0.5393  0.5840 -0.1396
18269TIP3    H276223   3.224   1.520   0.047  2.1233  2.3821 -1.3727
18270TIP3   OH276224   3.459   6.306   3.710  0.0884  0.4880 -0.0005
18270TIP3    H176225   3.546   6.267   3.699  0.4989  1.5470 -0.5840
18270TIP3    H276226   3.435   6.336   3.623 -2.3188 -2.7060 -0.5637
18271TIP3   OH276227   0.936   4.505   0.640  0.1980 -0.1268  0.1818
18271TIP3    H176228   0.881   4.583   0.633  0.8369  0.2392 -0.8082
18271TIP3    H276229   0.965   4.505   0.732 -0.8044  0.1065  0.5075
18272TIP3   OH276230   1.827   0.453  11.109 -0.0066 -0.1968  0.3349
18272TIP3    H176231   1.912   0.492  11.129 -0.5015  1.9795 -1.6968
18272TIP3    H276232   1.767   0.494  11.171 -0.3174  1.4830 -1.0431
18273TIP3   OH276233   3.674   6.483  11.922 -0.0585 -0.2497  0.1079
18273TIP3    H176234   3.652   6.507  11.832  0.4009 -0.5214 -0.0739
18273TIP3    H276235   3.660   6.389  11.927 -1.6371 -0.0021  0.7648
18274TIP3   OH276236   0.806   3.652   3.424 -0.1682 -0.0170  0.4975
18274TIP3    H176237   0.713   3.642   3.403 -0.0595 -1.1573  0.5169
18274TIP3    H276238   0.822   3.588   3.493  0.7851 -0.2808  0.0405
18275TIP3   OH276239   3.360   3.498  11.849  0.2782 -0.7316  0.2161
18275TIP3    H176240   3.433   3.537  11.799 -0.3168 -0.5342 -0.5101
18275TIP3    H276241   3.366   3.404  11.830  0.1812 -0.6827 -0.0659
18276TIP3   OH276242   0.842   2.339   3.443 -0.0545 -0.4011 -0.0525
18276TIP3    H176243   0.784   2.268   3.470 -0.1001 -0.1480  0.5045
18276TIP3    H276244   0.924   2.295   3.418 -0.9778 -0.9154 -2.3361
18277TIP3   OH276245   3.510   4.724   2.599  0.4205  0.0601 -0.1722
18277TIP3    H176246   3.458   4.699   2.523 -0.8672  0.7123  0.4590
18277TIP3    H276247   3.534   4.641   2.640 -0.0304 -0.2617 -0.5523
18278TIP3   OH276248   5.159   5.761  13.915  0.7237  0.0723 -0.0391
18278TIP3    H176249   5.143   5.844  13.870  1.6509  0.6364  0.6440
18278TIP3    H276250   5.128   5.694  13.854 -1.9741  0.9951  0.2772
18279TIP3   OH276251   2.225   1.546   6.646  0.4714  0.2229  0.4898
18279TIP3    H176252   2.314   1.516   6.666  0.2715  0.0098  1.0692
18279TIP3    H276253   2.211   1.519   6.556  0.3435 -1.3172  0.9562
18280TIP3   OH276254   3.517   1.553  15.844 -0.5987 -0.0329  0.0472
18280TIP3    H176255   3.590   1.573  15.903  0.0993 -2.1594 -0.0426
18280TIP3    H276256   3.545   1.588  15.759  0.1043 -0.3819  0.1300
18281TIP3   OH276257   5.720   3.090   6.269  0.0777  0.0787  0.6218
18281TIP3    H176258   5.664   3.089   6.191 -1.2781  0.4474  1.5642
18281TIP3    H276259   5.678   3.154   6.327 -1.0116 -2.7860  3.1284
18282TIP3   OH276260   0.252   4.313   1.957 -0.0705 -0.8579  0.5145
18282TIP3    H176261   0.295   4.246   2.011 -0.5148 -0.7242  1.0329
18282TIP3    H276262   0.231   4.383   2.018  0.6290 -0.1255 -0.0819
18283TIP3   OH276263   2.950   3.465   5.355 -0.0132  0.4654 -0.4021
18283TIP3    H176264   2.903   3.417   5.287 -0.6096  2.6214 -1.5591
18283TIP3    H276265   2.894   3.540   5.375  0.6808  0.4764  1.6897
18284TIP3   OH276266   0.157   5.493   0.454 -0.4680 -0.0874  0.5856
18284TIP3    H176267   0.065   5.512   0.472 -0.4289  0.6393  0.0481
18284TIP3    H276268   0.189   5.571   0.409 -0.2119 -1.3181 -1.4175
18285TIP3   OH276269   6.713   6.707  12.297  0.4137  0.0098 -0.1432
18285TIP3    H176270   6.659   6.757  12.235  2.6981  0.4109 -1.8791
18285TIP3    H276271   6.695   6.615  12.276 -0.4768  0.1142  0.1113
18286TIP3   OH276272   6.612   4.690  15.535 -0.0206 -0.0878 -0.1045
18286TIP3    H176273   6.661   4.701  15.453 -2.0778 -2.2560 -1.6900
18286TIP3    H276274   6.641   4.763  15.590  2.2493  0.7629 -2.3320
18287TIP3   OH276275   6.056   1.121   2.753  0.0147  0.1352 -0.0327
18287TIP3    H176276   6.080   1.111   2.845  0.8005  0.3565 -0.2095
18287TIP3    H276277   5.960   1.121   2.753  0.0099 -0.1065  0.7560
18288TIP3   OH276278   2.573   3.391  16.762 -0.3538 -0.4061  0.3258
18288TIP3    H176279   2.594   3.321  16.823 -1.4954 -1.3102 -0.3075
18288TIP3    H276280   2.633   3.379  16.688  0.6692  0.3754  1.0061
18289TIP3   OH276281   6.255   2.393  14.460  0.4190  0.3399 -0.0565
18289TIP3    H176282   6.301   2.357  14.384  2.2429 -0.2970  1.3156
18289TIP3    H276283   6.325   2.429  14.515 -0.7068 -0.9049  2.2293
18290TIP3   OH276284   6.453   0.202   2.360  0.1383 -0.6823  0.3506
18290TIP3    H176285   6.443   0.197   2.265 -0.3985 -1.9988  0.4681
18290TIP3    H276286   6.364   0.220   2.392  0.0577 -1.6669  0.6906
18291TIP3   OH276287   0.112   6.662   4.400  0.1307  0.1724  0.0080
18291TIP3    H176288   0.156   6.587   4.361  1.2403  0.4693  0.6620
18291TIP3    H276289   0.171   6.736   4.383 -0.7205  0.8054 -0.2165
18292TIP3   OH276290   3.824   3.236  15.077  0.1853  0.1511  0.2432
18292TIP3    H176291   3.821   3.224  15.172  0.0344 -1.4023  0.0545
18292TIP3    H276292   3.732   3.234  15.050  0.2930 -0.9295 -0.0945
18293TIP3   OH276293   4.445   0.660  11.568  0.2469  0.4989  0.2676
18293TIP3    H176294   4.510   0.726  11.592  0.5693 -0.2951  1.6219
18293TIP3    H276295   4.425   0.679  11.476  0.7446  2.1269  0.4733
18294TIP3   OH276296   0.365   5.130   4.432 -0.7195  0.3113 -0.0512
18294TIP3    H176297   0.380   5.204   4.491 -1.0520 -0.7846  1.4216
18294TIP3    H276298   0.453   5.102   4.407 -0.5507  0.2543  0.5907
18295TIP3   OH276299   4.397   0.150   5.967 -0.3517  0.2759 -0.2272
18295TIP3    H176300   4.400   0.064   6.008  1.3550 -0.8712 -2.6893
18295TIP3    H276301   4.487   0.181   5.968 -0.9042  1.9389  0.3679
18296TIP3   OH276302   4.283   1.652   6.335 -0.2178  0.1511  0.1084
18296TIP3    H176303   4.260   1.637   6.427  1.7393  2.3047  0.9947
18296TIP3    H276304   4.199   1.647   6.288 -1.5013  0.9375  2.2555
18297TIP3   OH276305   1.156   1.020  11.887  0.3194  0.0663  0.3304
18297TIP3    H176306   1.083   0.959  11.893  0.5158 -0.3715 -1.6782
18297TIP3    H276307   1.205   1.007  11.969 -1.7736  0.3155  1.6579
18298TIP3   OH276308   3.543   3.512   2.031 -0.1554 -0.6188  0.2767
18298TIP3    H176309   3.582   3.492   1.947  0.0676 -0.8474  0.4374
18298TIP3    H276310   3.486   3.588   2.013  1.2070  0.4200  0.2778
18299TIP3   OH276311   4.122   1.296   2.786 -0.4597  0.3119  0.7704
18299TIP3    H176312   4.126   1.201   2.794  0.2205  0.3805  1.3195
18299TIP3    H276313   4.091   1.312   2.697  2.3204 -0.4184 -0.3862
18300TIP3   OH276314   0.451   2.586  10.704  0.4023 -0.0993  0.2353
18300TIP3    H176315   0.376   2.529  10.686  1.6161 -2.1185  1.3607
18300TIP3    H276316   0.495   2.594  10.620  0.7864 -1.6920  0.2717
18301TIP3   OH276317   2.132   1.040   1.845  0.4267 -0.2528  0.1255
18301TIP3    H176318   2.140   1.135   1.839 -0.3220 -0.3365 -2.6902
18301TIP3    H276319   2.049   1.019   1.802  2.6623 -2.5256 -3.4294
18302TIP3   OH276320   5.361   0.803   1.045  0.3505 -0.2977 -0.3318
18302TIP3    H176321   5.363   0.758   1.129 -0.5515  0.2657 -0.0086
18302TIP3    H276322   5.408   0.744   0.986  1.5686 -0.3852  0.7017
18303TIP3   OH276323   0.279   1.100   4.302 -0.2866 -0.1015  0.3789
18303TIP3    H176324   0.280   1.180   4.249 -1.0064 -0.9976 -1.0447
18303TIP3    H276325   0.258   1.129   4.390 -0.4692  1.2953 -0.1160
18304TIP3   OH276326   5.945   6.758   1.248 -0.0733  0.1821 -0.4829
18304TIP3    H176327   5.877   6.826   1.258 -1.4342 -1.1375 -0.5205
18304TIP3    H276328   6.008   6.796   1.187  0.6643  2.5099  1.6685
18305TIP3   OH276329   1.424   3.369  16.011 -0.0405 -0.8382  0.3022
18305TIP3    H176330   1.343   3.393  15.966  0.1288 -1.2591 -0.2448
18305TIP3    H276331   1.410   3.278  16.039  0.5185 -1.1689 -0.4604
18306TIP3   OH276332   6.087   5.324   2.054  0.1180 -0.2113 -0.4238
18306TIP3    H176333   6.180   5.305   2.044  0.2733 -0.0376  0.6316
18306TIP3    H276334   6.065   5.377   1.977  1.3502  1.4371  0.3264
18307TIP3   OH276335   3.516   0.843   1.087  0.1664 -0.0180 -0.0865
18307TIP3    H176336   3.518   0.874   0.996 -0.4377  0.9570  0.2262
18307TIP3    H276337   3.447   0.895   1.128  1.2893  0.4411  1.2639
18308TIP3   OH276338   0.279   2.543  13.483  0.3783  0.1012 -1.0840
18308TIP3    H176339   0.185   2.558  13.497 -0.0104 -1.7132 -1.6247
18308TIP3    H276340   0.302   2.603  13.411 -0.3732  0.5418 -0.9668
18309TIP3   OH276341   2.999   0.523  11.911  0.3455  0.0848  0.7027
18309TIP3    H176342   2.935   0.451  11.910  0.5292 -0.1091 -2.4949
18309TIP3    H276343   2.945   0.602  11.923  0.0889 -0.4640  3.5992
18310TIP3   OH276344   4.583   1.128  14.728  0.0508 -0.0281  0.0892
18310TIP3    H176345   4.548   1.039  14.732  2.3936 -0.9761 -0.0150
18310TIP3    H276346   4.517   1.177  14.678 -0.9608 -1.8318 -0.3930
18311TIP3   OH276347   2.969   4.685  14.481  0.1749 -0.2851 -0.0402
18311TIP3    H176348   2.939   4.656  14.567  1.1593 -0.2223  0.3306
18311TIP3    H276349   3.011   4.770  14.497 -1.3584  0.6775 -0.8888
18312TIP3   OH276350   1.128   2.413   6.294  0.0996 -0.3757 -0.5865
18312TIP3    H176351   1.196   2.379   6.352 -0.1360 -0.4927 -0.3755
18312TIP3    H276352   1.046   2.384   6.334 -0.2142  2.2434  0.7426
18313TIP3   OH276353   6.495   5.652  11.142 -0.5188 -0.4169  0.3102
18313TIP3    H176354   6.503   5.718  11.212  0.5699 -0.2879  0.0696
18313TIP3    H276355   6.412   5.673  11.099  0.1169  1.2012 -0.1678
18314TIP3   OH276356   5.766   3.156   1.063  0.4365  0.3305 -0.2351
18314TIP3    H176357   5.851   3.114   1.048  0.7427  0.2765  1.5583
18314TIP3    H276358   5.782   3.249   1.047  0.0902 -0.0296 -2.8516
18315TIP3   OH276359   6.744   3.172  12.425  0.6407  0.0745 -0.3232
18315TIP3    H176360   6.796   3.099  12.389  1.0295 -0.4732  1.3302
18315TIP3    H276361   6.809   3.229  12.465  0.0605 -0.1293  0.9208
18316TIP3   OH276362   6.656   4.127  12.754 -0.3083 -0.2030  0.0152
18316TIP3    H176363   6.632   4.199  12.696 -1.2129 -0.4715  0.0448
18316TIP3    H276364   6.682   4.171  12.836 -1.5099  0.0727  0.2632
18317TIP3   OH276365   4.092   4.155  12.625 -0.5598 -0.2991 -0.0661
18317TIP3    H176366   4.048   4.236  12.651  1.3998  0.5364  0.6865
18317TIP3    H276367   4.133   4.176  12.541 -0.8187 -0.7935 -0.3174
18318TIP3   OH276368   6.428   2.887   3.256  0.3882 -0.0745 -0.4213
18318TIP3    H176369   6.375   2.932   3.189  0.6281  0.5794 -0.1793
18318TIP3    H276370   6.363   2.847   3.314  0.1793 -1.3459 -1.4975
18319TIP3   OH276371   4.814   4.337  16.315 -0.6503  0.0002 -0.3853
18319TIP3    H176372   4.883   4.391  16.276  0.6275 -0.4751  1.1491
18319TIP3    H276373   4.797   4.378  16.400 -2.2888  0.1260 -0.7571
18320TIP3   OH276374   1.861   0.271  13.789 -0.2661 -0.3096  0.0844
18320TIP3    H176375   1.890   0.215  13.716 -2.1862 -2.6448  1.0635
18320TIP3    H276376   1.942   0.309  13.823  0.8012 -0.2667 -2.3788
18321TIP3   OH276377   0.185   5.072   0.271 -0.5487  0.2286 -0.1409
18321TIP3    H176378   0.274   5.092   0.244 -0.4904  1.4508  0.9208
18321TIP3    H276379   0.132   5.086   0.193  0.2506 -1.1617 -0.9710
18322TIP3   OH276380   6.175   2.861  15.781 -0.5711  0.0223 -0.0780
18322TIP3    H176381   6.110   2.856  15.711  2.1354 -1.8158 -2.5701
18322TIP3    H276382   6.179   2.772  15.816 -0.5288  0.5016  1.1587
18323TIP3   OH276383   0.779   1.066   3.140 -0.1940 -0.5892  0.3435
18323TIP3    H176384   0.823   1.013   3.206 -0.0260 -0.3606  0.4143
18323TIP3    H276385   0.850   1.106   3.090 -0.3190 -0.1396  0.5212
18324TIP3   OH276386   1.204   5.183   4.817  0.0949  0.3944  0.3939
18324TIP3    H176387   1.223   5.094   4.846 -1.3442 -0.2608 -0.6321
18324TIP3    H276388   1.167   5.226   4.895 -2.3356 -0.9022 -0.0252
18325TIP3   OH276389   2.643   5.478   5.359 -0.4906 -0.5373  0.5730
18325TIP3    H176390   2.574   5.514   5.414 -1.8764  0.6616 -1.8723
18325TIP3    H276391   2.597   5.435   5.287  1.2909  0.7907 -1.4160
18326TIP3   OH276392   5.094   4.559   2.394  0.1594 -0.3473  0.1968
18326TIP3    H176393   5.062   4.614   2.465 -1.7174  1.1706 -1.7629
18326TIP3    H276394   5.038   4.481   2.397 -1.0366  0.4656 -0.6399
18327TIP3   OH276395   5.577   6.560   4.015  0.3766  0.7990 -0.3664
18327TIP3    H176396   5.621   6.492   4.065  0.7666  1.4086  0.1264
18327TIP3    H276397   5.648   6.614   3.980  0.0799  0.7929 -0.9742
18328TIP3   OH276398   6.413   5.409  14.124 -0.0812  0.4978  0.4620
18328TIP3    H176399   6.397   5.414  14.030  1.2813  1.1603  0.2579
18328TIP3    H276400   6.344   5.463  14.163 -2.0007 -1.5645  0.0082
18329TIP3   OH276401   6.156   3.783  16.998 -0.0735 -0.2711 -0.3729
18329TIP3    H176402   6.161   3.725  16.922  0.5748 -0.2574 -0.3418
18329TIP3    H276403   6.246   3.815  17.010  0.1970 -1.6712  1.4935
18330TIP3   OH276404   4.993   0.520   1.477  0.7420  0.2510  0.1248
18330TIP3    H176405   5.002   0.448   1.415  2.0393 -0.0585  0.6493
18330TIP3    H276406   5.006   0.599   1.424  1.1089  0.0190 -0.1353
18331TIP3   OH276407   2.217   1.769  13.915 -0.3555 -0.1050  0.2215
18331TIP3    H176408   2.307   1.756  13.884  0.9868  1.9777  3.0443
18331TIP3    H276409   2.191   1.683  13.947  0.9842 -0.5170  0.2575
18332TIP3   OH276410   0.343   1.521   3.352  0.5491  0.2354 -0.3215
18332TIP3    H176411   0.355   1.578   3.275 -0.2075 -1.0485 -1.4058
18332TIP3    H276412   0.293   1.575   3.414  1.2155  1.3016 -0.7035
18333TIP3   OH276413   5.875   2.801  12.386 -0.1144 -0.0685  0.0739
18333TIP3    H176414   5.808   2.800  12.317 -0.0901  0.5501  0.0339
18333TIP3    H276415   5.882   2.894  12.410  0.9692 -0.0948 -0.1539
18334TIP3   OH276416   3.261   5.442  15.150  0.1689 -0.0836  0.0116
18334TIP3    H176417   3.287   5.351  15.157  0.2144 -0.1810 -1.2818
18334TIP3    H276418   3.166   5.441  15.161  0.4548  0.0686  2.9282
18335TIP3   OH276419   4.979   0.474  11.682  0.8663 -0.3080 -0.2784
18335TIP3    H176420   4.924   0.537  11.635 -1.3736 -2.1789 -0.2894
18335TIP3    H276421   4.963   0.493  11.774  0.0728 -0.9075 -0.2816
18336TIP3   OH276422   0.386   0.627  14.598  0.2004 -0.4200  0.2208
18336TIP3    H176423   0.434   0.688  14.655  0.6735 -3.2107  2.9500
18336TIP3    H276424   0.454   0.588  14.543  0.3316 -0.7281  0.6022
18337TIP3   OH276425   6.718   6.270   3.514 -0.1651  0.4337  0.2392
18337TIP3    H176426   6.637   6.314   3.539 -1.2545 -1.2917 -0.2218
18337TIP3    H276427   6.713   6.185   3.556  0.3286 -0.5658 -1.6875
18338TIP3   OH276428   0.858   6.747   1.343 -0.1502 -0.8892  0.3934
18338TIP3    H176429   0.861   6.660   1.383 -1.2067 -1.0556  0.1078
18338TIP3    H276430   0.910   6.737   1.263  1.3035 -0.7593  1.3024
18339TIP3   OH276431   5.491   6.255  15.795 -0.2043  0.5277  0.6272
18339TIP3    H176432   5.571   6.287  15.838  0.6498 -1.8935  0.9472
18339TIP3    H276433   5.516   6.170  15.758 -1.3713  1.7977 -3.3333
18340TIP3   OH276434   1.828   3.295  11.418  0.4994  0.3234 -0.2908
18340TIP3    H176435   1.797   3.385  11.420 -1.6327 -0.3833 -0.4761
18340TIP3    H276436   1.915   3.298  11.458 -1.6323  1.6562  4.5243
18341TIP3   OH276437   3.236   1.567   1.133  0.0456  0.0851  0.2615
18341TIP3    H176438   3.272   1.571   1.044  0.2575  1.4231  0.3873
18341TIP3    H276439   3.207   1.477   1.143  0.4885 -0.2156 -0.9853
18342TIP3   OH276440   3.653   0.144   4.144  0.3075  0.1657 -0.6526
18342TIP3    H176441   3.586   0.135   4.077 -0.7178 -1.1746  0.5048
18342TIP3    H276442   3.605   0.137   4.227  1.5714  1.5389  0.2288
18343TIP3   OH276443   3.345   3.061  13.049 -0.2923 -0.2963  0.3729
18343TIP3    H176444   3.311   3.015  13.125  1.5206  1.0740  2.0630
18343TIP3    H276445   3.404   3.126  13.085  1.9652 -0.7737 -2.3253
18344TIP3   OH276446   1.715   4.787   5.150 -0.1804 -0.3355 -0.6163
18344TIP3    H176447   1.666   4.781   5.068 -1.4451  1.9155 -0.0664
18344TIP3    H276448   1.728   4.881   5.163  0.6051 -0.7016  1.4049
18345TIP3   OH276449   1.500   1.925   5.238 -0.0561 -0.3863  0.1098
18345TIP3    H176450   1.416   1.902   5.277 -0.2820 -1.2941 -0.8916
18345TIP3    H276451   1.562   1.863   5.276 -0.1152 -0.6880 -0.2811
18346TIP3   OH276452   4.569   0.823   0.505  0.0728 -0.0615  0.1179
18346TIP3    H176453   4.584   0.732   0.530 -0.3204 -0.2687 -0.3823
18346TIP3    H276454   4.654   0.855   0.476 -0.2025 -0.8838 -1.6303
18347TIP3   OH276455   0.327   1.376  10.872  0.3386  0.5834  0.4602
18347TIP3    H176456   0.251   1.426  10.903 -1.5362 -0.8440 -1.6543
18347TIP3    H276457   0.361   1.427  10.799  0.7959  0.7156  0.7663
18348TIP3   OH276458   2.167   5.093   4.493 -0.3462  0.2400  0.5634
18348TIP3    H176459   2.137   5.151   4.563 -0.5260 -1.2568  1.7540
18348TIP3    H276460   2.255   5.069   4.519  0.4440  1.4669 -0.9067
18349TIP3   OH276461   4.911   3.718  15.537 -0.2206  0.2696  0.5940
18349TIP3    H176462   4.833   3.720  15.481  0.0159  1.0442  0.2875
18349TIP3    H276463   4.914   3.628  15.570 -0.6766 -0.0479 -0.1999
18350TIP3   OH276464   6.775   2.322  16.811  0.2370 -0.6618 -0.5107
18350TIP3    H176465   6.799   2.292  16.899 -0.9071  0.6628  0.2717
18350TIP3    H276466   6.814   2.409  16.804 -1.7828  0.2918 -0.3377
18351TIP3   OH276467   4.988   4.161   5.255 -0.4734  0.1420 -0.1747
18351TIP3    H176468   4.941   4.183   5.174 -2.1217 -0.8830  0.4756
18351TIP3    H276469   4.927   4.186   5.325  1.1226  1.4366  0.7847
18352TIP3   OH276470   4.406   6.518  15.914  0.1524  0.0262  0.2667
18352TIP3    H176471   4.500   6.508  15.927  0.2568  1.9425  1.1227
18352TIP3    H276472   4.397   6.601  15.866 -1.1651  0.5171  1.3412
18353TIP3   OH276473   3.463   5.395   4.108  0.3396 -0.3296 -0.4213
18353TIP3    H176474   3.516   5.365   4.182 -0.6800 -1.3723 -0.1116
18353TIP3    H276475   3.507   5.358   4.031  0.1265 -1.0860 -0.1753
18354TIP3   OH276476   6.766   2.068   4.331  0.7270 -0.0908  0.0016
18354TIP3    H176477   6.815   2.151   4.323  0.0290  0.5142  1.9506
18354TIP3    H276478   6.820   2.014   4.389  1.2737 -1.1026 -1.4137
18355TIP3   OH276479   6.465   4.152  12.197 -0.0424  0.1431 -0.0765
18355TIP3    H176480   6.474   4.153  12.292  0.7711  2.9133 -0.1544
18355TIP3    H276481   6.500   4.067  12.171 -1.1958 -1.0759  2.1428
18356TIP3   OH276482   6.250   4.871   1.711 -0.4882 -0.1315  0.0542
18356TIP3    H176483   6.234   4.839   1.799 -1.5976  0.3469  0.0463
18356TIP3    H276484   6.222   4.963   1.714  1.8197  0.6027 -0.1391
18357TIP3   OH276485   5.324   0.203   5.418 -0.2847 -0.0418 -0.0509
18357TIP3    H176486   5.250   0.159   5.375 -0.1052 -0.7737  0.3970
18357TIP3    H276487   5.341   0.151   5.496  0.4538  0.3564  0.0534
18358TIP3   OH276488   0.956   2.688  11.577 -0.7849 -0.5606 -0.0532
18358TIP3    H176489   0.927   2.716  11.664  1.5655  0.8511  0.3225
18358TIP3    H276490   1.017   2.616  11.593  1.2830  1.0565 -0.3273
18359TIP3   OH276491   1.445   4.614   5.555  0.6236 -0.3626  0.0708
18359TIP3    H176492   1.452   4.619   5.650  2.0604 -0.5039 -0.0156
18359TIP3    H276493   1.530   4.645   5.523 -0.7300  2.0490 -1.2526
18360TIP3   OH276494   0.725   2.259   5.323 -0.6154 -0.1117 -0.2463
18360TIP3    H176495   0.656   2.206   5.362  0.0719 -0.6244  0.2711
18360TIP3    H276496   0.779   2.197   5.273 -0.4538  0.2693 -0.5522
18361TIP3   OH276497   4.540   0.552   0.866 -0.6218 -0.0905 -0.2540
18361TIP3    H176498   4.617   0.546   0.923 -0.1329 -0.4687 -0.9472
18361TIP3    H276499   4.509   0.641   0.878 -0.6202 -0.2125  0.7297
18362TIP3   OH276500   1.981   3.910  13.900  0.0947  0.4773 -0.4389
18362TIP3    H176501   1.978   3.998  13.863  1.4526  0.5957 -0.3053
18362TIP3    H276502   1.892   3.894  13.932  0.5700  3.1398  2.5310
18363TIP3   OH276503   4.516   1.200  16.128 -0.4103 -0.7455 -0.2774
18363TIP3    H176504   4.580   1.140  16.167 -0.2642 -0.3775  0.0561
18363TIP3    H276505   4.540   1.286  16.162 -0.7521 -0.5267 -0.5829
18364TIP3   OH276506   3.702   5.595  17.127  0.2351  0.0667  0.3690
18364TIP3    H176507   3.629   5.651  17.154  0.4317  1.2142 -1.4467
18364TIP3    H276508   3.681   5.569  17.038  1.3592 -0.7561  0.3356
18365TIP3   OH276509   5.803   2.616   0.695 -0.2587  0.5392 -0.1174
18365TIP3    H176510   5.791   2.660   0.779 -0.9347 -1.0176  0.6262
18365TIP3    H276511   5.747   2.664   0.634 -0.8150  0.8444  0.6274
18366TIP3   OH276512   5.886   1.306  13.875 -0.8109  0.2952  0.0342
18366TIP3    H176513   5.864   1.396  13.848  1.7658  0.5626 -1.3112
18366TIP3    H276514   5.949   1.316  13.946 -1.5331 -0.4624  0.7924
18367TIP3   OH276515   6.124   5.323  15.131 -0.3660 -0.0283  0.1237
18367TIP3    H176516   6.125   5.415  15.106 -1.2320 -0.0665 -0.0513
18367TIP3    H276517   6.073   5.280  15.063  0.4242 -0.7150 -0.0469
18368TIP3   OH276518   6.285   0.179  13.742  0.2357 -0.2832 -0.4210
18368TIP3    H176519   6.280   0.273  13.724 -0.4014 -0.1968  0.1783
18368TIP3    H276520   6.379   0.161  13.749  0.3256  0.5966  0.9123
18369TIP3   OH276521   5.138   5.659   3.849 -0.4406  0.2087  0.2926
18369TIP3    H176522   5.043   5.649   3.841 -0.4741  1.3065 -0.8988
18369TIP3    H276523   5.151   5.752   3.870  0.3717  0.0614  0.4664
18370TIP3   OH276524   2.184   0.915   5.486  0.3711 -0.1709 -0.5594
18370TIP3    H176525   2.179   0.961   5.402 -0.5935 -0.0860 -0.4614
18370TIP3    H276526   2.275   0.885   5.492  0.2589 -0.8051 -1.9615
18371TIP3   OH276527   5.002   1.272   6.163 -0.6199  0.6752 -0.5861
18371TIP3    H176528   4.916   1.307   6.187 -1.7652  0.3445 -3.8653
18371TIP3    H276529   5.021   1.313   6.078  2.6260  0.9591  0.2258
18372TIP3   OH276530   0.956   5.030   3.482  0.1926 -0.2776  0.2387
18372TIP3    H176531   0.880   5.026   3.540 -1.1434  1.8251 -1.3142
18372TIP3    H276532   0.943   4.958   3.421  1.2782 -2.0990  2.0664
18373TIP3   OH276533   1.947   2.423   5.569 -0.4821 -0.5733  0.5609
18373TIP3    H176534   2.037   2.418   5.599 -0.2363  0.6177  0.0424
18373TIP3    H276535   1.909   2.339   5.593  0.7568 -1.0720  0.7996
18374TIP3   OH276536   2.064   2.342  14.991 -0.2671  0.1122  0.2939
18374TIP3    H176537   2.070   2.251  15.022 -0.2047  0.4455  1.2700
18374TIP3    H276538   2.003   2.384  15.052 -0.3585  0.7144 -0.2043
18375TIP3   OH276539   2.288   1.513  16.000 -0.0082  0.2590 -0.1889
18375TIP3    H176540   2.240   1.471  15.929 -1.3142  2.4650 -0.6506
18375TIP3    H276541   2.362   1.556  15.957 -0.0143  0.4351 -0.0231
18376TIP3   OH276542   2.731   2.680  17.021  0.0302  0.3917  0.3282
18376TIP3    H176543   2.814   2.656  16.979  0.5839  0.7615  1.1913
18376TIP3    H276544   2.665   2.668  16.953  0.7320 -0.3886 -0.2236
18377TIP3   OH276545   1.830   3.601   2.216  0.1133 -0.1616  0.0220
18377TIP3    H176546   1.868   3.624   2.131  0.7745 -1.9526 -0.1847
18377TIP3    H276547   1.736   3.617   2.205  0.3093  0.5952 -0.6994
18378TIP3   OH276548   5.684   2.083  12.088 -0.5402 -0.4689  0.3434
18378TIP3    H176549   5.590   2.105  12.082 -0.1869  1.7965  2.3436
18378TIP3    H276550   5.686   1.999  12.134 -1.6095 -1.1349 -0.7712
18379TIP3   OH276551   0.144   1.404   3.128 -0.0380  0.2108  0.3064
18379TIP3    H176552   0.178   1.318   3.155 -1.3703  0.1690  1.9538
18379TIP3    H276553   0.050   1.392   3.124 -0.0511  0.8673 -2.2437
18380TIP3   OH276554   6.667   3.285  16.921  0.3423 -0.1592  0.0819
18380TIP3    H176555   6.645   3.286  16.829  0.7674 -1.1761 -0.0464
18380TIP3    H276556   6.763   3.279  16.923  0.2623 -1.8744  0.5455
18381TIP3   OH276557   1.923   5.174  12.432  0.5244  0.8526 -0.1230
18381TIP3    H176558   1.858   5.138  12.493  0.5216  3.9757  1.7837
18381TIP3    H276559   2.006   5.167  12.478  0.9812  0.4465 -1.0021
18382TIP3   OH276560   5.159   2.299  12.948  0.4501 -0.4529 -0.8399
18382TIP3    H176561   5.119   2.212  12.939 -1.7969  0.3930  0.5356
18382TIP3    H276562   5.147   2.321  13.040 -0.0851  1.7980 -1.4250
18383TIP3   OH276563   5.523   1.963  13.525 -0.0469 -0.2222 -0.2806
18383TIP3    H176564   5.471   2.042  13.509  0.8943  0.4735  0.0260
18383TIP3    H276565   5.497   1.934  13.612 -0.3070 -0.1745 -0.3431
18384TIP3   OH276566   4.089   4.820   4.840 -0.5243 -0.0748 -0.3890
18384TIP3    H176567   4.093   4.831   4.935 -1.5072  0.3119 -0.3860
18384TIP3    H276568   4.081   4.909   4.806 -2.1389 -0.3220 -0.7139
18385TIP3   OH276569   5.126   2.411   5.559  0.1795  0.0813 -0.4568
18385TIP3    H176570   5.148   2.330   5.606 -0.4536 -0.5624 -1.2392
18385TIP3    H276571   5.177   2.406   5.478  0.9462  0.9836 -0.0416
18386TIP3   OH276572   4.911   4.855   0.544  0.3010  0.2100  0.0932
18386TIP3    H176573   4.851   4.819   0.478 -1.9609 -0.0108  2.2257
18386TIP3    H276574   4.984   4.793   0.545 -0.4729 -0.7582 -0.9303
18387TIP3   OH276575   1.257   2.247  16.501 -0.3181  0.2894  0.3265
18387TIP3    H176576   1.322   2.210  16.561 -1.2682 -2.0161  0.0130
18387TIP3    H276577   1.306   2.305  16.444  0.8304  1.4693  2.4672
18388TIP3   OH276578   6.654   2.415  13.137  0.9396 -0.0450  0.0826
18388TIP3    H176579   6.593   2.366  13.082  1.9425 -1.2692  0.0519
18388TIP3    H276580   6.680   2.490  13.083  0.5769 -0.2998 -0.4472
18389TIP3   OH276581   1.648   6.515   2.059  0.2413 -0.1200  0.5563
18389TIP3    H176582   1.721   6.467   2.020 -1.0776 -2.2974  0.6745
18389TIP3    H276583   1.598   6.548   1.984 -0.0055 -0.7222  0.4597
18390TIP3   OH276584   1.710   0.400   4.707  0.3279 -0.1571 -0.0816
18390TIP3    H176585   1.699   0.470   4.771  0.1200 -1.7870  1.7037
18390TIP3    H276586   1.800   0.369   4.720  0.1229 -0.8287 -0.2141
18391TIP3   OH276587   6.597   0.479   5.934 -0.0760 -0.6172  0.3251
18391TIP3    H176588   6.533   0.461   5.866  0.0760 -0.1698  0.0673
18391TIP3    H276589   6.545   0.498   6.012 -0.2980  2.3203 -0.5099
18392TIP3   OH276590   5.490   3.318  12.608 -0.1102  0.1735 -0.0448
18392TIP3    H176591   5.473   3.381  12.538 -0.7983  0.0036 -0.0308
18392TIP3    H276592   5.453   3.359  12.686 -2.6695 -1.2773 -0.4585
18393TIP3   OH276593   3.419   0.397  13.150 -0.1299 -0.0358  0.0537
18393TIP3    H176594   3.450   0.355  13.231  0.9610 -1.0851 -0.8790
18393TIP3    H276595   3.478   0.363  13.082 -1.6428  0.0801 -1.3383
18394TIP3   OH276596   4.122   5.704   2.483  0.2374  0.2506  0.1687
18394TIP3    H176597   4.155   5.773   2.540  0.6598  1.2139 -1.2103
18394TIP3    H276598   4.047   5.744   2.438  1.1728  0.1965 -1.4725
18395TIP3   OH276599   5.359   3.878  11.484 -0.0070  1.3665  0.0231
18395TIP3    H176600   5.382   3.808  11.546  0.3830  1.1172 -0.3967
18395TIP3    H276601   5.318   3.945  11.538 -0.1654  0.9157  0.4695
18396TIP3   OH276602   6.179   4.746   2.666 -0.3179 -0.0818 -0.5166
18396TIP3    H176603   6.200   4.813   2.730 -2.1020 -2.2261  2.4170
18396TIP3    H276604   6.195   4.788   2.581  2.2518  2.7650  1.2663
18397TIP3   OH276605   1.727   0.170  16.873 -0.4557  0.6487 -0.0966
18397TIP3    H176606   1.638   0.136  16.873 -0.7122  1.3218 -0.2294
18397TIP3    H276607   1.721   0.254  16.918 -0.1884  1.4514 -1.5164
18398TIP3   OH276608   1.361   1.699   3.800 -0.0735 -0.5711 -0.3006
18398TIP3    H176609   1.372   1.750   3.720  0.0758  0.3338  0.2902
18398TIP3    H276610   1.328   1.762   3.864  1.3020 -0.9162  0.7790
18399TIP3   OH276611   0.236   5.023   1.741  0.4987  1.0017  0.2698
18399TIP3    H176612   0.272   5.036   1.653  0.8550 -0.0544  0.2517
18399TIP3    H276613   0.141   5.019   1.727  0.4365  2.4942  0.1544
18400TIP3   OH276614   0.969   5.763  16.395 -0.4076 -0.8107  0.0856
18400TIP3    H176615   0.981   5.798  16.483 -1.8695  0.1364 -0.0695
18400TIP3    H276616   0.886   5.716  16.399 -0.2383 -1.1866 -0.6689
18401TIP3   OH276617   6.450   3.176  16.700  0.3650 -0.1237 -0.0190
18401TIP3    H176618   6.483   3.209  16.616  0.4796 -0.9698 -0.3035
18401TIP3    H276619   6.409   3.092  16.679  0.0113 -0.1351  0.7043
18402TIP3   OH276620   2.095   5.114   0.300  0.2487  0.3585 -0.5861
18402TIP3    H176621   2.021   5.054   0.315  0.3957  0.3396  0.0970
18402TIP3    H276622   2.073   5.192   0.352  0.4172  0.5935 -0.8691
18403TIP3   OH276623   1.139   5.614   3.577  0.3648  0.1156 -0.2936
18403TIP3    H176624   1.132   5.597   3.671  2.3824  1.6484  0.1817
18403TIP3    H276625   1.049   5.617   3.546 -0.2855 -2.1064  1.2609
18404TIP3   OH276626   1.561   0.781  11.058 -0.2514 -0.2009  0.0801
18404TIP3    H176627   1.536   0.700  11.014 -1.5848 -1.8115  3.6348
18404TIP3    H276628   1.478   0.827  11.072  0.6177  2.6202 -3.2616
18405TIP3   OH276629   4.327   1.000  14.104  0.5163  0.5261 -0.2930
18405TIP3    H176630   4.411   0.954  14.095  0.8140  1.0783 -0.4057
18405TIP3    H276631   4.293   0.970  14.188  1.3417  1.1028  0.2595
18406TIP3   OH276632   2.164   0.650  14.980  0.5127 -0.2357 -0.0832
18406TIP3    H176633   2.234   0.604  14.934 -0.0407 -0.6444 -0.5349
18406TIP3    H276634   2.089   0.590  14.975  0.2379  0.0315  0.7183
18407TIP3   OH276635   1.579   5.796  11.679 -0.0491  0.3517  0.1253
18407TIP3    H176636   1.653   5.811  11.739  0.3868 -0.1715 -0.2721
18407TIP3    H276637   1.509   5.763  11.735  0.6116 -0.9038  0.2554
18408TIP3   OH276638   1.171   6.201   1.468  0.0306  0.2954  0.3678
18408TIP3    H176639   1.185   6.189   1.374  0.2711 -0.0165  0.4462
18408TIP3    H276640   1.129   6.120   1.497 -0.5645  0.6185  0.4234
18409TIP3   OH276641   0.602   4.344   0.888 -0.2462 -0.1945 -0.1849
18409TIP3    H176642   0.690   4.320   0.857  0.0899 -1.4570  1.6731
18409TIP3    H276643   0.616   4.425   0.938 -0.4872  0.7553 -1.6176
18410TIP3   OH276644   2.316   1.605   4.064  0.2640 -0.3533  0.4519
18410TIP3    H176645   2.223   1.584   4.054  0.3361 -0.4425 -0.0666
18410TIP3    H276646   2.333   1.672   3.998  0.0285  1.4131  2.1379
18411TIP3   OH276647   0.814   1.962  16.488 -0.2585 -0.5746  0.1487
18411TIP3    H176648   0.735   1.930  16.533  0.4551 -1.6163  0.7031
18411TIP3    H276649   0.859   2.015  16.554 -1.2174  1.2481 -0.6358
18412TIP3   OH276650   3.881   0.658  16.207  0.3014  0.8187  0.2647
18412TIP3    H176651   3.934   0.731  16.175  2.1649 -0.4958  0.2685
18412TIP3    H276652   3.919   0.637  16.292  2.1036 -2.3869 -1.2239
18413TIP3   OH276653   1.830   4.457  12.672 -0.0976 -0.0052 -0.6340
18413TIP3    H176654   1.856   4.483  12.760  0.9469  0.6570 -1.1367
18413TIP3    H276655   1.735   4.443  12.678 -0.1083  0.5350  0.4623
18414TIP3   OH276656   1.159   6.035   3.710 -0.5937  0.4041 -0.1423
18414TIP3    H176657   1.222   6.094   3.750 -0.4909  0.3946 -0.2902
18414TIP3    H276658   1.191   6.022   3.621  0.0024 -0.7594  0.2259
18415TIP3   OH276659   4.139   1.997   0.767  0.2478 -0.0276  0.1318
18415TIP3    H176660   4.156   2.043   0.685  4.4278 -1.3405  0.1404
18415TIP3    H276661   4.140   1.904   0.742  1.9518 -0.4481  1.6934
18416TIP3   OH276662   3.608   1.360   1.428  0.5293 -0.1338  0.3342
18416TIP3    H176663   3.600   1.438   1.373 -1.1456 -0.3363  0.2674
18416TIP3    H276664   3.650   1.391   1.508 -0.1764  0.8610  0.3328
18417TIP3   OH276665   3.345   3.636  16.234 -0.1100  0.1706  0.3599
18417TIP3    H176666   3.396   3.716  16.241 -0.5407  0.5071 -0.2909
18417TIP3    H276667   3.397   3.579  16.177 -0.4873  0.5383 -0.3575
18418TIP3   OH276668   3.346   3.332   5.545  0.0789  0.1212  0.1458
18418TIP3    H176669   3.377   3.393   5.611 -0.1477 -0.7483  1.0668
18418TIP3    H276670   3.309   3.258   5.595  0.6029 -0.8942 -0.9341
18419TIP3   OH276671   1.817   0.239   3.896  0.6035 -0.4656  0.0000
18419TIP3    H176672   1.725   0.215   3.886  0.4884 -0.5914  1.2136
18419TIP3    H276673   1.834   0.302   3.827 -0.6355  0.2025  0.2996
18420TIP3   OH276674   6.519   6.713   0.123 -0.4380  0.0523 -0.3778
18420TIP3    H176675   6.541   6.627   0.158 -1.0302 -0.8653 -2.1724
18420TIP3    H276676   6.565   6.717   0.039  0.4996  1.9621  0.2115
18421TIP3   OH276677   2.222   2.865   2.315 -0.4476 -0.1010  0.3635
18421TIP3    H176678   2.211   2.772   2.337  0.5966 -0.3314 -0.0555
18421TIP3    H276679   2.210   2.911   2.399  1.1861 -0.7927  1.0088
18422TIP3   OH276680   4.375   6.739  16.631  0.3839  0.2417 -0.1392
18422TIP3    H176681   4.406   6.714  16.718  0.3960 -1.2088 -0.5452
18422TIP3    H276682   4.280   6.733  16.637  0.3849  0.1468 -0.2219
18423TIP3   OH276683   4.532   4.791  15.346  0.0406  0.1249  0.8539
18423TIP3    H176684   4.618   4.791  15.303 -0.4304  0.5448 -0.1007
18423TIP3    H276685   4.519   4.700  15.373 -0.4548 -0.5579 -1.5540
18424TIP3   OH276686   0.865   5.543  14.979  0.7890 -0.7247  0.1947
18424TIP3    H176687   0.864   5.522  14.886 -0.6559  1.4071 -0.3190
18424TIP3    H276688   0.834   5.463  15.022 -1.3768 -0.7921 -1.3894
18425TIP3   OH276689   0.457   1.139  13.519 -0.4099 -0.1897  0.1061
18425TIP3    H176690   0.520   1.187  13.466  1.0144 -1.0108  1.0152
18425TIP3    H276691   0.434   1.063  13.466 -1.5207  0.6981 -0.7035
18426TIP3   OH276692   1.080   1.638   5.796 -0.4625 -0.9945  0.2904
18426TIP3    H176693   1.138   1.563   5.810  0.8008 -0.6314 -2.5879
18426TIP3    H276694   1.048   1.627   5.706 -1.5350  1.0710  0.3795
18427TIP3   OH276695   5.479   4.752  13.266  0.0888  0.7411 -0.0654
18427TIP3    H176696   5.481   4.656  13.255 -2.5608  0.6870 -0.5523
18427TIP3    H276697   5.553   4.784  13.214  1.1003 -1.0450  0.2297
18428TIP3   OH276698   5.485   5.268   0.320  0.7805  0.5271  0.2080
18428TIP3    H176699   5.467   5.317   0.400  2.4856 -0.5155  1.2389
18428TIP3    H276700   5.558   5.210   0.342 -0.0350 -1.2126 -1.5212
18429TIP3   OH276701   4.955   6.178  13.121  0.1460  0.5243  0.0415
18429TIP3    H176702   4.927   6.194  13.031  0.1099  0.5423  0.0559
18429TIP3    H276703   4.894   6.112  13.153  0.6151 -0.0255 -0.1857
18430TIP3   OH276704   2.707   2.894   2.032  0.2921 -0.0094 -0.2626
18430TIP3    H176705   2.736   2.956   1.966  1.1681  0.1257  0.2433
18430TIP3    H276706   2.785   2.843   2.054  0.2476  0.5981  1.3794
18431TIP3   OH276707   0.935   3.823  14.601  0.1337 -0.6698  0.1528
18431TIP3    H176708   0.939   3.917  14.583 -0.2019 -0.8583 -0.9844
18431TIP3    H276709   0.841   3.803  14.603  0.2136 -1.1756 -0.7401
18432TIP3   OH276710   5.709   6.525  11.986 -0.0789 -0.2038 -0.4574
18432TIP3    H176711   5.799   6.502  11.966  0.7466  2.2096  0.3132
18432TIP3    H276712   5.674   6.561  11.904 -0.4714 -1.4669 -0.8552
18433TIP3   OH276713   6.503   0.465  15.762 -0.1002  0.1585 -0.1044
18433TIP3    H176714   6.442   0.522  15.715 -3.5008 -1.1925  2.4288
18433TIP3    H276715   6.567   0.526  15.800 -0.5378  1.7445 -1.7881
18434TIP3   OH276716   3.402   2.610  13.387  0.3710 -0.3443  0.2604
18434TIP3    H176717   3.465   2.562  13.441  0.6475 -0.6438 -0.3225
18434TIP3    H276718   3.316   2.577  13.414  0.6268 -2.1475 -1.0683
18435TIP3   OH276719   2.959   6.713   5.902  0.1541 -0.4116  0.2459
18435TIP3    H176720   3.030   6.684   5.844 -0.6485 -1.2223 -0.3552
18435TIP3    H276721   2.943   6.638   5.959  1.3799  0.6154  1.9812
18436TIP3   OH276722   6.121   2.263  15.726 -0.1817  0.7007 -0.2432
18436TIP3    H176723   6.209   2.240  15.699  0.1744 -0.1399  1.5577
18436TIP3    H276724   6.089   2.322  15.657  0.9187 -0.8220 -2.0842
18437TIP3   OH276725   0.203   1.405   6.852 -0.2515  0.2108 -0.1528
18437TIP3    H176726   0.284   1.456   6.858  0.5192 -0.9227 -0.8553
18437TIP3    H276727   0.217   1.345   6.779 -1.0753 -1.1434  0.7824
18438TIP3   OH276728   3.008   1.977  14.542 -0.0638 -0.4169  0.5264
18438TIP3    H176729   3.059   1.986  14.461 -1.5286 -2.3508 -0.6486
18438TIP3    H276730   2.929   2.029  14.526 -0.5362 -1.1208  0.5505
18439TIP3   OH276731   6.630   2.805  16.617 -0.1751  0.1254 -0.0185
18439TIP3    H176732   6.711   2.806  16.669 -0.2960 -3.0958  0.3530
18439TIP3    H276733   6.562   2.780  16.680 -1.2679  1.5090 -0.6189
18440TIP3   OH276734   1.906   5.212  13.987 -0.0702 -0.2073 -0.4995
18440TIP3    H176735   1.950   5.230  13.904  0.7747  0.6140  0.1088
18440TIP3    H276736   1.813   5.219  13.967  0.1631  1.6692 -1.0139
18441TIP3   OH276737   5.972   0.489  14.557 -0.1484  0.1758 -0.4047
18441TIP3    H176738   6.064   0.470  14.573 -0.0046  0.5058 -0.8346
18441TIP3    H276739   5.957   0.574  14.598 -0.4876 -0.2802  0.4417
18442TIP3   OH276740   0.393   3.614  15.119  0.2372 -0.2534 -0.2176
18442TIP3    H176741   0.462   3.674  15.090  2.0439 -1.5918  1.1352
18442TIP3    H276742   0.415   3.596  15.210 -0.6909 -2.3577 -0.3865
18443TIP3   OH276743   5.093   3.474   5.096 -0.0298  0.1214 -0.1815
18443TIP3    H176744   5.014   3.433   5.131  0.9527 -0.8557  0.9120
18443TIP3    H276745   5.080   3.568   5.111 -1.2030  0.0064 -0.4732
18444TIP3   OH276746   2.778   6.702  11.598 -0.4269 -0.0568  0.5700
18444TIP3    H176747   2.863   6.722  11.557 -0.0862 -0.5950  1.0002
18444TIP3    H276748   2.747   6.786  11.631 -1.3402  0.6426 -1.9400
18445TIP3   OH276749   4.887   2.943   0.086  0.1694  0.4355  0.0828
18445TIP3    H176750   4.911   3.032   0.112  0.0421  0.3944  0.3415
18445TIP3    H276751   4.809   2.923   0.138  0.0254  0.2816 -0.1895
18446TIP3   OH276752   4.564   0.492  14.954 -0.3474  0.2923 -0.6056
18446TIP3    H176753   4.583   0.538  15.036  0.5408 -0.8473 -0.1685
18446TIP3    H276754   4.637   0.515  14.896  1.2609 -2.2816  0.3335
18447TIP3   OH276755   4.302   5.701  10.403 -0.7257 -0.3703  0.2364
18447TIP3    H176756   4.384   5.751  10.407 -0.4669 -0.8280  0.6886
18447TIP3    H276757   4.288   5.686  10.309 -0.9149  0.7218  0.0777
18448TIP3   OH276758   6.611   3.038   2.256  0.2233  0.2681 -0.5243
18448TIP3    H176759   6.659   3.116   2.284  0.7473 -0.0317 -0.5695
18448TIP3    H276760   6.618   3.038   2.160 -2.7647  2.0540 -0.7859
18449TIP3   OH276761   4.362   1.394  12.584  0.3776  0.2345  0.2062
18449TIP3    H176762   4.402   1.441  12.657 -1.4386  2.5134 -0.1979
18449TIP3    H276763   4.276   1.367  12.616 -0.0376  0.3764 -0.7498
18450TIP3   OH276764   0.393   4.174  14.368 -0.3745 -0.6545 -0.2821
18450TIP3    H176765   0.416   4.265  14.349 -0.9306  0.2036  2.8544
18450TIP3    H276766   0.299   4.169  14.350 -0.2909 -0.7010 -0.7177
18451TIP3   OH276767   3.992   3.319  17.230  0.5305 -0.1862  0.2612
18451TIP3    H176768   3.949   3.397  17.194  0.1057 -0.8300 -0.6134
18451TIP3    H276769   3.974   3.250  17.167  2.0325 -0.6918  0.3671
18452TIP3   OH276770   2.115   2.989  11.621 -0.2487  0.0427  0.2377
18452TIP3    H176771   2.043   2.972  11.560  1.6139 -0.0236 -2.0516
18452TIP3    H276772   2.182   2.925  11.596  1.2211  1.1691  1.2393
18453TIP3   OH276773   3.497   3.315   1.582 -0.3856  0.2463  0.7725
18453TIP3    H176774   3.452   3.316   1.497 -0.3248 -1.5457  0.7112
18453TIP3    H276775   3.440   3.264   1.638  1.4090 -1.8207  0.7768
18454TIP3   OH276776   2.958   0.098   4.122  0.4454  0.0276 -0.4706
18454TIP3    H176777   3.015   0.175   4.126  0.3444  0.1313 -0.8789
18454TIP3    H276778   2.942   0.086   4.028 -0.5800  0.2868 -0.3392
18455TIP3   OH276779   0.762   1.342  14.972  0.0339  0.7497  0.0412
18455TIP3    H176780   0.729   1.343  15.061  1.4731 -2.9051  0.6956
18455TIP3    H276781   0.843   1.391  14.975  0.6681 -0.3430  1.0333
18456TIP3   OH276782   2.097   0.544  16.966 -0.1682  0.1761  0.2863
18456TIP3    H176783   2.182   0.579  16.937  0.4147 -1.3153  0.1603
18456TIP3    H276784   2.069   0.486  16.894 -1.3739  0.7790  0.2609
18457TIP3   OH276785   4.074   5.777   4.864  0.0910  0.3230  0.3875
18457TIP3    H176786   4.128   5.774   4.943  1.5024 -0.7086 -0.5895
18457TIP3    H276787   3.992   5.817   4.892  1.2642  1.6860  1.9635
18458TIP3   OH276788   0.413   4.293   5.433  0.4965  0.6725 -0.5252
18458TIP3    H176789   0.359   4.334   5.501  0.6762 -0.7910  0.5199
18458TIP3    H276790   0.368   4.314   5.351 -1.1283  0.3285  0.2419
18459TIP3   OH276791   1.200   3.793   0.938  0.2627 -0.3012  0.1170
18459TIP3    H176792   1.190   3.844   0.857  1.3747  0.3763  0.3966
18459TIP3    H276793   1.292   3.766   0.939 -0.3078 -2.3251 -0.0139
18460TIP3   OH276794   1.367   4.792  13.620  0.3334  0.4080 -0.3090
18460TIP3    H176795   1.273   4.805  13.604  0.8278  1.4543 -2.5293
18460TIP3    H276796   1.387   4.854  13.690 -0.7402 -0.1923  0.5484
18461TIP3   OH276797   2.360   1.933   1.036 -0.0614 -0.3081 -0.2179
18461TIP3    H176798   2.271   1.912   1.064 -0.1172  0.5103  0.2171
18461TIP3    H276799   2.371   2.026   1.056 -0.2256  0.3969 -3.2533
18462TIP3   OH276800   0.388   6.326  12.450  0.3466 -0.1483  0.1587
18462TIP3    H176801   0.309   6.376  12.426 -0.4450 -2.9646 -3.6886
18462TIP3    H276802   0.354   6.249  12.495  1.1115 -0.0079  0.9680
18463TIP3   OH276803   6.346   0.322  14.922  0.2430 -0.8100 -0.3089
18463TIP3    H176804   6.415   0.362  14.869 -1.2926  0.0154 -1.7469
18463TIP3    H276805   6.287   0.394  14.944 -2.5369 -2.1454 -2.9197
18464TIP3   OH276806   6.173   3.988   5.449  0.8792 -0.2517 -0.8702
18464TIP3    H176807   6.248   3.932   5.464  0.6307 -0.3754 -0.1054
18464TIP3    H276808   6.172   4.049   5.523  1.1666  0.7907 -1.7008
18465TIP3   OH276809   4.563   3.112  17.199 -0.2695  0.4864 -0.3259
18465TIP3    H176810   4.536   3.108  17.107  0.6019 -0.9862 -0.5346
18465TIP3    H276811   4.484   3.091  17.249 -0.7227  1.2023 -0.7473
18466TIP3   OH276812   3.641   6.722   3.769 -0.0981  0.0324  0.0117
18466TIP3    H176813   3.725   6.715   3.814 -0.6414 -2.3216  0.7418
18466TIP3    H276814   3.602   6.803   3.803  1.7145  1.0075 -0.1444
18467TIP3   OH276815   0.211   5.171   5.039  0.4039 -0.1724  0.3381
18467TIP3    H176816   0.162   5.251   5.060  0.9893  0.3370 -0.2383
18467TIP3    H276817   0.288   5.175   5.095 -0.1368 -0.9211  1.1601
18468TIP3   OH276818   1.990   6.305  12.776  0.5675 -0.6963 -0.0286
18468TIP3    H176819   1.961   6.276  12.690  0.1056 -0.2444 -0.0270
18468TIP3    H276820   1.910   6.336  12.819  1.1506  1.3091 -0.3233
18469TIP3   OH276821   4.783   2.337   1.899  0.0553 -0.3222  0.2573
18469TIP3    H176822   4.717   2.303   1.959 -0.4398 -0.0186 -0.1137
18469TIP3    H276823   4.799   2.265   1.838  0.4897 -0.5974  0.6966
18470TIP3   OH276824   2.292   0.519   2.932 -0.9290 -0.1948 -0.6868
18470TIP3    H176825   2.290   0.424   2.920 -1.8354 -0.0895 -1.4153
18470TIP3    H276826   2.285   0.554   2.843 -2.3170  0.5671 -0.2755
18471TIP3   OH276827   2.459   3.291  16.218 -0.4045  0.1987 -0.2610
18471TIP3    H176828   2.417   3.308  16.302  0.2640  2.9528 -0.4471
18471TIP3    H276829   2.538   3.242  16.241 -0.0254  1.2672  0.7786
18472TIP3   OH276830   0.037   6.423  11.236 -0.1310 -0.2275 -0.3575
18472TIP3    H176831   0.086   6.341  11.226 -0.2529 -0.5969  1.8231
18472TIP3    H276832  -0.054   6.395  11.244 -0.1086  0.0906  0.9635
18473TIP3   OH276833   2.587   2.491   3.169 -0.6010  0.3425 -0.4347
18473TIP3    H176834   2.585   2.398   3.189  0.7886  0.4427  0.2539
18473TIP3    H276835   2.504   2.525   3.202 -0.3718 -0.3458  0.8668
18474TIP3   OH276836   3.299   3.216   1.036 -0.4086 -0.8373 -0.4124
18474TIP3    H176837   3.302   3.290   0.974 -0.5026 -0.9532 -0.5565
18474TIP3    H276838   3.375   3.163   1.014 -0.5202 -0.9536 -0.5259
18475TIP3   OH276839   3.363   3.820  12.527  0.4135  0.4653  0.0385
18475TIP3    H176840   3.376   3.915  12.530  0.5330  0.4748 -0.7084
18475TIP3    H276841   3.373   3.798  12.434  0.2584 -0.2579  0.1962
18476TIP3   OH276842   0.516   3.205  17.197  0.1588 -0.8620 -0.2535
18476TIP3    H176843   0.603   3.171  17.220 -0.3110 -0.9392  1.4464
18476TIP3    H276844   0.479   3.236  17.279 -1.1941 -0.2653 -1.0629
18477TIP3   OH276845   4.923   1.360   0.154 -0.0240 -0.3004  0.1129
18477TIP3    H176846   4.884   1.448   0.147 -0.7708 -0.6038  0.4235
18477TIP3    H276847   5.017   1.377   0.164 -0.1306  0.4576 -0.0823
18478TIP3   OH276848   4.632   3.933  14.955 -0.4516 -0.3428 -0.0897
18478TIP3    H176849   4.722   3.915  14.983 -0.4624 -0.8053 -0.3446
18478TIP3    H276850   4.641   3.977  14.871 -0.4758 -0.8920 -0.3828
18479TIP3   OH276851   2.475   5.976  10.669 -1.2089 -0.2440 -0.1333
18479TIP3    H176852   2.530   6.053  10.663 -0.9231 -0.4046  0.3969
18479TIP3    H276853   2.517   5.912  10.611 -0.5988 -0.5082  0.5966
18480TIP3   OH276854   5.475   1.586  14.080  0.0164 -0.1394  0.2448
18480TIP3    H176855   5.399   1.642  14.065  0.0482 -0.2550 -0.3486
18480TIP3    H276856   5.481   1.580  14.175  0.0642  0.9371  0.3144
18481TIP3   OH276857   5.768   0.372  16.461 -0.0277  0.0560 -0.0738
18481TIP3    H176858   5.676   0.380  16.485 -0.6208 -1.0386 -1.8775
18481TIP3    H276859   5.792   0.283  16.486  0.4130  0.1930 -0.0076
18482TIP3   OH276860   4.317   5.035  15.145 -0.3064 -0.3408 -0.1157
18482TIP3    H176861   4.275   4.971  15.088 -0.7370  0.1945 -0.3997
18482TIP3    H276862   4.277   5.022  15.231  0.8948 -1.6750  0.2593
18483TIP3   OH276863   2.762   2.397   6.219 -0.5541 -0.4342 -0.2738
18483TIP3    H176864   2.669   2.385   6.199 -0.8826 -0.7347  1.3405
18483TIP3    H276865   2.763   2.463   6.288  0.2106 -2.5509  1.8193
18484TIP3   OH276866   5.228   6.744  13.228  0.4425  0.4069 -0.1658
18484TIP3    H176867   5.176   6.765  13.306  1.1563  1.4764  0.0366
18484TIP3    H276868   5.300   6.690  13.260  1.5599  2.0569  0.1750
18485TIP3   OH276869   1.950   5.383  16.036  0.1563  0.8048 -0.1118
18485TIP3    H176870   1.995   5.455  15.991  0.0486  2.2913  2.0935
18485TIP3    H276871   1.863   5.381  15.996  0.3134  1.6053 -0.5044
18486TIP3   OH276872   0.862   1.351   0.059  0.0927 -0.4255  0.0240
18486TIP3    H176873   0.827   1.360  -0.029 -0.4979 -2.5298  0.0081
18486TIP3    H276874   0.787   1.359   0.117  0.2507 -0.5119  0.2453
18487TIP3   OH276875   4.081   1.492  13.973  0.2480 -0.0905 -0.3301
18487TIP3    H176876   4.134   1.418  14.004 -0.3143  0.1054  1.1244
18487TIP3    H276877   3.996   1.453  13.951  0.2321 -0.0155 -0.3999
18488TIP3   OH276878   0.767   3.576   5.491 -0.2620 -0.5435  0.0151
18488TIP3    H176879   0.741   3.660   5.453  0.0394  0.2328  1.4764
18488TIP3    H276880   0.689   3.548   5.540  0.0539 -0.4966  0.5499
18489TIP3   OH276881   6.349   5.893  11.024 -0.1016 -0.0282  0.2372
18489TIP3    H176882   6.346   5.919  11.116 -1.0562 -0.3430  0.2976
18489TIP3    H276883   6.345   5.975  10.975 -0.4396  0.0943  0.4672
18490TIP3   OH276884   5.550   1.073   1.700 -0.6253  0.3324  0.0403
18490TIP3    H176885   5.470   1.125   1.689 -0.2053  1.0457  0.3635
18490TIP3    H276886   5.518   0.984   1.718 -1.3428  0.2085 -1.7199
18491TIP3   OH276887   4.243   5.742  13.401  0.2749 -0.0579  0.2414
18491TIP3    H176888   4.242   5.832  13.434 -1.7542  0.2007 -0.4762
18491TIP3    H276889   4.270   5.690  13.477  1.3819  1.1397  0.6909
18492TIP3   OH276890   6.351   3.290   1.525  0.2897  0.0530  0.2643
18492TIP3    H176891   6.378   3.256   1.610 -0.8116  2.2118  1.5265
18492TIP3    H276892   6.417   3.357   1.504 -0.8864  1.3684  0.6865
18493TIP3   OH276893   6.064   3.914  13.504 -0.4119  0.0384 -0.1969
18493TIP3    H176894   6.157   3.917  13.528 -0.5518  2.4629  0.1349
18493TIP3    H276895   6.064   3.914  13.408 -0.0777  1.5076 -0.2126
18494TIP3   OH276896   1.721   4.638   5.539  0.3957 -0.2634 -0.1891
18494TIP3    H176897   1.763   4.559   5.505  0.3575  0.4703 -1.9457
18494TIP3    H276898   1.788   4.705   5.535 -0.1463  0.2668 -0.5059
18495TIP3   OH276899   2.058   1.417  10.768 -0.3687  0.0936 -0.5141
18495TIP3    H176900   2.053   1.411  10.864  0.1573  2.0013 -0.3473
18495TIP3    H276901   2.007   1.342  10.737  0.0015 -0.9318  1.2573
18496TIP3   OH276902   0.841   3.865  16.219 -0.0850 -0.1831  0.0068
18496TIP3    H176903   0.763   3.920  16.222 -0.5662 -0.7364 -1.8130
18496TIP3    H276904   0.808   3.776  16.227  0.4395 -0.3805  0.0044
18497TIP3   OH276905   1.788   5.575   1.914  0.2265 -0.1584  0.4224
18497TIP3    H176906   1.822   5.539   1.832 -0.4574 -1.3876  0.6716
18497TIP3    H276907   1.859   5.632   1.946  1.7523 -2.0798  0.5428
18498TIP3   OH276908   3.449   3.481   3.645  0.0771  0.1233  0.0239
18498TIP3    H176909   3.421   3.412   3.584 -2.5927  0.0751  1.2327
18498TIP3    H276910   3.425   3.563   3.601  0.3822  0.1826 -0.0352
18499TIP3   OH276911   1.311   3.636   4.732 -0.4920  0.1587 -0.3342
18499TIP3    H176912   1.322   3.645   4.827  0.8566  1.9731 -0.6345
18499TIP3    H276913   1.362   3.558   4.710  0.0961  0.3512  0.3088
18500TIP3   OH276914   4.619   5.194   4.010 -0.2661  0.0495  0.1659
18500TIP3    H176915   4.526   5.172   4.011 -0.1177 -0.7345 -1.4906
18500TIP3    H276916   4.659   5.130   4.068 -0.6414 -0.2220  0.1315
18501TIP3   OH276917   4.622   5.045   1.740 -0.2378 -0.2543  0.4502
18501TIP3    H176918   4.539   5.081   1.772 -1.0820  0.5076 -2.4504
18501TIP3    H276919   4.687   5.077   1.802 -1.9708  0.0280  2.1629
18502TIP3   OH276920   4.146   0.845   1.268  0.1668 -0.5372  0.5492
18502TIP3    H176921   4.226   0.828   1.219  1.0454 -1.3981  2.2182
18502TIP3    H276922   4.081   0.867   1.202  1.0446 -2.6621 -1.0840
18503TIP3   OH276923   2.112   3.966   5.042  0.3482  0.2566  0.0450
18503TIP3    H176924   2.107   3.933   5.132  0.2831  0.8174  0.2533
18503TIP3    H276925   2.165   4.046   5.049  2.1636 -0.8497 -0.7567
18504TIP3   OH276926   3.849   1.411   0.937 -0.7454 -0.3522  0.2789
18504TIP3    H176927   3.852   1.438   1.029 -2.3865  1.8266 -0.2655
18504TIP3    H276928   3.761   1.376   0.926 -0.2252 -1.5176 -0.2384
18505TIP3   OH276929   3.354   0.223  12.073 -0.0051 -0.1643 -0.3455
18505TIP3    H176930   3.293   0.157  12.040  0.4828 -1.2773  0.9526
18505TIP3    H276931   3.440   0.182  12.066  0.2950  0.3017  0.5515
18506TIP3   OH276932   5.707   3.533  10.996  0.0721  0.1014  0.8537
18506TIP3    H176933   5.740   3.467  10.936  0.6921  0.8022  0.4157
18506TIP3    H276934   5.684   3.607  10.940 -0.7639  0.2049  1.3224
18507TIP3   OH276935   1.072   3.221   5.163 -0.0071 -0.6510  0.2957
18507TIP3    H176936   1.046   3.164   5.091 -2.1650  0.8877 -0.1862
18507TIP3    H276937   1.111   3.297   5.121  1.6315 -1.1415  0.8931
18508TIP3   OH276938   1.093   3.435  14.682 -0.4186  0.3388  0.7334
18508TIP3    H176939   1.105   3.359  14.739  0.5311 -0.4509 -0.4917
18508TIP3    H276940   1.008   3.421  14.641  0.1737 -0.5733 -0.2162
18509TIP3   OH276941   3.898   0.581   5.476 -0.1899 -0.0998  0.3202
18509TIP3    H176942   3.812   0.569   5.514 -0.2439  2.4936  1.0736
18509TIP3    H276943   3.884   0.640   5.402  0.6993 -1.0418 -0.6290
18510TIP3   OH276944   3.156   0.629  12.485  0.0618 -0.0976  0.0273
18510TIP3    H176945   3.227   0.613  12.548  0.0983  2.5353  0.7435
18510TIP3    H276946   3.077   0.631  12.538 -0.4026 -1.7221 -0.5878
18511TIP3   OH276947   6.070   2.513  11.122  0.0442  0.3455  0.3791
18511TIP3    H176948   6.042   2.496  11.032  2.7170 -0.8721 -0.2703
18511TIP3    H276949   6.037   2.438  11.172  1.8995 -1.0156 -0.3598
18512TIP3   OH276950   6.230   4.600  12.927  0.2746 -0.4914  0.0574
18512TIP3    H176951   6.213   4.604  13.021  1.7538 -0.8545  0.3583
18512TIP3    H276952   6.171   4.666  12.889  0.0326  0.0179  1.2942
18513TIP3   OH276953   3.046   5.888  14.174  0.5854  0.1304  0.4179
18513TIP3    H176954   2.951   5.903  14.168  0.4341 -0.4041  1.3328
18513TIP3    H276955   3.080   5.965  14.218  0.8521  1.2107 -1.6242
18514TIP3   OH276956   3.069   4.544  16.382 -0.0414 -0.0247 -0.3358
18514TIP3    H176957   3.106   4.457  16.374 -2.0956 -0.8567 -1.2944
18514TIP3    H276958   3.051   4.570  16.291 -1.9216  0.2684  0.1083
18515TIP3   OH276959   0.759   6.701  13.918 -0.4960  0.3020 -0.0500
18515TIP3    H176960   0.687   6.652  13.878 -3.4355  1.8875  3.0532
18515TIP3    H276961   0.805   6.637  13.971 -0.6691 -0.3761 -0.7084
18516TIP3   OH276962   4.785   1.006  16.832  0.1435 -0.6415  0.1540
18516TIP3    H176963   4.775   0.966  16.745  0.8666 -0.2940 -0.0919
18516TIP3    H276964   4.826   1.090  16.815 -1.8964  0.4749  0.6277
18517TIP3   OH276965   0.860   3.257  11.710  0.3059  0.0434 -0.3464
18517TIP3    H176966   0.908   3.233  11.631  0.9933 -0.8291  0.3331
18517TIP3    H276967   0.925   3.297  11.767 -0.3365  1.3472 -0.5077
18518TIP3   OH276968   3.822   1.384  14.015 -0.1367  0.0300  0.0850
18518TIP3    H176969   3.839   1.461  14.070  2.6514 -1.0437  0.8023
18518TIP3    H276970   3.791   1.317  14.075 -3.1267  0.6871 -0.6261
18519TIP3   OH276971   0.982   6.312   3.944  0.3765  0.0659 -0.2836
18519TIP3    H176972   0.933   6.231   3.930  0.0522 -0.4430  3.2462
18519TIP3    H276973   1.066   6.284   3.981  0.3040  1.3070  0.8751
18520TIP3   OH276974   4.319   5.004   3.852  0.9546  0.0283  0.2754
18520TIP3    H176975   4.328   5.046   3.938 -0.8769 -0.8860  0.9425
18520TIP3    H276976   4.321   5.077   3.790  1.5288  0.7683  1.1414
18521TIP3   OH276977   5.046   2.043  12.973  0.4563  0.3222 -0.2079
18521TIP3    H176978   4.985   2.032  12.900  0.4351  0.4994 -0.2163
18521TIP3    H276979   4.993   2.027  13.052  0.1729  1.4563 -0.1674
18522TIP3   OH276980   5.411   1.813   1.449 -0.5189 -0.5123  0.1116
18522TIP3    H176981   5.374   1.901   1.460  0.8925 -0.0142  0.9570
18522TIP3    H276982   5.451   1.814   1.363  0.1086 -0.0947  0.4054
18523TIP3   OH276983   4.355   3.243   4.401  1.5579 -0.5000  0.1271
18523TIP3    H176984   4.351   3.205   4.488  1.2358  0.5679  0.5909
18523TIP3    H276985   4.436   3.210   4.363  2.7060  0.5819  1.5842
18524TIP3   OH276986   4.863   6.772  15.884 -0.2754 -0.5577  0.3875
18524TIP3    H176987   4.863   6.857  15.841 -0.5756  0.0717  1.6147
18524TIP3    H276988   4.943   6.772  15.936 -0.6866 -0.6983  1.0232
18525TIP3   OH276989   3.765   1.093  14.244  0.0754  0.2030 -0.0992
18525TIP3    H176990   3.746   1.179  14.283  2.1500 -0.3205  2.2658
18525TIP3    H276991   3.792   1.039  14.319 -0.1728 -2.2183 -1.6996
18526TIP3   OH276992   5.374   3.804   2.626  0.4245  0.0458  0.1715
18526TIP3    H176993   5.397   3.868   2.693 -0.9069  1.4686 -0.6929
18526TIP3    H276994   5.360   3.856   2.547 -3.5077 -0.9199  0.1147
18527TIP3   OH276995   0.793   2.114  12.132 -0.0680 -0.1058 -0.4245
18527TIP3    H176996   0.783   2.105  12.227  0.9995  1.6925 -0.1078
18527TIP3    H276997   0.725   2.176  12.106  0.1093 -0.0255 -0.7041
18528TIP3   OH276998   0.433   0.833   0.898  0.2419 -0.4318 -0.1505
18528TIP3    H176999   0.453   0.740   0.903 -0.6043 -0.6389 -0.5012
18528TIP3    H277000   0.460   0.868   0.983 -1.1999 -1.3565  0.7034
18529TIP3   OH277001   0.867   0.779  13.341 -0.2336 -0.4383  0.0017
18529TIP3    H177002   0.813   0.857  13.327 -1.1274 -0.8897  0.9286
18529TIP3    H277003   0.949   0.813  13.377 -0.2315  0.1639 -0.5588
18530TIP3   OH277004   3.177   4.707  17.044 -0.1167  0.9939  0.7061
18530TIP3    H177005   3.122   4.769  17.092  0.6675  2.1182  0.1674
18530TIP3    H277006   3.226   4.761  16.983  1.0690 -0.0887  0.6868
18531TIP3   OH277007   2.821   4.545   2.919 -0.2411 -0.4215 -0.2517
18531TIP3    H177008   2.883   4.532   2.848  0.3692 -3.4762  0.7619
18531TIP3    H277009   2.736   4.521   2.881 -0.2251 -0.0396 -0.5316
18532TIP3   OH277010   1.296   3.695   4.245 -0.6883 -0.7613 -0.7374
18532TIP3    H177011   1.336   3.769   4.200  2.4129 -1.3817  0.9020
18532TIP3    H277012   1.239   3.735   4.311 -0.4767  0.1330 -1.0860
18533TIP3   OH277013   3.069   0.112   3.602 -0.2658 -0.8892  0.4380
18533TIP3    H177014   3.143   0.064   3.638 -1.5967 -2.2288  1.4542
18533TIP3    H277015   3.002   0.045   3.587 -1.2798  0.2963 -0.4313
18534TIP3   OH277016   5.630   2.396   3.444  0.5891 -0.4280 -0.5840
18534TIP3    H177017   5.702   2.354   3.490  1.0943 -0.1176 -1.0885
18534TIP3    H277018   5.650   2.489   3.448 -0.3713 -0.2556  0.2613
18535TIP3   OH277019   2.949   3.363  14.728  0.2892  0.4708 -0.2191
18535TIP3    H177020   2.962   3.366  14.633 -0.4503 -0.0240 -0.3359
18535TIP3    H277021   3.026   3.407  14.764  0.7566  0.3278 -1.0364
18536TIP3   OH277022   3.244   1.020  12.700 -0.1974 -0.3554  0.3294
18536TIP3    H177023   3.163   0.971  12.715 -1.4989  1.6145 -0.1973
18536TIP3    H277024   3.216   1.105  12.668  2.0854  0.4429  0.3432
18537TIP3   OH277025   5.751   0.023   2.470 -0.3923  0.8749  0.3825
18537TIP3    H177026   5.778  -0.059   2.430 -0.9465 -0.3356  2.4168
18537TIP3    H277027   5.832   0.071   2.486 -0.1532  1.2957 -1.9451
18538TIP3   OH277028   1.026   2.740  13.873  0.3397  0.5797 -0.4725
18538TIP3    H177029   0.992   2.653  13.849 -1.4057  1.2285 -0.4414
18538TIP3    H277030   0.966   2.801  13.830  0.2966  1.7703  1.2513
18539TIP3   OH277031   5.218   3.437  14.127  0.3178 -0.0366  0.1837
18539TIP3    H177032   5.254   3.457  14.041  1.1311  0.5892  0.6589
18539TIP3    H277033   5.124   3.443  14.116  0.3680 -1.0804 -0.9334
18540TIP3   OH277034   3.200   0.413  16.814  0.3267  0.2128  0.2479
18540TIP3    H177035   3.276   0.462  16.782  0.4227  0.0445  0.2180
18540TIP3    H277036   3.133   0.480  16.828 -0.3980  0.0704 -2.2581
18541TIP3   OH277037   2.940   2.183   4.461  0.0779  0.3428 -0.2527
18541TIP3    H177038   3.002   2.256   4.456  0.3831  0.1518  0.5966
18541TIP3    H277039   2.861   2.216   4.418 -0.4513  1.8854  1.8007
18542TIP3   OH277040   5.973   6.451   5.760 -0.7797 -0.2022 -0.0833
18542TIP3    H177041   5.973   6.356   5.752 -0.7122 -0.1402 -0.8422
18542TIP3    H277042   5.942   6.482   5.675 -1.2767  0.4399  0.3318
18543TIP3   OH277043   5.777   0.431  12.463  0.6535 -0.1711  0.2495
18543TIP3    H177044   5.820   0.392  12.387  0.7822 -2.3553  1.3911
18543TIP3    H277045   5.759   0.357  12.521 -1.2563  1.1898  1.4657
18544TIP3   OH277046   1.630   2.751  13.467  0.2266  0.2857  0.1627
18544TIP3    H177047   1.626   2.656  13.470  3.1302  0.1479  1.1078
18544TIP3    H277048   1.550   2.780  13.510 -0.7289 -1.7196 -0.2209
18545TIP3   OH277049   1.711   0.307   3.396  0.2304 -0.3216  0.0326
18545TIP3    H177050   1.658   0.376   3.356  1.3641  0.3970 -0.2508
18545TIP3    H277051   1.650   0.261   3.454 -0.6064  0.7581  0.0359
18546TIP3   OH277052   4.924   4.938  11.630  0.1386 -0.2814 -0.1828
18546TIP3    H177053   4.909   4.914  11.538  1.5451  0.6514 -0.6572
18546TIP3    H277054   4.918   4.854  11.677 -2.1161 -0.5602 -0.8982
18547TIP3   OH277055   3.715   6.561   0.895  0.3689  0.2519  0.8534
18547TIP3    H177056   3.730   6.515   0.812 -1.1864  1.5759 -0.1837
18547TIP3    H277057   3.757   6.505   0.960  0.6026 -1.4202 -0.6718
18548TIP3   OH277058   5.697   6.107   4.745  0.1454 -0.6906  0.8509
18548TIP3    H177059   5.759   6.177   4.769  1.4195 -1.0775 -1.1784
18548TIP3    H277060   5.611   6.145   4.764  0.9163  0.3494  2.4818
18549TIP3   OH277061   0.313   6.766   0.254 -0.4364  0.2124  0.2739
18549TIP3    H177062   0.273   6.716   0.325  0.4274 -0.1489  0.5057
18549TIP3    H277063   0.340   6.700   0.190 -1.8270  0.5803 -0.7228
18550TIP3   OH277064   1.519   3.925   0.357 -0.3197  0.4341  0.1653
18550TIP3    H177065   1.560   4.011   0.365 -0.0135  0.2293  0.7839
18550TIP3    H277066   1.429   3.939   0.387 -0.3599  0.6061 -0.0328
18551TIP3   OH277067   4.600   4.294  11.724  0.4790 -0.3125 -0.5281
18551TIP3    H177068   4.665   4.364  11.728  0.8551 -0.7225  0.5882
18551TIP3    H277069   4.648   4.218  11.690  0.6026 -0.6186  0.3060
18552TIP3   OH277070   0.699   6.183   1.218  0.2045 -0.4212 -0.3647
18552TIP3    H177071   0.777   6.132   1.199  1.0780  0.8869 -0.3332
18552TIP3    H277072   0.644   6.124   1.270  1.1279 -1.3667 -0.4460
18553TIP3   OH277073   6.326   2.886   3.607 -0.4849  0.1773 -0.3313
18553TIP3    H177074   6.309   2.978   3.628 -0.6921  0.1960 -0.5911
18553TIP3    H277075   6.287   2.873   3.521 -1.4191 -0.4510  0.1853
18554TIP3   OH277076   2.501   4.288  15.948  0.0044  0.3738  0.3663
18554TIP3    H177077   2.459   4.359  15.996  0.2459  0.5590  0.3015
18554TIP3    H277078   2.431   4.252  15.893 -0.2758  0.1414  0.8768
18555TIP3   OH277079   3.402   0.331   1.960  0.0046  1.0609  0.1208
18555TIP3    H177080   3.459   0.278   2.015 -1.7542  0.9187  1.8661
18555TIP3    H277081   3.351   0.266   1.911 -0.1529  1.1676  0.1456
18556TIP3   OH277082   1.344   2.408  12.071  0.3020 -0.1329 -0.2408
18556TIP3    H177083   1.400   2.417  12.148  1.4042 -1.3162 -0.8849
18556TIP3    H277084   1.323   2.314  12.068 -1.8394  0.3141  0.0644
18557TIP3   OH277085   6.246   1.186   3.223  0.3423 -0.3195  0.7597
18557TIP3    H177086   6.215   1.136   3.299  0.5156 -0.7159  0.5681
18557TIP3    H277087   6.331   1.147   3.201  0.3043 -0.1897  0.3785
18558TIP3   OH277088   5.300   5.940   1.021 -0.1076 -0.0091 -0.2248
18558TIP3    H177089   5.306   5.857   1.068 -2.1392 -0.3044 -0.4450
18558TIP3    H277090   5.374   5.991   1.053  1.3162 -1.9850 -0.2553
18559TIP3   OH277091   2.234   6.659  11.047  0.1773  0.3503 -0.1558
18559TIP3    H177092   2.160   6.652  10.987  0.9334  1.7601 -1.2790
18559TIP3    H277093   2.306   6.616  11.001  0.2377 -0.4154  0.6433
18560TIP3   OH277094   0.807   0.995   2.545  0.5612  0.1755  0.2236
18560TIP3    H177095   0.783   0.922   2.602 -1.7065  2.4886  2.3235
18560TIP3    H277096   0.841   1.062   2.603  3.1512  0.6689 -1.7498
18561TIP3   OH277097   1.900   5.088   0.647 -0.1245  0.0517  0.6506
18561TIP3    H177098   1.948   5.005   0.646 -0.4288 -0.1143 -0.8353
18561TIP3    H277099   1.938   5.136   0.720  2.7144  0.1535 -0.8127
18562TIP3   OH277100   3.975   0.585  16.447  0.0617  0.8062 -0.0099
18562TIP3    H177101   4.020   0.658  16.490 -0.3655  1.0904 -0.0342
18562TIP3    H277102   3.958   0.523  16.517  2.4645 -0.3290 -0.3817
18563TIP3   OH277103   3.993   5.542  11.796  0.1886 -0.2718 -0.0947
18563TIP3    H177104   3.935   5.610  11.762 -1.1734 -0.7430  1.2421
18563TIP3    H277105   4.014   5.570  11.885 -2.0887 -2.6082  1.2408
18564TIP3   OH277106   3.456   6.619  14.885  0.0502 -0.3649  0.5734
18564TIP3    H177107   3.463   6.539  14.937  0.2335 -0.3145  0.6244
18564TIP3    H277108   3.538   6.665  14.901  0.5843 -0.8680 -0.6366
18565TIP3   OH277109   4.893   1.084  11.474 -0.0185  0.0073  0.1343
18565TIP3    H177110   4.959   1.020  11.446  0.5601 -0.0851  1.6707
18565TIP3    H277111   4.931   1.169  11.452 -0.0017 -0.1115 -0.2865
18566TIP3   OH277112   5.362   0.728  14.376  0.1226  1.0258 -0.0645
18566TIP3    H177113   5.334   0.796  14.314 -1.7262  1.2995  1.0492
18566TIP3    H277114   5.297   0.659  14.366  0.3293  0.6840  0.9181
18567TIP3   OH277115   2.857   1.021   3.747 -1.0138 -0.5387  0.1667
18567TIP3    H177116   2.839   1.034   3.841 -3.8988 -0.0163 -0.4157
18567TIP3    H277117   2.871   1.110   3.713  1.1978 -0.8120  0.2797
18568TIP3   OH277118   3.916   3.558   2.475 -0.2702  0.1883  0.2661
18568TIP3    H177119   4.010   3.557   2.457 -0.0920 -1.2367  1.2355
18568TIP3    H277120   3.877   3.592   2.394  1.0970  1.1667 -0.0016
18569TIP3   OH277121   1.673   4.207  13.953 -0.2929 -0.1275  0.3418
18569TIP3    H177122   1.632   4.256  13.881 -2.3323 -0.5303  1.1861
18569TIP3    H277123   1.638   4.248  14.032 -0.4693 -1.6714  1.0671
18570TIP3   OH277124   5.238   2.185  11.859  0.1834  0.5274  0.2938
18570TIP3    H177125   5.264   2.120  11.794  3.5031  0.4304  1.6237
18570TIP3    H277126   5.244   2.140  11.943  0.7225  1.9869  1.0644
18571TIP3   OH277127   3.455   0.113   4.379  0.1053  0.0753  0.2536
18571TIP3    H177128   3.441   0.021   4.357  3.5916 -0.4837  0.1343
18571TIP3    H277129   3.474   0.112   4.473  1.4704  0.4747 -0.0060
18572TIP3   OH277130   4.797   3.785  11.777 -0.0537 -0.5621  0.1225
18572TIP3    H177131   4.826   3.821  11.693  0.0519 -1.4302 -0.2213
18572TIP3    H277132   4.701   3.779  11.768  0.0027 -1.1361 -0.1400
18573TIP3   OH277133   1.310   1.565   2.255  0.1012 -0.2042  0.1398
18573TIP3    H177134   1.359   1.620   2.316  2.2629 -0.6538 -1.1367
18573TIP3    H277135   1.347   1.586   2.169 -0.7621 -1.8400 -0.6555
18574TIP3   OH277136   1.073   2.307  15.413  0.2105 -0.3083  0.6651
18574TIP3    H177137   1.149   2.257  15.384 -0.7353 -1.0746 -0.5302
18574TIP3    H277138   1.018   2.243  15.459 -0.3950 -0.0854  0.2537
18575TIP3   OH277139   5.512   1.082   2.466 -0.6786  0.5134  0.2910
18575TIP3    H177140   5.556   1.165   2.448  0.1258  0.0774  0.2553
18575TIP3    H277141   5.549   1.053   2.550 -0.5568 -0.0890  0.0282
18576TIP3   OH277142   1.167   3.910  14.979  0.2488  0.1745  0.2857
18576TIP3    H177143   1.073   3.899  14.995  0.0144 -0.5669 -1.4972
18576TIP3    H277144   1.210   3.863  15.050 -0.7508 -1.9296 -0.4608
18577TIP3   OH277145   2.026   5.597  15.858 -0.2184 -0.5869  0.1526
18577TIP3    H177146   2.100   5.606  15.798  1.7996 -1.4311  2.4151
18577TIP3    H277147   1.954   5.568  15.803  1.7484 -2.0348 -1.7528
18578TIP3   OH277148   6.451   6.578  13.264 -0.1972 -0.5185 -0.0067
18578TIP3    H177149   6.361   6.570  13.294  0.0061 -2.2484  0.1957
18578TIP3    H277150   6.453   6.531  13.180 -0.5723  3.5640 -2.4404
18579TIP3   OH277151   5.160   5.199   3.566  0.4439 -0.5368  0.1193
18579TIP3    H177152   5.078   5.216   3.521  0.5010 -2.8350 -0.9649
18579TIP3    H277153   5.211   5.279   3.555 -1.0394  0.3282 -0.5676
18580TIP3   OH277154   5.142   4.312  16.366  0.3387  0.3961 -0.1046
18580TIP3    H177155   5.094   4.243  16.320 -1.0290  0.8052  0.6886
18580TIP3    H277156   5.159   4.378  16.299 -1.3563  0.8388 -0.1114
18581TIP3   OH277157   4.121   2.072   2.727  0.0030  0.2929  0.1462
18581TIP3    H177158   4.116   2.160   2.765  3.6114  0.1403  1.1675
18581TIP3    H277159   4.161   2.086   2.641 -0.4754 -0.2343 -0.1615
18582TIP3   OH277160   1.987   6.729  16.883 -0.4191 -0.0501  0.2312
18582TIP3    H177161   2.082   6.735  16.895 -0.4005  0.2197 -0.0369
18582TIP3    H277162   1.977   6.706  16.790 -0.6258  0.2719  0.1729
18583TIP3   OH277163   0.311   4.844  11.515  0.2441 -0.7177 -0.7285
18583TIP3    H177164   0.278   4.932  11.530  2.1376 -0.2759  1.1460
18583TIP3    H277165   0.278   4.820  11.429  0.3846  2.1457 -1.6274
18584TIP3   OH277166   1.144   1.650  15.420  0.0646  0.5708 -0.2048
18584TIP3    H177167   1.184   1.580  15.471 -1.4058  1.2480  1.9334
18584TIP3    H277168   1.214   1.715  15.410  1.1519 -0.7516 -1.4006
18585TIP3   OH277169   1.228   0.418  13.900 -0.0132 -0.1111  0.0521
18585TIP3    H177170   1.204   0.339  13.852 -0.2922 -0.1623  0.2778
18585TIP3    H277171   1.268   0.387  13.981  2.1295 -0.0378 -0.9508
18586TIP3   OH277172   4.009   3.189   1.588 -0.1795 -0.3891  0.0023
18586TIP3    H177173   3.923   3.177   1.548  0.6597 -2.8488 -1.1301
18586TIP3    H277174   4.017   3.116   1.649  1.1987 -0.3059 -0.0698
18587TIP3   OH277175   4.087   0.184  15.772 -0.2905 -0.9006 -0.5053
18587TIP3    H177176   4.155   0.160  15.835  0.4224  0.7004 -0.6416
18587TIP3    H277177   4.077   0.106  15.717  0.0265 -1.8449  0.7326
18588TIP3   OH277178   2.633   1.596   0.460 -0.1431 -0.5281  0.1881
18588TIP3    H177179   2.615   1.676   0.411 -0.7407 -0.0414  1.1961
18588TIP3    H277180   2.640   1.625   0.551 -2.8983 -1.9807  0.9022
18589TIP3   OH277181   2.217   5.986  15.668  0.2910  0.3597 -0.1521
18589TIP3    H177182   2.155   6.033  15.724 -0.9917 -1.0501 -0.3303
18589TIP3    H277183   2.303   6.009  15.702 -0.4219  0.5111  1.6135
18590TIP3   OH277184   1.293   1.394   5.501 -0.3252 -0.4879  0.2141
18590TIP3    H177185   1.381   1.359   5.490  0.0998  0.3168  1.0360
18590TIP3    H277186   1.268   1.369   5.590 -0.9089 -0.6765 -0.0033
18591TIP3   OH277187   3.565   3.472  15.097  0.1660  0.3057 -0.1533
18591TIP3    H177188   3.654   3.494  15.071  0.3471  0.3937  0.5356
18591TIP3    H277189   3.569   3.380  15.123 -0.2546 -0.0971 -1.5155
18592TIP3   OH277190   3.914   2.659  16.209 -0.1819 -0.4545  0.3815
18592TIP3    H177191   3.962   2.686  16.287  0.5381  0.1588 -0.2721
18592TIP3    H277192   3.912   2.738  16.154  0.3536 -1.2136 -0.7361
18593TIP3   OH277193   4.579   0.064  11.894  0.1642  0.1386 -0.5707
18593TIP3    H177194   4.540   0.149  11.912  0.8596  0.0116  1.7285
18593TIP3    H277195   4.674   0.080  11.898  0.3000 -0.6240 -0.6982
18594TIP3   OH277196   1.135   6.124  12.727  0.1624  0.2467 -0.1082
18594TIP3    H177197   1.214   6.176  12.735  1.0618 -1.0808 -0.1743
18594TIP3    H277198   1.074   6.162  12.791  0.2511  2.3157 -1.2343
18595TIP3   OH277199   2.410   4.714   2.644 -0.1897 -0.1243 -0.5216
18595TIP3    H177200   2.321   4.714   2.608 -0.7160 -0.2796  0.7613
18595TIP3    H277201   2.425   4.805   2.669 -0.6012 -0.3979  0.7422
18596TIP3   OH277202   0.907   2.303  14.052  0.8614 -0.0373 -0.4853
18596TIP3    H177203   0.852   2.224  14.046  1.1470 -0.3458  0.9320
18596TIP3    H277204   0.904   2.327  14.144  1.6382  1.0111 -0.7337
18597TIP3   OH277205   2.332   1.223  14.687  0.3404 -0.4438 -0.3210
18597TIP3    H177206   2.354   1.198  14.597 -0.2281  0.9243 -0.8519
18597TIP3    H277207   2.236   1.221  14.689  0.3420 -0.1043  0.1416
18598TIP3   OH277208   3.211   0.329   0.106  0.1926  0.3517  0.0573
18598TIP3    H177209   3.264   0.273   0.049 -0.4634 -1.0057  0.7473
18598TIP3    H277210   3.123   0.322   0.070 -0.0409  0.2815  0.6417
18599TIP3   OH277211   1.207   5.216   2.722  0.0170 -0.2350  0.5652
18599TIP3    H177212   1.112   5.214   2.727  0.0207 -2.1688 -0.1526
18599TIP3    H277213   1.227   5.292   2.667 -1.0954 -0.0331  0.4414
18600TIP3   OH277214   1.598   1.178  16.080 -0.8191 -0.0574 -0.3804
18600TIP3    H177215   1.574   1.131  16.001  0.2213  0.2533 -0.8903
18600TIP3    H277216   1.612   1.269  16.051  1.8474 -0.3934 -0.3041
18601TIP3   OH277217   4.385   5.547   4.082  0.3163  0.2927 -0.3100
18601TIP3    H177218   4.295   5.527   4.056  0.4410 -0.9589  0.1511
18601TIP3    H277219   4.427   5.578   4.002 -0.7148  1.5717 -0.3663
18602TIP3   OH277220   6.327   4.655   3.439  0.0584 -0.4118  0.0351
18602TIP3    H177221   6.328   4.734   3.493  0.7724  0.4947 -1.3049
18602TIP3    H277222   6.258   4.601   3.478 -1.8078  1.7070 -0.2646
18603TIP3   OH277223   0.058   5.394   4.145  0.3622 -0.5105 -0.1053
18603TIP3    H177224   0.005   5.360   4.217 -1.3213  1.4938 -0.3678
18603TIP3    H277225   0.014   5.363   4.066 -0.1447  0.7318 -0.3199
18604TIP3   OH277226   2.862   5.069   4.614 -0.3908 -0.0649 -0.4736
18604TIP3    H177227   2.915   5.131   4.564  0.7845 -0.2941  0.4742
18604TIP3    H277228   2.801   5.033   4.549 -0.4532  1.3489 -1.2449
18605TIP3   OH277229   5.488   0.868  15.862 -0.1161 -0.2147 -0.0248
18605TIP3    H177230   5.449   0.924  15.929  1.0310  0.8668 -0.2303
18605TIP3    H277231   5.413   0.833  15.813 -0.9184 -0.2618  1.2080
18606TIP3   OH277232   4.907   1.614  12.131  0.3138  0.1290  0.1029
18606TIP3    H177233   4.883   1.665  12.208 -0.4812  1.1020 -0.7805
18606TIP3    H277234   4.955   1.539  12.167  2.2536  1.9128  1.3484
18607TIP3   OH277235   4.454   5.977  10.836 -0.7887  0.2609 -0.3787
18607TIP3    H177236   4.439   5.937  10.751  0.2727  1.5159 -1.1656
18607TIP3    H277237   4.443   6.071  10.822  1.2258  0.6497  0.4434
18608TIP3   OH277238   0.567   6.693   3.969  0.2207 -0.2359 -0.3213
18608TIP3    H177239   0.586   6.775   3.922  1.5102 -0.3569 -0.0347
18608TIP3    H277240   0.644   6.639   3.953  0.7559 -0.2271  2.0515
18609TIP3   OH277241   4.834   4.748  16.239  0.5028 -0.4377  0.6249
18609TIP3    H177242   4.865   4.819  16.295  0.7059 -1.7561  2.2364
18609TIP3    H277243   4.820   4.675  16.300 -2.1820 -0.9955 -0.6294
18610TIP3   OH277244   4.592   5.645  15.789 -0.3242 -0.0049  0.2312
18610TIP3    H177245   4.674   5.596  15.774 -0.3769 -0.1459  0.4078
18610TIP3    H277246   4.541   5.589  15.848 -1.0880 -0.5108 -0.8895
18611TIP3   OH277247   3.940   3.127   1.108  0.3758 -0.3348  0.5785
18611TIP3    H177248   3.878   3.199   1.109  0.5665 -0.1177 -1.6091
18611TIP3    H277249   3.972   3.121   1.198 -0.5737  1.4834  1.0419
18612TIP3   OH277250   1.023   5.930  11.559  0.3721 -0.5172 -0.0812
18612TIP3    H177251   1.006   5.916  11.466 -1.1429  2.1403 -0.2696
18612TIP3    H277252   0.938   5.919  11.602  0.4524  1.0943  0.5648
18613TIP3   OH277253   0.231   4.824   4.128 -0.8728  0.9804  0.2298
18613TIP3    H177254   0.267   4.790   4.210  1.2252  0.0165 -1.0502
18613TIP3    H277255   0.179   4.752   4.092  0.6659  0.3194 -0.7319
18614TIP3   OH277256   3.265   3.494   2.354 -0.4390  0.0491  0.2939
18614TIP3    H177257   3.301   3.419   2.403  1.4747  0.1497 -0.8869
18614TIP3    H277258   3.179   3.464   2.325  0.3989 -1.8014 -0.3647
18615TIP3   OH277259   2.566   0.774  16.819  0.2436 -0.5995  0.0334
18615TIP3    H177260   2.610   0.844  16.868 -3.2514  2.6074 -1.1204
18615TIP3    H277261   2.611   0.773  16.734  1.6436 -1.1995  0.7691
18616TIP3   OH277262   5.709   4.146   0.798 -0.0723  0.0987  0.2114
18616TIP3    H177263   5.705   4.128   0.704  0.7659  1.1157 -0.0286
18616TIP3    H277264   5.779   4.090   0.830  0.4572  0.6315  0.0059
18617TIP3   OH277265   1.928   0.087  11.189 -0.1748 -0.2344 -0.4247
18617TIP3    H177266   1.849   0.128  11.223  0.1088 -1.7110  2.1707
18617TIP3    H277267   1.930   0.001  11.231  1.3842 -1.2883 -2.5624
18618TIP3   OH277268   0.941   5.173   2.387 -0.3428 -0.8509 -0.5917
18618TIP3    H177269   1.000   5.174   2.312 -1.1990 -0.7931 -1.2790
18618TIP3    H277270   0.867   5.228   2.360 -0.1315  0.0978  0.7298
18619TIP3   OH277271   0.795   3.979   6.092  0.5039 -0.1327  0.2127
18619TIP3    H177272   0.710   3.967   6.136  0.0223 -0.2800 -0.7445
18619TIP3    H277273   0.835   4.053   6.137  0.2286 -0.5853  1.2220
18620TIP3   OH277274   2.379   1.219   1.467 -0.0539 -0.0277  0.3370
18620TIP3    H177275   2.290   1.255   1.466  0.6262  1.6844  0.7635
18620TIP3    H277276   2.409   1.227   1.377  0.6718  1.9866  0.7270
18621TIP3   OH277277   1.206   1.728   3.402 -0.0055 -0.3777 -0.1840
18621TIP3    H177278   1.152   1.777   3.341 -0.6282  1.0945  1.4909
18621TIP3    H277279   1.157   1.648   3.419 -2.0301  1.2098  1.7815
18622TIP3   OH277280   5.587   4.153  15.140 -0.5830 -0.0089  0.1400
18622TIP3    H177281   5.648   4.177  15.210  1.5908 -1.3196 -1.2706
18622TIP3    H277282   5.595   4.224  15.076  0.8479 -1.0661 -0.8858
18623TIP3   OH277283   3.096   3.334  14.108  0.0851  0.2085 -0.3388
18623TIP3    H177284   3.144   3.404  14.152 -1.1172  1.1378 -0.4493
18623TIP3    H277285   3.149   3.312  14.032  0.5719  0.8740 -0.1945
18624TIP3   OH277286   1.782   3.830  11.673 -0.0885 -0.1608  0.6814
18624TIP3    H177287   1.863   3.807  11.718  0.1751 -1.6970 -0.5387
18624TIP3    H277288   1.724   3.862  11.743  1.7348  1.4635  1.4773
18625TIP3   OH277289   2.830   2.328   3.396 -0.2784  0.5581  0.2873
18625TIP3    H177290   2.795   2.417   3.393 -1.7594  0.0129  1.2107
18625TIP3    H277291   2.919   2.338   3.431 -0.7421  1.5749  1.1874
18626TIP3   OH277292   3.375   2.518   5.090  0.1231 -0.5565 -0.0245
18626TIP3    H177293   3.400   2.491   5.178  0.4574 -1.8510 -0.5117
18626TIP3    H277294   3.325   2.599   5.103  1.0526 -0.1824  1.2674
18627TIP3   OH277295   0.892   5.850   4.511 -0.2996  0.6397  0.1860
18627TIP3    H177296   0.949   5.925   4.526  2.4587 -1.5958  1.1922
18627TIP3    H277297   0.886   5.808   4.597 -1.5864 -0.4720 -0.4421
18628TIP3   OH277298   2.587   2.761   2.906  0.1845 -0.4757 -0.0565
18628TIP3    H177299   2.500   2.721   2.904 -0.4056  0.7848 -0.1210
18628TIP3    H277300   2.634   2.720   2.834 -0.5773 -0.6993 -0.4320
18629TIP3   OH277301   5.495   5.926   1.371  0.6473  0.3801 -0.2801
18629TIP3    H177302   5.537   5.868   1.308  1.1828 -1.3456  1.5964
18629TIP3    H277303   5.556   5.930   1.445 -1.5120 -0.5268  1.6240
18630TIP3   OH277304   0.905   4.503   1.844  0.0378  0.6246  0.1111
18630TIP3    H177305   0.825   4.449   1.849 -0.0287  0.5606 -1.4313
18630TIP3    H277306   0.922   4.527   1.935 -0.7269 -0.8449  0.6805
18631TIP3   OH277307   1.752   5.776   5.570  0.0614  0.0054 -0.6728
18631TIP3    H177308   1.735   5.734   5.486  0.8416  0.2412 -0.9561
18631TIP3    H277309   1.666   5.799   5.604 -0.3583 -1.5982 -0.6222
18632TIP3   OH277310   4.132   4.016   5.576  0.2015  0.5742 -0.1364
18632TIP3    H177311   4.042   4.032   5.606  0.7037  1.9610  0.6452
18632TIP3    H277312   4.130   3.926   5.545 -1.3716  0.4545  0.2351
18633TIP3   OH277313   6.085   5.233  13.915  0.2779  0.3764 -0.3951
18633TIP3    H177314   6.156   5.186  13.870 -0.3628 -1.6750  0.6529
18633TIP3    H277315   6.073   5.184  13.996 -2.5923  0.4781 -0.7317
18634TIP3   OH277316   2.319   2.035   4.287 -0.4062  0.1005 -0.0203
18634TIP3    H177317   2.410   2.007   4.300  0.0212  1.3061 -0.3979
18634TIP3    H277318   2.271   1.989   4.355  0.5539 -0.1818  0.4849
18635TIP3   OH277319   4.732   2.310   5.046 -0.0039  0.1984 -1.0262
18635TIP3    H177320   4.809   2.353   5.082 -0.2122 -0.4017  0.1826
18635TIP3    H277321   4.665   2.378   5.043  0.5129  0.6738 -1.9091
18636TIP3   OH277322   1.113   2.305   3.424  0.2760 -0.7111  0.2035
18636TIP3    H177323   1.125   2.288   3.330  0.9754 -0.8779  0.3240
18636TIP3    H277324   1.113   2.401   3.431  1.5720 -0.7056  0.2055
18637TIP3   OH277325   6.498   2.723  14.488 -0.2775 -0.0847  0.0697
18637TIP3    H177326   6.592   2.732  14.469 -0.3421 -0.2691 -0.3412
18637TIP3    H277327   6.473   2.807  14.526  0.3608 -0.5154  1.4785
18638TIP3   OH277328   1.440   1.435   3.754 -0.5525 -0.2569  0.0261
18638TIP3    H177329   1.426   1.525   3.783 -1.0643 -0.4530  0.3838
18638TIP3    H277330   1.480   1.391   3.829  0.1871 -0.1997 -0.3272
18639TIP3   OH277331   2.090   3.747   0.870  0.1601  0.2710 -0.0618
18639TIP3    H177332   2.037   3.805   0.815  0.7628  0.5125 -0.3917
18639TIP3    H277333   2.030   3.717   0.938 -0.5649  0.0684 -0.7795
18640TIP3   OH277334   5.072   1.210   1.074 -0.2143  0.1717 -0.2468
18640TIP3    H177335   5.114   1.253   1.000  1.8246 -0.9765  0.2088
18640TIP3    H277336   5.084   1.270   1.147 -1.5923  0.9751 -0.6599
18641TIP3   OH277337   3.921   0.609   2.698  0.0510  0.0800 -0.7074
18641TIP3    H177338   3.929   0.661   2.778  0.1759 -1.7206  0.4754
18641TIP3    H277339   3.836   0.633   2.663  0.2643  1.3656 -0.3999
18642TIP3   OH277340   5.464   6.244  10.401 -0.1783  0.3111 -0.3789
18642TIP3    H177341   5.543   6.195  10.380 -0.9359 -0.2658 -2.0093
18642TIP3    H277342   5.496   6.327  10.437  1.2116  0.4725 -1.9072
18643TIP3   OH277343   3.154   2.641  13.523  0.4374  0.3764 -0.2207
18643TIP3    H177344   3.061   2.652  13.542  0.1246 -1.9993 -0.2290
18643TIP3    H277345   3.197   2.647  13.608  0.1189  0.1100 -0.0385
18644TIP3   OH277346   2.640   6.616  12.957 -0.1326  0.6135 -0.0759
18644TIP3    H177347   2.579   6.688  12.939 -0.0541  0.6059 -0.3807
18644TIP3    H277348   2.686   6.643  13.036  1.1822  1.7512 -1.1930
18645TIP3   OH277349   1.917   3.405  11.768  0.4606 -0.0937 -0.3230
18645TIP3    H177350   1.852   3.376  11.831  0.7308 -1.1438 -0.5139
18645TIP3    H277351   1.868   3.457  11.704  0.1430  0.7459  0.5815
18646TIP3   OH277352   2.365   1.758   2.452 -0.3994 -0.1604  0.2980
18646TIP3    H177353   2.378   1.705   2.531 -1.0737 -0.5491  0.1414
18646TIP3    H277354   2.297   1.713   2.403  1.2607 -0.9036 -1.3831
18647TIP3   OH277355   2.484   5.024  14.717 -0.1514  0.0337  0.2166
18647TIP3    H177356   2.447   4.999  14.632  1.3590 -0.5233 -0.3017
18647TIP3    H277357   2.416   5.001  14.781 -2.5131  3.1155 -1.0456
18648TIP3   OH277358   1.330   4.478   2.640 -0.5634 -0.1093 -0.1393
18648TIP3    H177359   1.284   4.562   2.647  1.5830  1.2381 -1.6397
18648TIP3    H277360   1.318   4.451   2.549  0.7452 -0.2205 -0.2955
18649TIP3   OH277361   4.335   6.349   0.419  0.4630  0.2290  0.2607
18649TIP3    H177362   4.333   6.259   0.388  0.6434  0.7025 -1.1407
18649TIP3    H277363   4.243   6.371   0.436  0.1331  0.6622 -1.9912
18650TIP3   OH277364   4.399   4.014  13.376 -0.3231 -0.3987 -0.2834
18650TIP3    H177365   4.457   4.077  13.419  1.4298 -1.5169 -0.9624
18650TIP3    H277366   4.341   3.983  13.446  2.0926 -1.7470  1.2100
18651TIP3   OH277367   4.101   6.274   3.942 -0.1807  0.4279 -0.1294
18651TIP3    H177368   4.137   6.265   3.854 -1.7591  1.6326 -0.9226
18651TIP3    H277369   4.163   6.226   3.998  0.5607 -0.7991 -1.9386
18652TIP3   OH277370   2.035   2.736   0.942  0.1365  0.3736 -0.3890
18652TIP3    H177371   1.990   2.727   0.858  0.5701 -0.6129 -0.5299
18652TIP3    H277372   1.993   2.810   0.984 -0.3210  0.6645 -1.3357
18653TIP3   OH277373   6.161   1.483  14.620  0.2990 -0.3170 -0.0715
18653TIP3    H177374   6.114   1.543  14.677  0.1101 -0.0486 -0.5025
18653TIP3    H277375   6.133   1.396  14.649 -0.4448 -0.1635 -0.2994
18654TIP3   OH277376   0.598   6.263  11.968  0.0968 -0.3730 -0.0807
18654TIP3    H177377   0.600   6.169  11.951 -0.5064 -0.5233  0.6457
18654TIP3    H277378   0.510   6.291  11.942  1.0386  0.4596 -2.6019
18655TIP3   OH277379   4.072   1.310  14.268  0.0567 -0.1000  0.2508
18655TIP3    H177380   4.127   1.300  14.190  0.5093  0.0203  0.5555
18655TIP3    H277381   4.085   1.230  14.318 -0.6803 -0.4273 -0.0771
18656TIP3   OH277382   5.518   4.362   4.809  0.3794  0.1057  0.1431
18656TIP3    H177383   5.610   4.337   4.807  1.2571  3.2384 -0.5048
18656TIP3    H277384   5.518   4.453   4.838 -2.6189 -0.2047  1.3143
18657TIP3   OH277385   0.405   4.153  15.989 -0.0746  0.8959 -0.1719
18657TIP3    H177386   0.312   4.132  15.978  0.0841 -3.0542  4.5260
18657TIP3    H277387   0.451   4.079  15.949  1.0668  2.0892 -1.1068
18658TIP3   OH277388   6.647   3.349   0.263  0.0093 -0.2958 -0.1434
18658TIP3    H177389   6.685   3.388   0.185 -0.8769  0.8736 -0.0007
18658TIP3    H277390   6.612   3.265   0.232  0.4578 -0.2414 -0.8136
18659TIP3   OH277391   6.645   3.779  13.553  0.0634  0.1371 -0.4715
18659TIP3    H177392   6.621   3.687  13.540  0.2863  0.2075 -1.4238
18659TIP3    H277393   6.561   3.824  13.566 -0.1630  0.0361 -1.5562
18660TIP3   OH277394   3.770   6.638  15.343  0.4510  0.0681 -0.1325
18660TIP3    H177395   3.721   6.601  15.416 -1.2867 -0.2098 -1.3965
18660TIP3    H277396   3.851   6.586  15.339  0.5767  0.1230  1.5928
18661TIP3   OH277397   0.354   5.935   1.441  0.1385 -0.3442 -0.0554
18661TIP3    H177398   0.285   5.970   1.386  0.0030  0.3913  0.5764
18661TIP3    H277399   0.400   6.012   1.474  0.6869 -0.8000  0.2585
18662TIP3   OH277400   2.368   1.918  15.829 -0.5585  0.8170 -0.0416
18662TIP3    H177401   2.404   1.829  15.824 -0.8517  0.6631  0.4395
18662TIP3    H277402   2.279   1.905  15.862  0.6174  1.5427  3.6759
18663TIP3   OH277403   6.131   1.858  15.305 -0.7068 -0.0232  0.1955
18663TIP3    H177404   6.148   1.904  15.387  1.3994 -0.5397  0.0852
18663TIP3    H277405   6.169   1.913  15.238 -0.5893 -0.5981 -0.2148
18664TIP3   OH277406   1.136   4.509  15.311  0.1482 -0.4856  0.1364
18664TIP3    H177407   1.186   4.427  15.305 -3.1364 -2.5875  0.4401
18664TIP3    H277408   1.158   4.544  15.397  0.8594 -1.5418  0.3977
18665TIP3   OH277409   3.989   2.999  15.193 -0.1152 -0.3725 -0.4094
18665TIP3    H177410   4.006   2.934  15.261 -2.8729  0.2206  0.9149
18665TIP3    H277411   3.955   3.075  15.240 -0.7879  0.5567 -2.3254
18666TIP3   OH277412   0.804   1.569  16.448  0.1858 -0.0266  0.6589
18666TIP3    H177413   0.820   1.516  16.370  3.1064 -0.8096  1.7194
18666TIP3    H277414   0.890   1.607  16.468 -0.9485  1.6890  2.3937
18667TIP3   OH277415   2.167   0.896  15.106 -0.0790 -0.0427 -0.7025
18667TIP3    H177416   2.169   0.814  15.056 -2.0620 -1.4679  1.4601
18667TIP3    H277417   2.084   0.937  15.082 -0.4453 -0.1148  0.3829
18668TIP3   OH277418   4.107   1.333  13.503  0.0990 -0.1022 -0.0418
18668TIP3    H177419   4.138   1.266  13.564  2.1318 -1.0123 -1.9967
18668TIP3    H277420   4.128   1.416  13.547  1.1094 -0.7417  0.7112
18669TIP3   OH277421   3.308   3.410  15.044  0.2151  0.2532  0.2521
18669TIP3    H177422   3.395   3.446  15.058 -0.5887  1.0376  3.6185
18669TIP3    H277423   3.250   3.465  15.097 -2.0272 -1.6110 -0.1712
18670TIP3   OH277424   6.715   1.155   2.561 -0.0743 -0.2981 -0.3151
18670TIP3    H177425   6.741   1.063   2.572  1.1410 -0.0756 -1.2958
18670TIP3    H277426   6.766   1.203   2.627  2.1035  0.1447 -2.2776
18671TIP3   OH277427   2.565   0.673   5.288 -0.2267  0.7303 -0.0838
18671TIP3    H177428   2.649   0.632   5.266 -0.5710 -0.2481  0.3802
18671TIP3    H277429   2.500   0.612   5.253 -0.7478  0.9893  0.4369
18672TIP3   OH277430   3.502   1.960  14.153  0.2322 -0.3758 -0.0821
18672TIP3    H177431   3.412   1.980  14.127  0.0799 -0.5508  0.3192
18672TIP3    H277432   3.533   2.041  14.193  0.4189 -0.1534 -0.6691
18673TIP3   OH277433   6.365   0.165   2.093 -0.8466 -0.2637 -0.1485
18673TIP3    H177434   6.288   0.144   2.146 -0.2943 -2.1867 -0.0764
18673TIP3    H277435   6.335   0.158   2.003 -1.0669  0.2554 -0.1200
18674TIP3   OH277436   3.912   5.176   5.847 -0.0809 -0.1457  0.0163
18674TIP3    H177437   3.908   5.225   5.930  0.2694  0.1898 -0.1625
18674TIP3    H277438   3.853   5.102   5.860 -0.3861  0.1602  0.4037
18675TIP3   OH277439   4.345   0.629  16.665 -0.0236  0.2355 -0.0322
18675TIP3    H177440   4.304   0.649  16.581  1.8651  1.5265 -0.6787
18675TIP3    H277441   4.376   0.713  16.697 -0.5936 -0.2720  1.9052
18676TIP3   OH277442   1.810   2.652   3.017  0.4590 -0.9959 -0.3373
18676TIP3    H177443   1.762   2.673   3.097  1.6381 -0.7490  0.3030
18676TIP3    H277444   1.758   2.692   2.947 -1.4831 -2.6201  0.1167
18677TIP3   OH277445   5.887   3.269   0.389  0.5565 -0.0357  1.0271
18677TIP3    H177446   5.925   3.356   0.374  1.4303 -0.1926  2.3181
18677TIP3    H277447   5.956   3.219   0.431  1.1421 -2.3567 -2.5415
18678TIP3   OH277448   4.324   5.564  11.865 -0.3462  0.5243  0.0831
18678TIP3    H177449   4.369   5.624  11.925  1.3269  0.3147 -0.9428
18678TIP3    H277450   4.237   5.602  11.854  0.1910  1.9381  0.6477
18679TIP3   OH277451   6.561   3.849   1.920 -0.1208 -0.1748 -0.0154
18679TIP3    H177452   6.647   3.817   1.945  0.8789 -0.2953 -3.3609
18679TIP3    H277453   6.573   3.943   1.909 -0.0038 -0.4121 -2.0158
18680TIP3   OH277454   4.753   2.255  13.870  0.0304  0.1207 -0.0877
18680TIP3    H177455   4.772   2.189  13.937  0.7500 -0.4579 -0.8649
18680TIP3    H277456   4.791   2.336  13.905 -0.3230 -0.0010  0.5830
18681TIP3   OH277457   2.442   3.022  12.530  0.5207  0.1815 -0.2213
18681TIP3    H177458   2.377   2.961  12.563 -0.1339  0.0191 -1.7401
18681TIP3    H277459   2.394   3.077  12.468  1.7748  0.2083 -1.1928
18682TIP3   OH277460   5.850   5.262  10.878 -0.2705 -0.4466  0.5854
18682TIP3    H177461   5.937   5.224  10.866  0.1097  0.3003  0.9625
18682TIP3    H277462   5.845   5.331  10.812  0.8744  2.0257  3.0384
18683TIP3   OH277463   0.669   4.025  16.725  0.4637  0.1683  0.4035
18683TIP3    H177464   0.593   3.994  16.775 -0.1330 -2.0652 -1.7233
18683TIP3    H277465   0.743   3.975  16.760  0.5074  0.5337  0.8277
18684TIP3   OH277466   3.109   1.554  11.651  0.6819  0.3985 -0.6744
18684TIP3    H177467   3.121   1.636  11.698  2.8870  0.6442 -1.6037
18684TIP3    H277468   3.033   1.569  11.594  0.9110  1.6806 -0.6424
18685TIP3   OH277469   2.106   0.338  13.850 -0.3862 -0.2884 -0.3906
18685TIP3    H177470   2.181   0.397  13.859 -0.7614  0.1074  0.1405
18685TIP3    H277471   2.125   0.287  13.771  0.9902 -0.9706  0.3667
18686TIP3   OH277472   3.065   0.762   0.486  0.2938 -0.5426 -0.6687
18686TIP3    H177473   3.156   0.785   0.505  0.5166 -0.5421 -1.6835
18686TIP3    H277474   3.071   0.676   0.444 -0.1761 -0.5597 -0.7038
18687TIP3   OH277475   6.096   4.085   1.653  0.1789 -0.6355  0.1350
18687TIP3    H177476   6.056   4.059   1.736 -1.4861  1.0205 -0.1141
18687TIP3    H277477   6.069   4.176   1.641  1.6104 -0.3987 -1.5181
18688TIP3   OH277478   3.635   5.935   3.920 -0.0726 -0.6135 -0.1875
18688TIP3    H177479   3.629   5.956   4.013 -2.1827  0.5401 -0.5395
18688TIP3    H277480   3.727   5.949   3.898  0.2767 -0.0515  1.5243
18689TIP3   OH277481   6.191   3.246  16.326  0.1944  0.2256 -0.0354
18689TIP3    H177482   6.230   3.315  16.271 -0.4645 -0.3685 -1.2749
18689TIP3    H277483   6.254   3.174  16.322  0.1495  0.1853 -0.0175
18690TIP3   OH277484   5.864   1.563   6.760  0.1727 -0.4450 -0.7419
18690TIP3    H177485   5.934   1.509   6.724 -0.7090 -1.5714 -0.8079
18690TIP3    H277486   5.806   1.580   6.686  0.4524  0.6085 -0.7196
18691TIP3   OH277487   0.374   4.404   3.908 -0.0752 -0.1160  0.0494
18691TIP3    H177488   0.421   4.380   3.987 -0.9709  0.8389  0.8900
18691TIP3    H277489   0.400   4.495   3.891 -0.6944  0.0277 -0.1534
18692TIP3   OH277490   4.193   2.561  13.684  0.4388  0.0490  0.1776
18692TIP3    H177491   4.145   2.497  13.632 -0.7925  0.3503  0.9213
18692TIP3    H277492   4.179   2.533  13.775  0.5916  0.8936  0.4658
18693TIP3   OH277493   3.898   2.629  15.278  0.0679  0.0390 -0.3970
18693TIP3    H177494   3.971   2.608  15.336 -0.2941 -1.3571 -0.4226
18693TIP3    H277495   3.857   2.706  15.317  0.6152 -0.1099  0.4732
18694TIP3   OH277496   1.442   1.857  10.536  0.1809 -0.3031 -0.3133
18694TIP3    H177497   1.473   1.786  10.593  1.0546  0.4658  0.1737
18694TIP3    H277498   1.511   1.866  10.470  0.9150  1.2806  0.6592
18695TIP3   OH277499   3.396   1.312   5.921 -0.6371  0.0783  0.0458
18695TIP3    H177500   3.350   1.346   5.998 -1.2670 -1.1997  0.2320
18695TIP3    H277501   3.396   1.386   5.860 -1.3683  0.6565  0.7240
18696TIP3   OH277502   4.915   5.562  12.768 -0.0850  0.1244  0.1890
18696TIP3    H177503   4.934   5.650  12.802  2.7291 -0.5959  0.6146
18696TIP3    H277504   4.981   5.548  12.700 -0.7439 -1.5311 -0.1288
18697TIP3   OH277505   5.020   6.379   2.383 -0.5415 -0.5226  0.7761
18697TIP3    H177506   4.973   6.302   2.350 -1.7603 -0.3477  2.0474
18697TIP3    H277507   5.047   6.354   2.472 -1.8305  0.8445  1.5827
18698TIP3   OH277508   5.919   6.229  16.557 -0.0712  0.5012  0.5480
18698TIP3    H177509   5.906   6.320  16.529 -0.6793 -0.6354 -3.1646
18698TIP3    H277510   5.831   6.190  16.552  0.1899 -0.3271  2.1129
18699TIP3   OH277511   5.879   0.913   5.174  0.3328 -0.3767 -0.4948
18699TIP3    H177512   5.790   0.934   5.144  0.9241  0.2742 -1.8149
18699TIP3    H277513   5.911   0.851   5.109  0.7511 -0.8136  0.1318
18700TIP3   OH277514   0.650   3.872  13.701  0.3551  0.4998 -0.0138
18700TIP3    H177515   0.660   3.961  13.735  3.1263  0.1282  0.2755
18700TIP3    H277516   0.740   3.844  13.680 -0.7848 -0.9817 -3.2891
18701TIP3   OH277517   2.042   0.124   4.574 -0.2965 -0.6185  0.3101
18701TIP3    H177518   2.006   0.195   4.627 -1.7815 -0.8038 -0.4233
18701TIP3    H277519   2.042   0.159   4.485 -0.2064 -1.2177  0.0713
18702TIP3   OH277520   3.512   2.818  12.550  0.1452 -0.5520 -0.0303
18702TIP3    H177521   3.424   2.837  12.582 -0.3813 -2.9808  0.0641
18702TIP3    H277522   3.499   2.779  12.464  1.2095  0.0357 -0.4759
18703TIP3   OH277523   4.835   2.477  14.006 -0.6609  0.0353  0.7772
18703TIP3    H177524   4.753   2.474  14.055 -0.1291 -2.5457  1.5491
18703TIP3    H277525   4.902   2.492  14.073 -0.4723  2.3688  0.1263
18704TIP3   OH277526   2.584   1.057   0.765  0.1546 -0.6554  0.0885
18704TIP3    H177527   2.566   1.148   0.789  0.0372  0.1926 -3.0043
18704TIP3    H277528   2.678   1.054   0.750  0.5747 -1.7102  2.6100
18705TIP3   OH277529   3.635   6.257   3.424  0.6794 -1.2206  0.4844
18705TIP3    H177530   3.722   6.230   3.455  1.2357 -0.6327 -0.5419
18705TIP3    H277531   3.587   6.175   3.414  1.7036 -1.6938 -0.6937
18706TIP3   OH277532   3.913   5.148   1.067  0.0098  0.0058 -0.0134
18706TIP3    H177533   3.893   5.237   1.038 -0.8503  0.5558  2.1405
18706TIP3    H277534   3.927   5.156   1.161  0.0404 -2.1295  0.1988
18707TIP3   OH277535   2.102   2.285   3.082 -0.0781  0.0117  0.0053
18707TIP3    H177536   2.107   2.322   2.994  1.1394 -0.4366 -0.1259
18707TIP3    H277537   2.030   2.332   3.124  0.1561  1.1296 -0.8103
18708TIP3   OH277538   0.293   4.932  14.072  0.2354 -0.9348 -0.7721
18708TIP3    H177539   0.247   5.015  14.061 -0.0791 -1.0715 -0.5038
18708TIP3    H277540   0.225   4.865  14.061  0.0681 -1.1092  1.0481
18709TIP3   OH277541   6.283   4.463   5.283  0.2204  0.1138  0.1591
18709TIP3    H177542   6.213   4.517   5.319 -0.9570  0.2150 -2.1687
18709TIP3    H277543   6.362   4.516   5.293 -0.1418  0.3188  2.1000
18710TIP3   OH277544   5.472   2.985   0.581 -0.4098  1.2263  0.3375
18710TIP3    H177545   5.450   2.975   0.673 -0.3207  1.1834  0.3548
18710TIP3    H277546   5.533   3.058   0.578 -1.1585  1.8557  0.1939
18711TIP3   OH277547   3.257   4.148  16.726 -0.3908 -0.3363 -0.5707
18711TIP3    H177548   3.240   4.140  16.820 -0.2005  0.0857 -0.4968
18711TIP3    H277549   3.174   4.125  16.685 -0.8492  0.6943 -0.2509
18712TIP3   OH277550   5.721   5.648   1.587 -0.4877  0.9136  1.0222
18712TIP3    H177551   5.656   5.636   1.518 -0.1061  1.1327  0.6233
18712TIP3    H277552   5.795   5.691   1.543  0.7489 -1.1388  1.0017
18713TIP3   OH277553   1.308   1.864  15.419  0.4042  0.2701 -0.0243
18713TIP3    H177554   1.339   1.952  15.399  0.8030 -0.2842 -1.9517
18713TIP3    H277555   1.387   1.813  15.435  0.2479 -0.0521 -0.2619
18714TIP3   OH277556   6.640   2.130   0.662  0.4912  0.1535 -0.1988
18714TIP3    H177557   6.596   2.182   0.730 -0.2081 -0.2093 -0.3663
18714TIP3    H277558   6.623   2.040   0.687  0.3810  0.0174 -0.7572
18715TIP3   OH277559   1.696   6.542   3.086  0.0519  0.2162  0.1621
18715TIP3    H177560   1.687   6.494   3.168  1.3811  1.3339  0.9900
18715TIP3    H277561   1.788   6.531   3.062  0.2227  1.7869  0.0250
18716TIP3   OH277562   6.069   4.820  13.717  0.3067  0.0046  0.0471
18716TIP3    H177563   6.103   4.909  13.725 -0.9463  0.5350 -0.4069
18716TIP3    H277564   6.000   4.826  13.651 -0.5443 -1.0965  0.8170
18717TIP3   OH277565   0.726   0.613   5.820  0.5059 -0.2543  0.1495
18717TIP3    H177566   0.653   0.663   5.857 -0.0734 -0.6199 -0.4797
18717TIP3    H277567   0.782   0.678   5.779 -0.8755 -0.1827 -1.7474
18718TIP3   OH277568   6.392   3.182   4.884  0.3327  0.4336  0.3828
18718TIP3    H177569   6.336   3.176   4.807 -0.5779  0.3791  1.0338
18718TIP3    H277570   6.347   3.244   4.942 -0.7429 -1.9799  2.2529
18719TIP3   OH277571   2.040   6.515  14.611  0.3264 -0.4120 -0.0031
18719TIP3    H177572   2.008   6.429  14.582 -0.7524 -0.7687  2.1276
18719TIP3    H277573   1.960   6.565  14.627  0.9428  0.5946 -0.0837
18720TIP3   OH277574   0.503   1.121   3.104 -0.2159 -0.5474 -0.5204
18720TIP3    H177575   0.593   1.091   3.119  0.4230  0.9228 -1.3880
18720TIP3    H277576   0.510   1.189   3.038 -1.7484  0.9687  0.8174
18721TIP3   OH277577   0.214   3.774  13.767  0.4983 -0.3906  0.2170
18721TIP3    H177578   0.144   3.719  13.803  0.1718 -1.3838 -1.8300
18721TIP3    H277579   0.168   3.839  13.714  1.0013  0.5202  0.9049
18722TIP3   OH277580   0.543   3.544   3.336 -0.2748 -0.1934 -0.2782
18722TIP3    H177581   0.593   3.469   3.305 -2.1932 -2.0524  0.9652
18722TIP3    H277582   0.510   3.586   3.257  1.6563 -0.0452 -1.0183
18723TIP3   OH277583   5.199   4.587   2.788  0.0149 -0.0971 -0.4129
18723TIP3    H177584   5.290   4.561   2.797 -0.3352 -1.3466 -0.4053
18723TIP3    H277585   5.173   4.615   2.876 -0.1390 -1.4939 -0.0142
18724TIP3   OH277586   5.378   2.071   5.841  0.1332 -0.0050  0.4068
18724TIP3    H177587   5.397   1.981   5.866 -2.9612 -0.6078  0.7390
18724TIP3    H277588   5.420   2.081   5.755  0.9518 -1.5659  0.5944
18725TIP3   OH277589   2.758   5.968  13.874  0.0980 -0.3025  0.4003
18725TIP3    H177590   2.800   5.890  13.909  1.3723  0.3388  0.3356
18725TIP3    H277591   2.821   6.038  13.890  0.2660  0.2044 -2.2378
18726TIP3   OH277592   1.645   5.314   5.501 -0.4099  0.3381  0.8837
18726TIP3    H177593   1.603   5.229   5.492  0.9090 -0.3195  0.8443
18726TIP3    H277594   1.731   5.303   5.461  0.2481  1.3239  1.9987
18727TIP3   OH277595   2.916   5.647  14.713  0.3656  0.0634  0.0503
18727TIP3    H177596   2.861   5.596  14.654  2.2415 -0.3541 -1.3615
18727TIP3    H277597   3.001   5.603  14.712  0.6319  0.4586  2.5335
18728TIP3   OH277598   6.044   2.175  14.438  0.3237  0.0503 -0.5706
18728TIP3    H177599   6.038   2.233  14.514 -1.0822  1.3931 -1.6603
18728TIP3    H277600   6.124   2.125  14.452 -0.0407  0.1023  1.9086
18729TIP3   OH277601   1.435   2.212   5.105 -0.6925 -0.1858 -0.0939
18729TIP3    H177602   1.344   2.184   5.118 -0.7564  0.8694  2.1421
18729TIP3    H277603   1.448   2.279   5.172  1.7326 -0.2941 -0.4197
18730TIP3   OH277604   3.062   0.447   5.177  0.1243  0.0655 -0.6517
18730TIP3    H177605   3.021   0.411   5.098 -3.1464  2.1684 -0.0007
18730TIP3    H277606   3.046   0.381   5.244  1.6723 -1.0849 -1.3791
18731TIP3   OH277607   1.467   4.031   1.407 -0.2564 -0.4952  0.4107
18731TIP3    H177608   1.464   4.114   1.454 -1.8978 -0.5537  0.4191
18731TIP3    H277609   1.424   3.969   1.465 -2.1588 -0.6058 -1.0760
18732TIP3   OH277610   0.083   5.385   0.137  0.2781  0.2555  0.4417
18732TIP3    H177611  -0.004   5.368   0.102  0.6193 -3.8788  1.3006
18732TIP3    H277612   0.138   5.316   0.099  2.7420  1.5869  1.4536
18733TIP3   OH277613   3.792   5.813  13.472 -0.3059  0.2887 -0.4130
18733TIP3    H177614   3.800   5.732  13.422 -0.2514  0.2651 -0.3677
18733TIP3    H277615   3.707   5.849  13.447 -0.7967 -0.3163  0.3516
18734TIP3   OH277616   3.357   2.052   5.398  0.2289 -0.2175  0.1537
18734TIP3    H177617   3.337   2.013   5.483  3.2996 -1.6522  0.2964
18734TIP3    H277618   3.372   1.977   5.340  0.8612  0.7597 -0.9669
18735TIP3   OH277619   1.883   0.360  17.113  0.1509  0.0784 -0.0361
18735TIP3    H177620   1.835   0.422  17.059  0.3715  1.4921  1.3538
18735TIP3    H277621   1.970   0.397  17.121  0.5592 -0.8835  0.0395
18736TIP3   OH277622   6.211   6.356  10.785 -0.4947 -0.4018 -0.1077
18736TIP3    H177623   6.175   6.276  10.746  1.3990 -0.6880 -1.3301
18736TIP3    H277624   6.165   6.427  10.740 -0.1236 -0.7652 -1.0826
18737TIP3   OH277625   4.177   6.222  15.291  0.0839 -0.5203  0.0161
18737TIP3    H177626   4.217   6.177  15.217  2.5558  1.0717  0.3233
18737TIP3    H277627   4.173   6.314  15.264  0.1275 -0.0736  1.4737
18738TIP3   OH277628   0.049   2.890   4.385  0.2875 -0.4847 -0.0966
18738TIP3    H177629   0.085   2.810   4.348  0.5229 -0.7934  0.7803
18738TIP3    H277630  -0.005   2.927   4.315  0.5530 -1.1626 -0.6652
18739TIP3   OH277631   5.615   2.201  13.741 -0.2513 -0.1759 -0.1822
18739TIP3    H177632   5.702   2.193  13.702 -0.7371 -1.4306 -1.0394
18739TIP3    H277633   5.596   2.295  13.736  0.6203 -0.0268 -0.9274
18740TIP3   OH277634   0.534   5.291  14.547 -0.4202  0.7266  0.0739
18740TIP3    H177635   0.580   5.304  14.631  1.1155  2.0026 -0.9414
18740TIP3    H277636   0.512   5.379  14.518  1.6235  0.5029 -2.2559
18741TIP3   OH277637   2.467   1.676   1.539 -0.2674 -0.1984  0.6547
18741TIP3    H177638   2.414   1.611   1.493  0.3602 -0.9528  0.9720
18741TIP3    H277639   2.527   1.709   1.472 -1.0579  0.5675  0.3251
18742TIP3   OH277640   3.330   0.550   2.090  0.0491  0.0041 -0.3738
18742TIP3    H177641   3.356   0.465   2.053  0.4145  0.2378 -0.6563
18742TIP3    H277642   3.236   0.556   2.072  0.3202  0.3537 -1.7383
18743TIP3   OH277643   5.483   5.772  17.224  0.1231 -0.7479 -0.0659
18743TIP3    H177644   5.477   5.691  17.173 -2.0088  1.2413 -3.1687
18743TIP3    H277645   5.544   5.827  17.174 -0.6062  0.5752  0.4783
18744TIP3   OH277646   0.402   3.189   5.731 -0.5268 -0.6439  0.0311
18744TIP3    H177647   0.449   3.114   5.694 -0.3198 -0.8443  0.7097
18744TIP3    H277648   0.470   3.246   5.765 -0.7897 -1.2456  1.6136
18745TIP3   OH277649   1.727   4.340  13.097 -0.2360 -0.0238 -0.1095
18745TIP3    H177650   1.763   4.360  13.184  0.7854 -0.2614 -0.4752
18745TIP3    H277651   1.744   4.419  13.046  1.8606 -0.9660 -0.9371
18746TIP3   OH277652   3.088   5.060  15.840 -0.0786 -0.5044 -0.3672
18746TIP3    H177653   3.127   5.041  15.926  0.6374 -0.3918 -0.6705
18746TIP3    H277654   2.994   5.063  15.858 -0.0740 -2.2335  0.0902
18747TIP3   OH277655   4.529   3.534   2.815  0.3896  0.1298  0.4587
18747TIP3    H177656   4.613   3.577   2.832  1.2785 -0.8624 -1.4052
18747TIP3    H277657   4.467   3.583   2.870  1.8873  1.9066  0.6393
18748TIP3   OH277658   0.905   2.463   4.180 -0.3211 -0.3766  0.2013
18748TIP3    H177659   0.993   2.467   4.217  0.2298 -2.6944 -0.7978
18748TIP3    H277660   0.912   2.509   4.096  0.0312 -0.9217 -0.0667
18749TIP3   OH277661   2.198   4.940   2.910  0.4627  0.1221 -0.0147
18749TIP3    H177662   2.136   5.011   2.895 -0.5891 -0.7362  0.2580
18749TIP3    H277663   2.264   4.978   2.969 -1.3584  0.2005  2.0606
18750TIP3   OH277664   1.004   6.054   1.776  0.5389  0.0731 -0.4729
18750TIP3    H177665   0.946   6.011   1.838 -0.7445  0.1610 -1.5836
18750TIP3    H277666   1.027   5.985   1.713  0.7195  0.3205 -0.6815
18751TIP3   OH277667   6.263   0.113   0.906  0.4535 -0.2555  0.5164
18751TIP3    H177668   6.286   0.166   0.982  1.0204  0.9128 -0.4592
18751TIP3    H277669   6.338   0.055   0.894  0.5627 -0.1256  0.5748
18752TIP3   OH277670   6.620   2.425   3.335 -0.3179  0.2382 -0.4480
18752TIP3    H177671   6.577   2.500   3.294  0.1689  0.9067  0.2666
18752TIP3    H277672   6.712   2.450   3.338 -0.1087 -0.5281 -0.5029
18753TIP3   OH277673   4.760   3.392  10.769 -0.0706  0.3110  0.1473
18753TIP3    H177674   4.811   3.311  10.773  0.5464  0.6445 -0.8168
18753TIP3    H277675   4.672   3.367  10.797 -0.5241 -1.2263 -2.5390
18754TIP3   OH277676   2.995   1.070  17.177  0.4107  0.2166  0.3225
18754TIP3    H177677   2.942   1.004  17.222 -0.6472  0.1491 -0.9739
18754TIP3    H277678   3.085   1.041  17.188 -0.0380 -1.3656 -0.0637
18755TIP3   OH277679   1.238   1.688  10.826 -0.0204 -0.2621  0.3089
18755TIP3    H177680   1.306   1.681  10.759  0.3429 -1.4408  0.7969
18755TIP3    H277681   1.263   1.765  10.878  0.2745  0.0243 -0.2525
18756TIP3   OH277682   6.325   6.250  17.033 -0.0206 -0.6213 -0.6528
18756TIP3    H177683   6.305   6.218  16.946 -0.8849  1.0778 -1.1022
18756TIP3    H277684   6.248   6.229  17.085 -0.8952  1.3232 -1.1265
18757TIP3   OH277685   3.211   4.663   4.385  0.2569  0.2857  0.7271
18757TIP3    H177686   3.306   4.663   4.397  0.4397  0.6519 -0.5639
18757TIP3    H277687   3.190   4.753   4.361 -0.6075  0.5176  2.3079
18758TIP3   OH277688   0.851   1.948  14.462  0.1352 -0.5756 -0.3296
18758TIP3    H177689   0.790   1.915  14.396 -0.3725  0.9000 -0.6119
18758TIP3    H277690   0.901   1.871  14.489 -0.6107 -1.4535 -1.4148
18759TIP3   OH277691   2.462   0.810   0.520 -0.5024 -0.4282 -0.1228
18759TIP3    H177692   2.373   0.824   0.550 -0.8974 -2.2498 -0.4085
18759TIP3    H277693   2.454   0.787   0.427  0.4046  1.1073 -0.6034
18760TIP3   OH277694   5.254   4.242   4.682  0.9415  0.9324 -0.2221
18760TIP3    H177695   5.265   4.208   4.593 -1.0820 -1.1799  0.2929
18760TIP3    H277696   5.336   4.220   4.726  1.5023  0.9585 -1.2327
18761TIP3   OH277697   3.253   4.421  14.947 -1.1702  0.0588  0.2061
18761TIP3    H177698   3.189   4.378  15.005  0.9518 -0.1019  2.5356
18761TIP3    H277699   3.314   4.463  15.007 -0.6104  2.5345 -2.0053
18762TIP3   OH277700   2.313   3.296  11.985 -0.1347 -0.1182 -0.0417
18762TIP3    H177701   2.361   3.264  11.908 -0.2525 -0.6126  0.0950
18762TIP3    H277702   2.307   3.391  11.970 -1.2173 -0.3577 -1.2391
18763TIP3   OH277703   5.637   4.622  12.261 -0.3649 -0.4168  0.5103
18763TIP3    H177704   5.545   4.607  12.238 -0.2606 -1.9789  1.0663
18763TIP3    H277705   5.686   4.579  12.191 -0.0514 -0.1136  0.5428
18764TIP3   OH277706   6.648   5.891  16.358  0.0399 -0.4518  0.6382
18764TIP3    H177707   6.676   5.808  16.397 -0.9653 -1.3190 -0.4436
18764TIP3    H277708   6.606   5.938  16.431  0.5503 -0.9259  1.2407
18765TIP3   OH277709   4.498   5.075   3.361  0.2704  0.0921 -0.0869
18765TIP3    H177710   4.480   5.145   3.299  1.7063  1.8483  1.4045
18765TIP3    H277711   4.583   5.039   3.335 -0.8335 -1.6733 -1.3349
18766TIP3   OH277712   5.285   0.728   0.699 -0.0373  0.0763  0.8010
18766TIP3    H177713   5.374   0.748   0.728 -0.7714 -0.4710  3.5989
18766TIP3    H277714   5.240   0.699   0.778 -2.6522  0.1020 -0.6152
18767TIP3   OH277715   4.885   0.809  14.731  0.0387 -0.5180 -0.3687
18767TIP3    H177716   4.938   0.847  14.801  1.0260 -0.1436 -1.3052
18767TIP3    H277717   4.824   0.879  14.705  1.7215  0.4069 -1.9560
18768TIP3   OH277718   0.352   3.220  11.796 -0.1893 -0.2108  0.3077
18768TIP3    H177719   0.332   3.292  11.737 -0.3197 -1.3157 -1.0122
18768TIP3    H277720   0.446   3.227  11.812 -0.2913  0.5389  0.5711
18769TIP3   OH277721   1.522   0.251   2.306 -0.1782  0.1291 -0.5258
18769TIP3    H177722   1.569   0.229   2.387 -1.4632 -0.5251  0.0545
18769TIP3    H277723   1.585   0.301   2.255  0.9569 -0.2223  0.5010
18770TIP3   OH277724   3.368   1.698  11.401 -0.1639  0.1441 -0.1354
18770TIP3    H177725   3.453   1.697  11.358  0.1306 -0.9144  0.4633
18770TIP3    H277726   3.316   1.634  11.353  0.0119 -0.6818  0.7658
18771TIP3   OH277727   5.756   0.185  11.701  0.5075  0.0129 -0.0077
18771TIP3    H177728   5.789   0.171  11.789  2.3777  1.5653 -0.4282
18771TIP3    H277729   5.748   0.097  11.663  1.3050 -0.5473  1.1172
18772TIP3   OH277730   0.141   2.973   5.200 -0.2820 -0.3939 -0.1333
18772TIP3    H177731   0.235   2.984   5.215 -0.7204  0.9866  1.7201
18772TIP3    H277732   0.131   2.879   5.185  1.2009 -0.7770  1.0963
18773TIP3   OH277733   2.466   6.637   3.383  0.1578  0.2600 -0.9909
18773TIP3    H177734   2.445   6.679   3.300  0.0813  1.4565 -0.3913
18773TIP3    H277735   2.381   6.625   3.426  0.4472  4.0042  0.9193
18774TIP3   OH277736   6.330   4.874  13.496 -0.4777  0.1301  0.2085
18774TIP3    H177737   6.374   4.869  13.581 -0.5463  2.5090  0.4006
18774TIP3    H277738   6.319   4.968  13.479 -1.7112 -0.3373 -1.7913
18775TIP3   OH277739   1.379   4.352   0.907 -0.2671 -0.0064  0.0676
18775TIP3    H177740   1.366   4.418   0.975 -1.1348  2.3003 -2.2466
18775TIP3    H277741   1.473   4.356   0.888 -0.2204  0.1604  0.3230
18776TIP3   OH277742   5.730   6.607   6.656 -0.0900 -0.2975  0.0309
18776TIP3    H177743   5.822   6.618   6.677 -0.3576 -2.5134  2.6206
18776TIP3    H277744   5.730   6.577   6.565  1.7541 -0.5544  0.0953
18777TIP3   OH277745   1.658   6.410  15.566 -0.0162 -0.1945 -0.0350
18777TIP3    H177746   1.591   6.468  15.601  0.0516 -0.2693  0.2181
18777TIP3    H277747   1.683   6.450  15.483 -0.0398  0.0862  0.0931
18778TIP3   OH277748   5.962   5.894  14.935 -0.3249  0.2199  0.4322
18778TIP3    H177749   5.894   5.891  14.868 -0.4803 -2.3723  0.6400
18778TIP3    H277750   6.021   5.963  14.906 -1.1737  0.1240 -1.6075
18779TIP3   OH277751   1.503   1.311   2.342  0.5406  0.2073  0.0332
18779TIP3    H177752   1.486   1.235   2.287 -0.6150 -0.1881  0.9212
18779TIP3    H277753   1.455   1.383   2.301  0.3088  0.0839  0.0861
18780TIP3   OH277754   4.187   2.956  13.373 -0.2686 -0.3070 -0.1469
18780TIP3    H177755   4.207   2.863  13.381 -0.8342 -0.4101  0.1360
18780TIP3    H277756   4.179   2.971  13.279  1.0843 -0.2656 -0.2620
18781TIP3   OH277757   2.266   4.421   4.202 -0.2784 -0.5567  0.5959
18781TIP3    H177758   2.245   4.488   4.267 -0.3744 -0.3550  0.3568
18781TIP3    H277759   2.361   4.413   4.206 -0.0676  1.0591 -0.8155
18782TIP3   OH277760   1.419   0.085  15.808  0.1948 -0.0899 -0.2379
18782TIP3    H177761   1.369   0.072  15.889  2.0013 -0.4637  0.8503
18782TIP3    H277762   1.377   0.028  15.744 -1.6122  0.6495  0.2793
18783TIP3   OH277763   2.449   4.596   5.116  0.1012  0.2022  0.1146
18783TIP3    H177764   2.419   4.678   5.078  0.9641  0.2760 -0.4135
18783TIP3    H277765   2.422   4.602   5.208 -0.8566  0.5700 -0.1852
18784TIP3   OH277766   3.861   3.988   5.636  0.2947  0.4284  0.7160
18784TIP3    H177767   3.807   4.062   5.607 -1.4179 -1.3361 -0.7726
18784TIP3    H277768   3.852   3.989   5.732 -2.1567  0.3667  0.5182
18785TIP3   OH277769   3.849   0.417   0.730  0.7388  0.2513  0.5112
18785TIP3    H177770   3.912   0.447   0.796  0.3657 -1.0586  1.4854
18785TIP3    H277771   3.898   0.419   0.648  0.8729  2.9763  0.6258
18786TIP3   OH277772   0.467   2.282  11.623  0.0293 -0.8025 -0.1581
18786TIP3    H177773   0.510   2.366  11.642 -0.1024 -0.6280 -0.6238
18786TIP3    H277774   0.403   2.272  11.694 -0.3678 -0.2201 -0.4239
18787TIP3   OH277775   1.987   1.115  14.137  0.3628 -0.0868 -0.0462
18787TIP3    H177776   2.046   1.185  14.166 -1.8648  0.8672  2.3559
18787TIP3    H277777   1.934   1.156  14.069  2.4636 -0.9716 -2.2732
18788TIP3   OH277778   1.576   5.724   2.721 -0.0861 -0.4699  0.3236
18788TIP3    H177779   1.561   5.666   2.796  0.3456  1.0565  1.6079
18788TIP3    H277780   1.649   5.683   2.673 -0.6966 -1.7178  0.4344
18789TIP3   OH277781   4.113   4.320   0.853 -0.3374  0.3620  0.2213
18789TIP3    H177782   4.157   4.322   0.768 -2.8489  0.7293 -1.1473
18789TIP3    H277783   4.155   4.389   0.904  1.1198  0.2188 -0.7692
18790TIP3   OH277784   3.445   1.702  12.600 -0.2648 -0.0778 -0.1235
18790TIP3    H177785   3.528   1.671  12.637 -0.2397  0.4955  0.3049
18790TIP3    H277786   3.380   1.685  12.668 -0.2017  1.0698  0.2350
18791TIP3   OH277787   3.182   2.107   1.755  0.4045  0.0674 -0.8175
18791TIP3    H177788   3.181   2.019   1.790 -0.8927 -0.2065 -1.5121
18791TIP3    H277789   3.091   2.135   1.755  0.7402  1.2302 -1.0506
18792TIP3   OH277790   5.045   6.665  15.240 -0.2149 -0.2756  0.2670
18792TIP3    H177791   5.083   6.729  15.301  1.2641  0.1537 -1.0745
18792TIP3    H277792   4.999   6.719  15.175  0.6350 -0.5799 -0.5991
18793TIP3   OH277793   0.061   6.415   3.097  0.0486 -0.0471  0.0930
18793TIP3    H177794   0.091   6.496   3.056 -0.4164  1.1237  2.0052
18793TIP3    H277795   0.125   6.398   3.166 -0.2862 -0.8727  0.2022
18794TIP3   OH277796   3.657   3.230  12.296 -0.4332 -0.0791 -0.3035
18794TIP3    H177797   3.738   3.282  12.297 -1.5914  1.7505  0.9231
18794TIP3    H277798   3.627   3.234  12.205 -0.4335  1.3100 -0.2488
18795TIP3   OH277799   0.457   2.757   1.325 -0.3922  0.0874 -0.0459
18795TIP3    H177800   0.502   2.834   1.291 -1.4513  0.6750 -0.1091
18795TIP3    H277801   0.426   2.711   1.246 -0.5322  0.0574  0.0273
18796TIP3   OH277802   4.371   0.482   1.304  0.8207  0.4412 -0.0733
18796TIP3    H177803   4.400   0.562   1.260  0.4055  0.4072 -0.4105
18796TIP3    H277804   4.429   0.474   1.380  0.8269  1.0951 -0.0052
18797TIP3   OH277805   6.099   5.467  16.075 -0.5756  0.1390  0.1729
18797TIP3    H177806   6.070   5.458  15.984 -0.7306 -1.5686  0.3762
18797TIP3    H277807   6.022   5.443  16.126  0.0603 -0.6945  0.7420
18798TIP3   OH277808   3.799   3.011  16.278  0.4446 -0.0792 -0.2160
18798TIP3    H177809   3.828   3.005  16.369  1.1596  0.0110 -0.4354
18798TIP3    H277810   3.719   3.063  16.282  0.3876 -0.2088  0.3826
18799TIP3   OH277811   4.935   4.170  12.390  0.2568 -0.1966  0.4389
18799TIP3    H177812   4.919   4.264  12.382 -0.0679 -0.3023 -0.1334
18799TIP3    H277813   5.025   4.159  12.360 -0.4335 -0.3753 -1.5894
18800TIP3   OH277814   3.841   4.017  16.332 -0.2077  0.4945 -0.1598
18800TIP3    H177815   3.930   4.050  16.343 -0.1496  0.5929 -0.9589
18800TIP3    H277816   3.812   3.999  16.422  0.8413 -0.1258  0.0674
18801TIP3   OH277817   3.167   1.151  16.324  0.0904 -0.0927 -0.1469
18801TIP3    H177818   3.165   1.162  16.419 -0.4710 -0.8569 -0.0656
18801TIP3    H277819   3.167   1.240  16.289 -0.1707  0.1841  0.5583
18802TIP3   OH277820   4.954   6.214   0.178  0.1219  0.1510  0.0184
18802TIP3    H177821   4.979   6.269   0.253 -0.8995  1.6950 -0.7723
18802TIP3    H277822   4.946   6.275   0.105  1.3580 -1.3819 -1.4365
18803TIP3   OH277823   2.141   3.214   4.461 -1.2972 -0.1367 -0.0507
18803TIP3    H177824   2.138   3.308   4.480  0.0508 -0.4042  1.6093
18803TIP3    H277825   2.226   3.201   4.418 -2.0067 -0.4273 -1.4086
18804TIP3   OH277826   1.903   3.691   0.553 -0.1445  0.4701 -0.6178
18804TIP3    H177827   1.995   3.665   0.566 -0.1285  0.5919 -0.4815
18804TIP3    H277828   1.907   3.760   0.487 -0.2590 -0.3847 -1.5282
18805TIP3   OH277829   2.833   3.251  16.698  0.4280  0.0758  0.0375
18805TIP3    H177830   2.922   3.235  16.729  0.4846  0.1151 -0.1039
18805TIP3    H277831   2.788   3.167  16.707  0.0244  0.4551  1.6258
18806TIP3   OH277832   2.369   3.545  13.937  0.1403 -0.2595 -0.3319
18806TIP3    H177833   2.430   3.555  14.009 -1.6129  1.5961  0.9421
18806TIP3    H277834   2.314   3.623  13.940 -2.4121 -1.9259 -1.3149
18807TIP3   OH277835   4.136   2.173  12.323  0.1487 -0.1833 -0.5213
18807TIP3    H177836   4.191   2.107  12.280  1.1052  0.5403 -0.4266
18807TIP3    H277837   4.112   2.133  12.407  0.1920 -0.6649 -0.7381
18808TIP3   OH277838   6.326   0.739  12.599  0.4655  0.2056  0.1010
18808TIP3    H177839   6.252   0.789  12.633 -0.6942 -1.2780 -0.1560
18808TIP3    H277840   6.341   0.671  12.665  0.7712 -0.2712 -0.4554
18809TIP3   OH277841   5.522   2.978   3.549 -0.1667 -0.2186 -0.3650
18809TIP3    H177842   5.471   2.987   3.468  0.3815 -0.0258 -0.6927
18809TIP3    H277843   5.501   2.890   3.581  0.0754 -0.5314 -1.0417
18810TIP3   OH277844   5.497   4.313   5.450  0.1862 -0.0734  1.0378
18810TIP3    H177845   5.412   4.272   5.432 -0.3054  0.3680  2.3234
18810TIP3    H277846   5.478   4.407   5.448  0.5874  0.0161  1.6312
18811TIP3   OH277847   1.250   0.971  14.423  0.4617 -0.5372  0.7759
18811TIP3    H177848   1.344   0.960  14.438  0.4430 -0.0987  1.2425
18811TIP3    H277849   1.211   0.889  14.454  0.8934 -1.6721 -1.5526
18812TIP3   OH277850   3.857   3.137  13.336  0.0376 -0.0642 -0.4186
18812TIP3    H177851   3.923   3.172  13.275  1.1982  0.3684  1.0585
18812TIP3    H277852   3.837   3.211  13.394 -0.5453 -0.6741  0.1523
18813TIP3   OH277853   2.847   4.644   0.481 -0.3095  0.0039 -0.0785
18813TIP3    H177854   2.876   4.675   0.395 -0.7308  0.1192 -0.1811
18813TIP3    H277855   2.884   4.556   0.489  0.4606  0.3308 -0.0082
18814TIP3   OH277856   3.898   1.880   2.717 -0.4707  0.1475 -0.6144
18814TIP3    H177857   3.959   1.924   2.658  1.3126 -0.3438  0.7909
18814TIP3    H277858   3.908   1.787   2.697 -0.6751  0.0582 -0.3079
18815TIP3   OH277859   0.314   4.153  16.401 -0.0040 -0.1731  0.7651
18815TIP3    H177860   0.261   4.232  16.397 -1.1218 -0.9099  0.6037
18815TIP3    H277861   0.300   4.119  16.490  0.5849 -0.1132  0.8826
18816TIP3   OH277862   1.908   3.734  16.396 -0.0900 -0.3907 -0.4073
18816TIP3    H177863   1.872   3.671  16.333  1.8842 -2.3178  0.3067
18816TIP3    H277864   1.843   3.737  16.466 -0.5006 -1.1569 -0.7455
18817TIP3   OH277865   0.032   5.941   6.320 -0.1854  0.5327 -0.5073
18817TIP3    H177866   0.108   5.896   6.285 -0.8055  0.6905 -2.0725
18817TIP3    H277867   0.060   6.032   6.330  0.6147  0.1263  1.3311
18818TIP3   OH277868   3.641   3.207  12.012 -0.0361 -0.3183 -0.3981
18818TIP3    H177869   3.598   3.133  11.969  0.3568 -0.8377  0.1023
18818TIP3    H277870   3.709   3.234  11.950  1.4908 -1.9907  0.5077
18819TIP3   OH277871   0.688   4.186  13.376 -0.2074 -0.3502  0.3496
18819TIP3    H177872   0.666   4.093  13.376  0.8129 -0.6008 -0.5493
18819TIP3    H277873   0.782   4.189  13.357 -0.2953  0.8686  0.0452
18820TIP3   OH277874   2.673   1.991  15.714  0.2679 -0.0889 -0.0894
18820TIP3    H177875   2.719   1.929  15.657  0.8012 -0.0144  0.2544
18820TIP3    H277876   2.657   2.067  15.658 -0.1537 -0.4328 -0.4388
18821TIP3   OH277877   2.142   0.627   0.557  0.5219  0.5785  0.4498
18821TIP3    H177878   2.141   0.716   0.590 -2.3020  1.1885 -1.1200
18821TIP3    H277879   2.057   0.590   0.584  1.2147 -1.2672  0.1732
18822TIP3   OH277880   6.076   0.622   5.725  0.3659  0.0276 -0.0700
18822TIP3    H177881   6.069   0.711   5.759 -2.6714  0.1487 -0.8923
18822TIP3    H277882   5.993   0.581   5.747  0.8883 -1.9337 -1.5702
18823TIP3   OH277883   1.271   4.710  12.222  0.6327 -0.0747 -0.0807
18823TIP3    H177884   1.189   4.672  12.190  0.6780  0.6889 -1.1069
18823TIP3    H277885   1.303   4.764  12.150  0.8947  1.4174  1.1322
18824TIP3   OH277886   1.392   5.132  15.833 -0.1019  0.0032 -0.4995
18824TIP3    H177887   1.380   5.193  15.905  1.0632 -1.2768  0.8060
18824TIP3    H277888   1.481   5.148  15.802 -1.1721  1.7989 -2.9007
18825TIP3   OH277889   2.650   6.316  14.637  0.2487  0.8345 -0.4911
18825TIP3    H177890   2.699   6.237  14.658  1.7006  2.2834  1.8842
18825TIP3    H277891   2.580   6.287  14.579  1.2130 -2.0315 -0.2852
18826TIP3   OH277892   1.325   1.380  12.247  0.1282 -0.3311  0.2582
18826TIP3    H177893   1.349   1.310  12.187  3.5216 -0.5529  1.7491
18826TIP3    H277894   1.295   1.336  12.326  0.3653 -0.1056  0.4766
18827TIP3   OH277895   3.941   0.079   0.701  0.3788 -0.1272 -0.3911
18827TIP3    H177896   3.993   0.095   0.779 -1.6393 -1.4275  1.2700
18827TIP3    H277897   3.979   0.000   0.662  1.3107  0.4519 -0.6444
18828TIP3   OH277898   1.637   5.065  16.261 -0.3150 -0.7244 -0.8303
18828TIP3    H177899   1.731   5.064  16.281 -0.2058  0.7171 -1.1975
18828TIP3    H277900   1.595   5.076  16.346 -0.0884 -0.1519 -0.7895
18829TIP3   OH277901   2.147   0.546   4.055 -0.3777  0.2498  0.3519
18829TIP3    H177902   2.240   0.549   4.035 -0.2906 -1.4988  0.4474
18829TIP3    H277903   2.133   0.620   4.115  0.7578  1.0615 -0.3627
18830TIP3   OH277904   6.661   1.444  14.161  0.8209 -0.0076 -0.2944
18830TIP3    H177905   6.573   1.482  14.168  1.0772  0.5837 -0.2530
18830TIP3    H277906   6.648   1.364  14.109 -0.3467 -1.9773  2.8890
18831TIP3   OH277907   6.007   1.440   0.512  0.5460  0.1091  0.1484
18831TIP3    H177908   5.940   1.470   0.573 -0.1887 -0.2471 -0.4823
18831TIP3    H277909   6.086   1.486   0.539  0.1210  0.2793  1.0962
18832TIP3   OH277910   3.417   3.116  12.320  0.1288  0.3210 -0.4305
18832TIP3    H177911   3.504   3.147  12.342 -0.0276  0.9658 -0.7305
18832TIP3    H277912   3.362   3.144  12.394  0.2700 -0.5329  0.0057
18833TIP3   OH277913   4.405   3.882  15.098  0.2427  0.1325 -0.1338
18833TIP3    H177914   4.407   3.942  15.173  1.9025 -0.4050  0.2730
18833TIP3    H277915   4.487   3.899  15.052 -0.3273 -0.2313 -1.2841
18834TIP3   OH277916   6.529   3.146  12.139  0.4181 -0.2824  0.2757
18834TIP3    H177917   6.511   3.162  12.231  1.2991  1.7463  0.1129
18834TIP3    H277918   6.444   3.157  12.095  0.1121 -0.6999  0.7623
18835TIP3   OH277919   0.036   1.388   5.201  0.3872 -0.4558  0.2660
18835TIP3    H177920   0.114   1.337   5.223  0.2270 -1.0434 -0.5056
18835TIP3    H277921   0.068   1.455   5.141  0.4615 -0.1145  0.6841
18836TIP3   OH277922   6.762   0.453   6.792  0.0378 -0.2591  0.0358
18836TIP3    H177923   6.784   0.522   6.855 -1.4068 -0.9652  1.3270
18836TIP3    H277924   6.703   0.495   6.729 -1.1611 -0.3940  1.0492
18837TIP3   OH277925   3.218   4.505   1.144 -0.0477  0.6121  0.3036
18837TIP3    H177926   3.163   4.502   1.222 -0.4852  2.6473  0.1041
18837TIP3    H277927   3.253   4.595   1.143  0.9244  0.2314 -1.1676
18838TIP3   OH277928   5.973   3.740  12.716  0.7352 -0.5546  0.0703
18838TIP3    H177929   5.900   3.703  12.667  2.4941 -1.7425 -1.7096
18838TIP3    H277930   5.957   3.834  12.716 -0.7538 -0.7955 -0.3263
18839TIP3   OH277931   1.862   5.485   4.659 -0.1089 -0.2285 -0.2447
18839TIP3    H177932   1.773   5.518   4.671 -0.3105 -1.5720  2.2896
18839TIP3    H277933   1.917   5.563   4.656 -1.1539  0.5332  0.1653
18840TIP3   OH277934   4.698   2.841  16.838 -0.0517  0.5407  0.6804
18840TIP3    H177935   4.613   2.829  16.882  1.0744  1.0333  3.0496
18840TIP3    H277936   4.743   2.906  16.890  3.3087 -2.4254  1.6969
18841TIP3   OH277937   3.694   1.888   2.095  0.3240  0.1913 -0.3604
18841TIP3    H177938   3.685   1.843   2.179 -0.0381  0.8560 -0.0386
18841TIP3    H277939   3.747   1.965   2.114  1.5845 -0.4865 -1.0583
18842TIP3   OH277940   4.297   4.058   3.346 -0.5537  0.3575 -0.3737
18842TIP3    H177941   4.353   4.003   3.400 -0.2189  2.1635  1.1903
18842TIP3    H277942   4.347   4.070   3.265 -0.3513 -1.0746 -0.4753
18843TIP3   OH277943   0.616   2.518  11.436 -0.2317  0.3484 -0.5167
18843TIP3    H177944   0.664   2.584  11.386  1.4563 -0.7315 -0.3548
18843TIP3    H277945   0.646   2.528  11.526 -1.3613  0.5769 -0.1474
18844TIP3   OH277946   1.232   0.655   5.259 -0.0703  0.1888  0.0535
18844TIP3    H177947   1.182   0.621   5.334 -0.7790 -0.4793 -0.7043
18844TIP3    H277948   1.192   0.612   5.183  2.4088 -1.2256 -0.4824
18845TIP3   OH277949   0.787   1.085   2.811 -0.2794  0.1623 -0.1322
18845TIP3    H177950   0.858   1.124   2.862 -1.6776  0.2822  1.7726
18845TIP3    H277951   0.709   1.134   2.837 -1.3055 -0.8929 -1.1535
18846TIP3   OH277952   0.304   4.015   2.436  0.3968  0.2311  0.4019
18846TIP3    H177953   0.337   3.928   2.416 -0.4003 -0.0841  0.4406
18846TIP3    H277954   0.271   4.008   2.525  2.2360  1.1371  1.1738
18847TIP3   OH277955   2.273   3.758  11.666 -0.2829 -0.2956  0.1545
18847TIP3    H177956   2.345   3.817  11.689 -0.1174 -0.3587 -0.1937
18847TIP3    H277957   2.216   3.811  11.610 -0.1837 -0.4384 -0.0810
18848TIP3   OH277958   0.380   5.122  12.892  0.1617  0.1884  0.0103
18848TIP3    H177959   0.356   5.210  12.921  1.4590  0.0656  1.5215
18848TIP3    H277960   0.441   5.136  12.820  1.0509  0.5429  0.8256
18849TIP3   OH277961   0.752   5.052   1.266 -0.1256 -0.4527 -0.1303
18849TIP3    H177962   0.745   4.987   1.335 -0.6518  1.4991  1.7025
18849TIP3    H277963   0.678   5.111   1.280  2.1621  2.4509  0.3334
18850TIP3   OH277964   5.033   6.701  11.178  0.0964  0.5541  0.6375
18850TIP3    H177965   5.074   6.739  11.101 -1.4313  0.4381 -0.2627
18850TIP3    H277966   5.055   6.761  11.249  0.7281  1.1751 -0.0715
18851TIP3   OH277967   6.135   1.864  14.031  0.7354  0.0350 -0.2431
18851TIP3    H177968   6.208   1.894  14.086  0.9674  1.5367 -1.3496
18851TIP3    H277969   6.059   1.870  14.088  0.9459  1.7833 -0.1365
18852TIP3   OH277970   3.025   3.479   2.071  0.3186 -0.1335 -0.1406
18852TIP3    H177971   3.033   3.464   2.166 -0.7448 -1.3301 -0.2279
18852TIP3    H277972   3.088   3.549   2.053  1.5118 -0.8106  1.2317
18853TIP3   OH277973   4.361   3.627  12.418 -0.6175 -0.0041  0.0900
18853TIP3    H177974   4.354   3.531  12.418 -0.4128 -0.0538  2.8540
18853TIP3    H277975   4.441   3.645  12.468 -1.3505  1.6445  0.7062
18854TIP3   OH277976   4.526   2.061  13.145 -0.3812  0.2066 -0.3857
18854TIP3    H177977   4.469   2.061  13.068 -0.0609 -0.0195 -0.6232
18854TIP3    H277978   4.554   1.969  13.154  1.8257  0.7227 -1.6643
18855TIP3   OH277979   5.671   5.837  11.950  0.2175 -0.0916  0.3343
18855TIP3    H177980   5.714   5.763  11.993  1.3325  0.2803 -0.1220
18855TIP3    H277981   5.711   5.839  11.863 -1.1787 -0.1260 -0.3135
18856TIP3   OH277982   1.397   3.450  15.654  0.1387 -0.5580  0.3251
18856TIP3    H177983   1.349   3.376  15.692  0.4547 -0.9095  0.0437
18856TIP3    H277984   1.482   3.413  15.630  0.4292 -0.0111  0.5295
18857TIP3   OH277985   2.343   4.688  13.082 -0.0120 -1.2047 -0.1426
18857TIP3    H177986   2.253   4.708  13.057  0.8752  1.7595 -1.2138
18857TIP3    H277987   2.394   4.700  13.001  1.6866 -0.2315  1.0352
18858TIP3   OH277988   0.651   4.644  14.226 -0.5744  0.1561 -0.4594
18858TIP3    H177989   0.660   4.595  14.307 -0.4827 -0.9178 -1.1117
18858TIP3    H277990   0.709   4.719  14.236 -1.2312  0.5102  0.8219
18859TIP3   OH277991   6.383   0.211   3.640 -0.7413  0.0411 -0.0664
18859TIP3    H177992   6.309   0.151   3.653 -0.6519 -0.5265 -2.0453
18859TIP3    H277993   6.448   0.159   3.593  0.2075  1.0607  0.1077
18860TIP3   OH277994   0.727   2.908   4.667  0.4291  0.9492  0.0340
18860TIP3    H177995   0.748   2.908   4.574  0.3009  1.8537  0.0012
18860TIP3    H277996   0.770   2.987   4.702  1.3926  0.0335  0.9473
18861TIP3   OH277997   1.647   3.945  11.910  0.4479  0.9199  0.1036
18861TIP3    H177998   1.611   4.033  11.899  2.3169  1.9360  1.6998
18861TIP3    H277999   1.600   3.909  11.986  0.8998  1.2147  0.5249
18862TIP3   OH278000   4.448   2.408   1.136 -0.0361 -0.2732  0.0788
18862TIP3    H178001   4.538   2.432   1.114  0.4464 -2.4189 -0.3648
18862TIP3    H278002   4.394   2.463   1.080  0.9848  1.1003  0.4233
18863TIP3   OH278003   6.449   2.173   2.350  0.2125 -0.7290  0.3016
18863TIP3    H178004   6.419   2.118   2.422  1.1794 -1.0436  0.4748
18863TIP3    H278005   6.455   2.113   2.275  2.7091 -1.2328  0.8470
18864TIP3   OH278006   1.502   2.372   1.862 -0.4177 -0.3664  0.1167
18864TIP3    H178007   1.451   2.364   1.943 -1.9879 -0.0865 -0.8346
18864TIP3    H278008   1.444   2.342   1.793  0.5642  0.3341 -1.0467
18865TIP3   OH278009   1.263   2.807  15.479 -0.4669 -0.0639  0.1873
18865TIP3    H178010   1.340   2.860  15.499  0.5165 -2.0771  1.8737
18865TIP3    H278011   1.211   2.811  15.559 -2.1427  1.2354 -0.9145
18866TIP3   OH278012   0.513   2.207   6.565 -0.2198 -0.3330 -0.4804
18866TIP3    H178013   0.580   2.178   6.627 -1.0523 -1.2450  0.0001
18866TIP3    H278014   0.475   2.126   6.531 -1.5635  0.1688 -0.2193
18867TIP3   OH278015   2.873   3.238  14.988  0.3269 -0.5383 -0.1513
18867TIP3    H178016   2.813   3.286  15.045 -0.1777 -2.3671  0.9017
18867TIP3    H278017   2.882   3.293  14.910 -0.4863  1.0867  0.8748
18868TIP3   OH278018   2.370   5.515   6.048  0.2053 -0.1515 -0.4669
18868TIP3    H178019   2.362   5.588   6.109 -0.5374  2.0096 -3.0591
18868TIP3    H278020   2.287   5.468   6.057 -0.7532  1.3629 -1.3153
18869TIP3   OH278021   6.751   5.129   1.125  0.1715 -0.5049  0.2715
18869TIP3    H178022   6.685   5.196   1.146 -0.1239 -0.3989 -0.9885
18869TIP3    H278023   6.821   5.177   1.082 -0.2851 -1.0804 -1.1344
18870TIP3   OH278024   5.092   3.617  16.843  0.2025  0.2447 -0.1154
18870TIP3    H178025   5.049   3.551  16.897 -0.2019  0.7955  0.2456
18870TIP3    H278026   5.134   3.567  16.774 -1.1023 -0.3101 -0.5364
18871TIP3   OH278027   5.932   0.577  16.525 -0.0598  0.2976 -0.2926
18871TIP3    H178028   5.870   0.503  16.527 -2.0389  1.9060 -0.6551
18871TIP3    H278029   5.887   0.647  16.572  1.5221  1.5072 -0.5557
18872TIP3   OH278030   3.925   2.837   1.143 -0.4564  0.0682  0.4296
18872TIP3    H178031   4.008   2.845   1.191 -0.8302  1.6219  0.8337
18872TIP3    H278032   3.908   2.925   1.110 -1.0786 -0.6176 -1.1251
18873TIP3   OH278033   2.113   4.310  14.920 -0.3869  0.3821  0.0200
18873TIP3    H178034   2.094   4.221  14.891  0.0457  0.7309 -1.3926
18873TIP3    H278035   2.028   4.347  14.942 -0.6040 -0.2779  0.2916
18874TIP3   OH278036   6.202   3.514  15.720  0.4492 -0.1282  0.3325
18874TIP3    H178037   6.121   3.462  15.715 -0.6529  1.5489  0.5072
18874TIP3    H278038   6.177   3.593  15.768  1.9750  0.8396 -0.4294
18875TIP3   OH278039   1.156   0.816  11.608  0.2127 -0.1195  0.3111
18875TIP3    H178040   1.072   0.839  11.569  0.2627 -0.7885 -0.2165
18875TIP3    H278041   1.175   0.728  11.573  1.2184  0.1063  0.2717
18876TIP3   OH278042   5.270   2.651  13.137 -0.1119  0.1853 -0.1371
18876TIP3    H178043   5.207   2.625  13.070 -0.9077  1.0769  0.2626
18876TIP3    H278044   5.267   2.581  13.202 -0.4175  0.0403 -0.3073
18877TIP3   OH278045   4.932   3.451  14.199  0.2436 -0.2886  0.3540
18877TIP3    H178046   4.880   3.516  14.151 -0.9946 -1.3158  0.2796
18877TIP3    H278047   4.878   3.428  14.275  1.2804 -0.2202  1.1222
18878TIP3   OH278048   6.471   6.230  12.804 -0.2358  0.1631 -0.0056
18878TIP3    H178049   6.444   6.167  12.737  0.1229  1.8310 -1.7657
18878TIP3    H278050   6.433   6.197  12.885 -3.2032 -0.3022 -1.5391
18879TIP3   OH278051   5.287   0.990   0.045  0.3986  0.1397 -0.0116
18879TIP3    H178052   5.336   0.951   0.117 -0.3343  1.2257  1.0927
18879TIP3    H278053   5.304   0.933  -0.030  1.5639 -0.7195  0.9008
18880TIP3   OH278054   3.404   3.839   2.035  0.0391  0.5258 -0.1428
18880TIP3    H178055   3.330   3.830   2.095  0.4753  0.6161  0.4135
18880TIP3    H278056   3.406   3.933   2.013  0.0513  0.5409 -0.0769
18881TIP3   OH278057   4.775   0.686  15.036  0.4090  0.0137 -0.1250
18881TIP3    H178058   4.787   0.657  14.945  1.2903 -0.6952  0.2175
18881TIP3    H278059   4.817   0.772  15.040 -2.2972  1.4654 -1.1681
18882TIP3   OH278060   2.342   5.891   5.223  0.9404  0.8799  0.4059
18882TIP3    H178061   2.259   5.932   5.199  0.5417 -0.6997 -0.9940
18882TIP3    H278062   2.351   5.908   5.317 -1.4876  0.1571  0.7938
18883TIP3   OH278063   4.120   4.125  11.306 -0.7617 -0.0048 -0.3833
18883TIP3    H178064   4.182   4.052  11.304 -1.6412 -0.7504 -1.3278
18883TIP3    H278065   4.171   4.199  11.340  0.9067 -0.3649 -1.9717
18884TIP3   OH278066   4.925   5.329   3.080  0.3505 -0.0242 -0.0854
18884TIP3    H178067   4.948   5.379   3.002  0.9273 -0.1057  0.0290
18884TIP3    H278068   4.897   5.394   3.143  0.5640  0.1045 -0.1235
18885TIP3   OH278069   6.682   4.083   6.015 -0.0361  0.1816 -0.1513
18885TIP3    H178070   6.647   4.057   6.100  2.4195  0.5882  1.0086
18885TIP3    H278071   6.645   4.020   5.953 -0.9619 -0.7732  1.3505
18886TIP3   OH278072   0.653   3.629  16.590  0.2903  0.4755 -0.1401
18886TIP3    H178073   0.562   3.602  16.600  0.3801  0.4754  0.6734
18886TIP3    H278074   0.703   3.547  16.591  0.4443  0.5746  1.0480
18887TIP3   OH278075   5.782   0.807   3.930 -0.2361 -0.2741 -0.2230
18887TIP3    H178076   5.720   0.878   3.946 -0.2209  0.0889 -1.6771
18887TIP3    H278077   5.868   0.849   3.932  0.0417 -0.8702  2.3382
18888TIP3   OH278078   4.785   3.954   5.120  0.0731  0.1723  0.2544
18888TIP3    H178079   4.851   3.961   5.050  0.7724  0.2757  0.9159
18888TIP3    H278080   4.723   4.025   5.101 -1.1353 -1.3584 -1.6945
18889TIP3   OH278081   4.724   0.896  15.611 -0.1977 -0.1398  0.6854
18889TIP3    H178082   4.720   0.992  15.607 -0.4753 -0.1707  0.1570
18889TIP3    H278083   4.725   0.876  15.704  1.5311  0.4492  0.8001
18890TIP3   OH278084   5.236   1.910   1.932 -0.7210 -0.3170  0.0890
18890TIP3    H178085   5.223   1.951   2.017  2.7711  2.2252 -0.4739
18890TIP3    H278086   5.319   1.863   1.940  0.6900  1.6081 -2.4102
18891TIP3   OH278087   1.942   1.292   6.353 -0.2111 -0.2234 -0.6097
18891TIP3    H178088   1.956   1.257   6.441  2.1309 -1.0308 -1.2654
18891TIP3    H278089   1.912   1.382   6.367  0.0674 -0.3722  1.0141
18892TIP3   OH278090   2.783   1.319   4.699 -0.0733 -0.4042  0.6209
18892TIP3    H178091   2.837   1.266   4.640 -0.9334 -0.1713 -0.3997
18892TIP3    H278092   2.725   1.256   4.742 -3.0600 -0.0702 -2.6897
18893TIP3   OH278093   0.338   5.307  12.636 -0.2526 -0.2414 -0.0507
18893TIP3    H178094   0.374   5.230  12.592  1.1031 -0.2512  1.0258
18893TIP3    H278095   0.413   5.344  12.683 -0.8280  1.8839 -0.7537
18894TIP3   OH278096   4.246   3.051  12.543 -0.4784 -0.2964  0.4705
18894TIP3    H178097   4.285   3.038  12.457  0.5848  0.0387  0.8868
18894TIP3    H278098   4.296   3.124  12.581 -0.2913 -1.0650  1.7396
18895TIP3   OH278099   5.071   3.490  13.562  0.1561  0.5015 -0.1603
18895TIP3    H178100   5.063   3.484  13.467 -1.1293 -0.9044  0.0125
18895TIP3    H278101   5.160   3.460  13.581  0.5768  1.2466 -0.9576
18896TIP3   OH278102   0.595   5.913   5.275 -0.1118 -0.2561  0.2764
18896TIP3    H178103   0.645   5.937   5.352 -0.2994 -0.3579  0.4310
18896TIP3    H278104   0.636   5.833   5.243 -2.7741 -2.7934  2.8796
18897TIP3   OH278105   4.498   4.339  16.922  0.1494 -0.5053 -0.0395
18897TIP3    H178106   4.546   4.413  16.885  1.0825  0.5329  3.0951
18897TIP3    H278107   4.407   4.353  16.894  0.6228  0.8928 -0.9041
18898TIP3   OH278108   1.534   4.049   4.375  0.1803  0.2185  0.3187
18898TIP3    H178109   1.536   4.103   4.296  0.5989 -0.3114 -0.0327
18898TIP3    H278110   1.441   4.040   4.395  0.0008 -0.9064 -0.9829
18899TIP3   OH278111   3.957   4.535   6.151  0.0779  0.5080  0.1412
18899TIP3    H178112   3.987   4.445   6.140 -0.5212  0.1514  1.3594
18899TIP3    H278113   3.902   4.533   6.230  0.1411  1.9532  0.2387
18900TIP3   OH278114   4.826   1.742  12.682  0.0971 -0.1333  0.1122
18900TIP3    H178115   4.884   1.683  12.731  0.2456 -0.7897 -0.8452
18900TIP3    H278116   4.858   1.829  12.703  0.3697 -0.4170  0.9197
18901TIP3   OH278117   1.388   3.032  15.790  1.1100 -0.0135  0.5542
18901TIP3    H178118   1.470   3.082  15.790  0.8573  0.4070  0.8076
18901TIP3    H278119   1.342   3.061  15.711  2.5314 -2.4719 -1.2352
18902TIP3   OH278120   0.222   1.402   6.424  0.6193  0.0196 -0.1967
18902TIP3    H178121   0.222   1.489   6.385  0.7361 -0.3002 -0.9272
18902TIP3    H278122   0.237   1.343   6.350  2.0324 -0.5300  0.5115
18903TIP3   OH278123   1.494   0.531   0.731 -0.3166 -0.2594 -0.6616
18903TIP3    H178124   1.471   0.439   0.726  2.8107 -1.1218 -0.2361
18903TIP3    H278125   1.532   0.552   0.646  1.3884 -0.0784  0.1272
18904TIP3   OH278126   2.041   1.148  13.522 -0.1775 -0.2444 -0.0260
18904TIP3    H178127   2.003   1.213  13.581  0.7389 -1.0723  1.5174
18904TIP3    H278128   1.975   1.135  13.454 -1.5261  0.2649  1.1735
18905TIP3   OH278129   0.341   0.922   4.986  0.5142  0.4387  0.3936
18905TIP3    H178130   0.421   0.891   4.945  0.4487 -0.4175  0.9013
18905TIP3    H278131   0.308   0.989   4.927  2.0939  1.4726  0.6479
18906TIP3   OH278132   0.044   6.538  16.445  0.4112 -0.2417 -0.0539
18906TIP3    H178133  -0.011   6.614  16.428 -1.8035 -1.8598 -0.4139
18906TIP3    H278134   0.134   6.569  16.433 -0.4536  2.3010 -0.1137
18907TIP3   OH278135   4.715   4.494  11.389 -0.5897 -0.2483 -0.4432
18907TIP3    H178136   4.726   4.562  11.324  0.3963 -0.2976 -0.3290
18907TIP3    H278137   4.624   4.502  11.417 -0.6540  0.5970 -0.8945
18908TIP3   OH278138   2.054   5.533   1.813  0.4482  0.0213 -0.1677
18908TIP3    H178139   2.070   5.614   1.765 -0.2815 -0.5456 -1.3812
18908TIP3    H278140   2.122   5.531   1.880  2.4880  0.0329 -2.1744
18909TIP3   OH278141   1.578   5.457   5.752  0.2937 -0.4075  0.0169
18909TIP3    H178142   1.659   5.430   5.797 -0.1529  0.9911  1.7312
18909TIP3    H278143   1.596   5.441   5.659  2.2177 -0.9522  0.4495
18910TIP3   OH278144   3.547   2.216  14.271  0.3757 -0.0942 -0.0509
18910TIP3    H178145   3.519   2.284  14.332  0.2772  1.9045 -2.2353
18910TIP3    H278146   3.558   2.262  14.188 -2.4947 -3.2645 -2.3159
18911TIP3   OH278147   6.625   2.274   2.720  0.0314  0.1612 -0.7558
18911TIP3    H178148   6.581   2.357   2.702 -1.3738  0.0518  1.9170
18911TIP3    H278149   6.628   2.268   2.816  3.9456 -0.8855 -0.8332
18912TIP3   OH278150   3.223   2.963   6.097  0.0047  0.1074 -0.2206
18912TIP3    H178151   3.222   2.925   6.009  0.8738 -0.4732  0.0098
18912TIP3    H278152   3.315   2.985   6.112 -0.1265  0.1062  0.5892
18913TIP3   OH278153   5.645   5.617  15.596 -0.3434 -0.1649 -0.2013
18913TIP3    H178154   5.560   5.636  15.556 -0.7703  0.5156  1.0388
18913TIP3    H278155   5.628   5.613  15.690  1.1786  0.9597  0.1384
18914TIP3   OH278156   1.630   5.615  11.079 -0.1449 -0.0777 -0.3448
18914TIP3    H178157   1.643   5.520  11.077  0.5084 -0.0610  1.7796
18914TIP3    H278158   1.687   5.645  11.150  0.1659  1.9956 -1.4482
18915TIP3   OH278159   3.273   2.944   5.399  0.2315  0.3948  0.0419
18915TIP3    H178160   3.327   2.997   5.458 -0.9298  1.1924  0.4089
18915TIP3    H278161   3.225   2.885   5.458 -1.2437  1.4739 -0.0256
18916TIP3   OH278162   2.506   2.052   3.118  0.3969  0.5872 -0.3124
18916TIP3    H178163   2.418   2.056   3.081  1.4335 -0.1915 -2.9795
18916TIP3    H278164   2.509   2.125   3.180 -2.8591 -0.7632  1.5838
18917TIP3   OH278165   0.446   4.555  11.053 -0.5335  0.0354 -0.4141
18917TIP3    H178166   0.403   4.640  11.045 -1.8591 -0.7121 -1.3465
18917TIP3    H278167   0.429   4.527  11.143 -1.0204  0.2548 -0.4403
18918TIP3   OH278168   0.811   4.462   4.537 -0.4529  0.0716  0.3954
18918TIP3    H178169   0.891   4.414   4.516 -0.0092  0.2196  1.6751
18918TIP3    H278170   0.743   4.395   4.541  0.0369 -0.3748  1.4836
18919TIP3   OH278171   1.029   0.175  14.042  0.2804 -0.2335  1.3715
18919TIP3    H178172   0.945   0.147  14.006  1.0487 -0.1249 -0.5139
18919TIP3    H278173   1.006   0.214  14.127 -1.7378  1.1075  0.2513
18920TIP3   OH278174   0.223   3.800   4.120  0.2935 -0.1343 -0.1959
18920TIP3    H178175   0.259   3.732   4.063 -0.5622 -0.8261  0.0917
18920TIP3    H278176   0.299   3.831   4.170  0.9875  0.2496 -1.4654
18921TIP3   OH278177   2.685   0.154   0.395 -1.1878  0.1148 -0.1808
18921TIP3    H178178   2.651   0.220   0.334 -3.4666  0.6245  1.6074
18921TIP3    H278179   2.759   0.115   0.348 -0.4451  3.1794 -1.7174
18922TIP3   OH278180   3.967   2.471   5.463  0.3565 -0.2913 -0.5284
18922TIP3    H178181   3.926   2.467   5.377  1.9732 -1.9633 -1.2536
18922TIP3    H278182   3.919   2.539   5.510 -0.5584  0.6058 -2.7354
18923TIP3   OH278183   3.382   5.707  16.273  0.0199 -0.1231 -0.2007
18923TIP3    H178184   3.309   5.751  16.315 -0.9240 -1.4653 -0.4167
18923TIP3    H278185   3.389   5.623  16.319  1.2614 -0.1179 -0.3583
18924TIP3   OH278186   6.411   5.291  17.055 -0.0640  0.2732 -0.8238
18924TIP3    H178187   6.325   5.287  17.014 -0.1029 -0.7502 -0.6469
18924TIP3    H278188   6.407   5.229  17.128  0.4765  1.0081 -0.1581
18925TIP3   OH278189   0.820   2.539   0.242 -0.0769 -0.7133  0.1861
18925TIP3    H178190   0.815   2.605   0.173  0.5380 -1.4982 -0.6132
18925TIP3    H278191   0.732   2.538   0.280 -0.7301 -1.0040 -1.2709
18926TIP3   OH278192   2.326   6.715   6.599 -0.2935  0.1022 -0.3836
18926TIP3    H178193   2.264   6.731   6.671 -1.0402  0.1543 -1.0279
18926TIP3    H278194   2.334   6.620   6.596  0.5072  0.1386  0.4052
18927TIP3   OH278195   1.541   0.916  16.927  0.7359 -0.2660  0.2986
18927TIP3    H178196   1.624   0.935  16.970  0.5654 -1.2711  1.1069
18927TIP3    H278197   1.507   0.839  16.973 -0.8648  0.4011  0.2706
18928TIP3   OH278198   0.010   4.915   3.251 -0.0124  0.1011  0.0082
18928TIP3    H178199  -0.060   4.960   3.203 -0.5098 -1.6876 -0.9634
18928TIP3    H278200  -0.011   4.822   3.244  2.7247 -0.5134 -0.7189
18929TIP3   OH278201   3.183   0.933   1.567  0.5208 -0.6031  0.7512
18929TIP3    H178202   3.187   0.907   1.475 -0.5301  1.8551 -0.0236
18929TIP3    H278203   3.207   0.854   1.615  3.0193 -1.4186 -1.6812
18930TIP3   OH278204   2.357   0.933  15.618  0.5261  0.3409  0.2595
18930TIP3    H178205   2.354   0.838  15.628  2.4038 -0.0655 -2.4655
18930TIP3    H278206   2.445   0.956  15.648 -0.5737  1.5285  2.7479
18931TIP3   OH278207   3.156   6.664  11.214  0.6354 -0.5118 -0.1939
18931TIP3    H178208   3.224   6.730  11.211 -0.9666  1.2057  0.2495
18931TIP3    H278209   3.083   6.702  11.165 -0.6172 -1.5647  0.7986
18932TIP3   OH278210   4.159   4.000   3.661 -0.5270  0.2327  0.7205
18932TIP3    H178211   4.247   4.001   3.624 -1.1151 -1.9844 -0.7944
18932TIP3    H278212   4.148   3.912   3.695 -2.5021  0.1787  0.0097
18933TIP3   OH278213   3.606   2.215   1.258  0.5487  0.6436 -0.2335
18933TIP3    H178214   3.586   2.267   1.336  0.6381 -0.9347  0.8468
18933TIP3    H278215   3.548   2.139   1.263  1.1622  0.0825 -1.2560
18934TIP3   OH278216   6.442   2.205   4.397 -0.1875 -0.6520 -0.0241
18934TIP3    H178217   6.428   2.233   4.488  0.7147 -0.3275  0.0184
18934TIP3    H278218   6.480   2.118   4.405 -2.0300 -1.4941 -0.1390
18935TIP3   OH278219   1.926   1.749   4.134 -0.3384  0.1554 -0.0840
18935TIP3    H178220   1.834   1.760   4.160 -0.2637  0.1170  0.2025
18935TIP3    H278221   1.936   1.807   4.059  0.1701  2.4562  1.7086
18936TIP3   OH278222   4.015   2.619   6.474 -0.1193 -0.3066 -0.0811
18936TIP3    H178223   3.928   2.648   6.446 -0.7632 -1.2933  0.8740
18936TIP3    H278224   4.045   2.686   6.535 -0.2456 -0.0148 -0.3386
18937TIP3   OH278225   0.620   0.808  10.838 -0.0258 -0.2523 -0.2707
18937TIP3    H178226   0.545   0.799  10.779 -0.1794  1.3233 -0.3272
18937TIP3    H278227   0.694   0.820  10.779  0.2482 -1.5199 -0.2046
18938TIP3   OH278228   0.014   3.518  11.157 -0.0265  0.2042 -0.4139
18938TIP3    H178229   0.101   3.478  11.150 -0.1033 -0.3062  1.2641
18938TIP3    H278230   0.030   3.612  11.148  0.5880  0.0584 -0.9282
18939TIP3   OH278231   1.246   1.871   5.839  0.1041  0.1454 -0.7099
18939TIP3    H178232   1.274   1.902   5.925  1.6694 -0.8923 -0.8225
18939TIP3    H278233   1.225   1.778   5.852 -3.6658  0.9215 -0.5707
18940TIP3   OH278234   5.113   0.622   0.928  0.0754  0.0255 -0.4427
18940TIP3    H178235   5.148   0.577   1.005 -4.2989  0.5052  1.9858
18940TIP3    H278236   5.117   0.556   0.858  2.8667 -0.8565  0.4701
18941TIP3   OH278237   5.620   3.236   0.520  0.0133  0.3116 -0.3150
18941TIP3    H178238   5.537   3.285   0.517  0.1695  0.5373 -1.0543
18941TIP3    H278239   5.677   3.283   0.459  0.4841 -0.2198 -0.2824
18942TIP3   OH278240   1.430   3.223  16.969  1.0975 -0.3435  0.4289
18942TIP3    H178241   1.434   3.316  16.991  3.0042 -0.1858 -0.4377
18942TIP3    H278242   1.353   3.190  17.016 -0.5789  2.0114 -0.5952
18943TIP3   OH278243   5.188   2.050   6.639 -0.1527  0.3237  0.3281
18943TIP3    H178244   5.183   2.001   6.721  0.5847 -0.1034  0.1227
18943TIP3    H278245   5.268   2.018   6.597 -2.7050 -2.6411 -2.5872
18944TIP3   OH278246   3.653   0.588   1.116  0.0645  0.1485 -0.2913
18944TIP3    H178247   3.595   0.567   1.043  1.7116 -1.1533 -1.2441
18944TIP3    H278248   3.653   0.683   1.120 -2.6421  0.1762  0.1494
18945TIP3   OH278249   5.872   3.712  10.653 -0.0056  0.3303  0.3939
18945TIP3    H178250   5.802   3.718  10.587  0.9053  0.7397 -0.5477
18945TIP3    H278251   5.951   3.739  10.607  0.9649 -1.0972  1.1807
18946TIP3   OH278252   2.514   6.568   5.741  0.1398  0.1550 -0.1825
18946TIP3    H178253   2.598   6.534   5.710 -0.9371 -1.2275 -1.6772
18946TIP3    H278254   2.453   6.495   5.729 -1.6438  1.7123 -0.7942
18947TIP3   OH278255   5.173   6.030  15.876 -0.0439 -0.7496  0.2878
18947TIP3    H178256   5.125   5.993  15.949 -0.5880 -0.9779 -0.1845
18947TIP3    H278257   5.146   6.122  15.872  0.2919 -0.6322  0.6181
18948TIP3   OH278258   4.188   0.575   4.740  0.8196 -0.1499  0.7884
18948TIP3    H178259   4.209   0.562   4.648 -0.9285  0.1257  0.3409
18948TIP3    H278260   4.184   0.670   4.751 -0.9008 -0.2011  0.6863
18949TIP3   OH278261   1.449   3.835   2.860 -0.0413  0.3927  0.0071
18949TIP3    H178262   1.420   3.911   2.809  0.3567 -0.0781 -0.9167
18949TIP3    H278263   1.503   3.784   2.800  1.8814  0.7308  1.4000
18950TIP3   OH278264   1.977   6.285  15.280  0.0259  0.3839 -0.2413
18950TIP3    H178265   2.016   6.229  15.347  1.0192  0.4023 -0.8034
18950TIP3    H278266   1.891   6.246  15.264  1.4817 -2.2884 -2.1473
18951TIP3   OH278267   1.306   4.003   6.036 -0.4926  0.0081 -0.1842
18951TIP3    H178268   1.217   3.968   6.024 -1.0689  0.9211  1.2932
18951TIP3    H278269   1.295   4.073   6.100  1.6196 -1.2070  1.5649
18952TIP3   OH278270   1.207   4.565  14.154 -0.2493 -0.3380 -0.1098
18952TIP3    H178271   1.272   4.635  14.146  0.0816 -0.8093 -1.6047
18952TIP3    H278272   1.124   4.606  14.129 -0.3874  0.0217  0.9129
18953TIP3   OH278273   1.617   6.266  13.961  0.1718  0.4543 -0.7245
18953TIP3    H178274   1.533   6.282  14.003  0.5294  2.7027 -0.8134
18953TIP3    H278275   1.594   6.225  13.877 -0.7220 -0.5267 -0.0198
18954TIP3   OH278276   5.574   2.096   4.684  0.7948 -0.1143  0.0218
18954TIP3    H178277   5.533   2.053   4.608  2.4469  0.3609 -1.1701
18954TIP3    H278278   5.614   2.175   4.648  1.6268  0.0986  1.3925
18955TIP3   OH278279   1.829   6.005   5.957  0.0432  0.3023  0.1123
18955TIP3    H178280   1.919   5.993   5.929  0.6256 -0.7372  2.3390
18955TIP3    H278281   1.817   6.100   5.957  1.1803  0.4565 -0.0185
18956TIP3   OH278282   2.618   3.874  14.002  0.2784  0.3282 -0.2536
18956TIP3    H178283   2.667   3.936  14.056  1.4830 -2.2471  1.7224
18956TIP3    H278284   2.682   3.808  13.976 -1.5706 -1.8235  0.3828
18957TIP3   OH278285   0.073   0.195   1.846  0.7814 -0.2027  0.2023
18957TIP3    H178286   0.157   0.235   1.869  0.4131  0.2135  0.8240
18957TIP3    H278287   0.096   0.107   1.816  1.3728 -0.3454  1.0649
18958TIP3   OH278288   2.591   3.641   0.444 -0.2108  0.0556 -0.2200
18958TIP3    H178289   2.510   3.689   0.463 -0.1766  0.0156  0.0254
18958TIP3    H278290   2.609   3.592   0.524 -0.9862 -1.4363 -0.9367
18959TIP3   OH278291   4.166   2.967  13.086 -0.4237  0.1877  0.1350
18959TIP3    H178292   4.084   2.985  13.042 -0.0047 -0.7340 -1.0635
18959TIP3    H278293   4.228   3.029  13.048  0.4124 -1.9466 -2.1070
18960TIP3   OH278294   2.543   4.037  15.477 -0.2959  0.4658 -0.0930
18960TIP3    H178295   2.493   4.093  15.417 -0.7816  1.2308  1.0135
18960TIP3    H278296   2.476   3.998  15.534  0.1844 -0.1077  0.0824
18961TIP3   OH278297   0.047   3.694  16.685 -0.4198 -0.3558 -0.5048
18961TIP3    H178298  -0.044   3.702  16.710 -0.4919  1.5298 -1.2690
18961TIP3    H278299   0.097   3.719  16.763 -0.5598 -0.9605 -0.2233
18962TIP3   OH278300   5.206   1.783   5.520 -0.3570 -1.0374  0.7671
18962TIP3    H178301   5.274   1.848   5.504 -0.7821 -0.5114  1.0650
18962TIP3    H278302   5.223   1.713   5.457 -0.8767  0.1186 -0.6831
18963TIP3   OH278303   0.736   3.290   3.943  0.4805  0.1236 -0.0130
18963TIP3    H178304   0.679   3.260   4.014 -0.6116 -1.1188 -1.3806
18963TIP3    H278305   0.819   3.244   3.958  0.8461  1.2039  1.4361
18964TIP3   OH278306   3.257   1.613   1.496 -0.3027 -0.7509  0.3562
18964TIP3    H178307   3.253   1.697   1.542  2.4756 -1.1197  1.3637
18964TIP3    H278308   3.345   1.579   1.515  0.3922 -1.6684 -3.8681
18965TIP3   OH278309   3.180   1.238   1.864  0.1531  0.1666 -0.2037
18965TIP3    H178310   3.087   1.230   1.883 -0.0033  0.9625 -0.6137
18965TIP3    H278311   3.218   1.155   1.894 -0.6542 -0.0859  0.1292
18966TIP3   OH278312   2.025   3.463   0.272 -0.1503 -0.9577  0.0999
18966TIP3    H178313   2.034   3.549   0.230  1.0327 -0.2648  1.7131
18966TIP3    H278314   1.930   3.449   0.278 -0.4016  1.0402  1.3753
18967TIP3   OH278315   2.025   0.998   5.985  0.1703  0.2909  0.3443
18967TIP3    H178316   2.075   0.935   5.932  0.0578  2.5999 -2.6550
18967TIP3    H278317   2.087   1.028   6.052  1.6761  0.3905 -1.0637
18968TIP3   OH278318   2.127   5.561  17.070  0.3775  0.1397 -0.1329
18968TIP3    H178319   2.178   5.566  17.150 -0.4572 -1.0187  0.4757
18968TIP3    H278320   2.073   5.639  17.071 -0.9909 -0.8074  1.3765
18969TIP3   OH278321   6.533   5.017  15.422  0.0799  0.3566 -0.1818
18969TIP3    H178322   6.491   4.966  15.353 -0.9843 -2.1641  2.2541
18969TIP3    H278323   6.626   4.993  15.416 -0.3811 -1.8251  0.8298
18970TIP3   OH278324   1.562   1.301   5.575  0.4462  0.2551  0.0125
18970TIP3    H178325   1.646   1.263   5.602  1.2915  2.1529  0.1366
18970TIP3    H278326   1.497   1.238   5.604  1.9565 -2.3286 -2.0342
18971TIP3   OH278327   1.758   0.168  12.835  0.1067  0.0452 -0.2325
18971TIP3    H178328   1.755   0.202  12.745  0.1800 -1.7929 -0.9513
18971TIP3    H278329   1.802   0.237  12.885  2.1301  0.1494 -2.0596
18972TIP3   OH278330   5.694   0.753  16.966 -0.0115  0.7329 -0.0797
18972TIP3    H178331   5.786   0.733  16.983  0.0508  1.2711  0.2412
18972TIP3    H278332   5.647   0.672  16.985  0.2248  0.8869  1.1876
18973TIP3   OH278333   3.954   6.489   1.033  0.4924  0.5075 -0.3513
18973TIP3    H178334   4.039   6.492   0.989  0.5986 -1.3441 -0.3174
18973TIP3    H278335   3.963   6.548   1.107  0.8407  2.4308 -1.8942
18974TIP3   OH278336   3.139   5.640  12.160  0.5449  0.6800 -0.7066
18974TIP3    H178337   3.075   5.702  12.124 -3.8241 -2.5430  0.9915
18974TIP3    H278338   3.144   5.570  12.094 -0.0069 -0.5200  0.5020
18975TIP3   OH278339   0.914   3.849  13.589 -0.2025 -0.3266  0.2217
18975TIP3    H178340   0.929   3.855  13.494 -1.3023 -0.4740  0.0305
18975TIP3    H278341   0.986   3.794  13.621  0.1247 -0.3521 -0.5338
18976TIP3   OH278342   1.022   1.377   1.398  0.0617  0.2085  0.2659
18976TIP3    H178343   0.992   1.296   1.440 -1.3486  0.3138 -0.5043
18976TIP3    H278344   1.056   1.348   1.313  0.2359  0.3358  0.2923
18977TIP3   OH278345   6.423   0.729   4.640  0.3220  0.2155  0.0078
18977TIP3    H178346   6.449   0.662   4.576  0.0372 -0.2998  0.4234
18977TIP3    H278347   6.338   0.699   4.672 -0.0181  1.0266 -0.1449
18978TIP3   OH278348   5.041   1.530  12.471  0.5134  0.5782 -0.0394
18978TIP3    H178349   5.018   1.513  12.380 -0.0859 -2.6476  0.6283
18978TIP3    H278350   4.985   1.470  12.521  1.0731  2.0464  2.4264
18979TIP3   OH278351   4.212   6.714  12.331 -0.4272  0.1084  0.2547
18979TIP3    H178352   4.195   6.806  12.310  0.0818  0.4430  1.2875
18979TIP3    H278353   4.256   6.680  12.253 -2.2106  0.2554 -0.8654
18980TIP3   OH278354   5.975   1.749   3.819 -0.6066  0.0185 -0.7048
18980TIP3    H178355   6.043   1.699   3.865  0.8298  1.5823 -1.0738
18980TIP3    H278356   5.969   1.707   3.733  0.3004  0.2347 -0.8740
18981TIP3   OH278357   3.302   5.832   4.818  0.5525  0.1290  0.1339
18981TIP3    H178358   3.310   5.737   4.822  0.0326  0.0835  0.1152
18981TIP3    H278359   3.381   5.865   4.860  0.7017 -0.3119  0.1949
18982TIP3   OH278360   0.898   1.944  11.160  0.2526  0.6549 -0.1739
18982TIP3    H178361   0.830   2.005  11.188  0.1957 -0.2477  1.7256
18982TIP3    H278362   0.956   1.996  11.104 -0.7542  1.9825  0.0088
18983TIP3   OH278363   3.218   4.944  15.496 -0.0513 -0.1363  0.1104
18983TIP3    H178364   3.223   4.858  15.539  0.6795 -0.3542 -0.4111
18983TIP3    H278365   3.286   4.942  15.429  1.9155  1.8824  1.9559
18984TIP3   OH278366   3.238   5.137  13.969  0.0633  0.3199 -0.2497
18984TIP3    H178367   3.281   5.052  13.963 -2.1408 -0.7760 -1.0656
18984TIP3    H278368   3.221   5.163  13.878  0.2317  1.3656  0.0075
18985TIP3   OH278369   5.752   0.356   6.812 -0.5292  0.2831  0.2084
18985TIP3    H178370   5.713   0.268   6.810  0.8470 -0.3246 -1.1032
18985TIP3    H278371   5.713   0.400   6.736 -0.0701  0.2906 -0.0241
18986TIP3   OH278372   0.647   4.342   0.249 -0.2619 -0.1487  0.0527
18986TIP3    H178373   0.639   4.269   0.310  0.2870 -0.2667 -0.0177
18986TIP3    H278374   0.737   4.372   0.259 -0.8784  1.4220  1.1261
18987TIP3   OH278375   5.802   1.679   1.542 -0.1257 -0.0872  0.1555
18987TIP3    H178376   5.828   1.686   1.450  0.1680  0.7562  0.2936
18987TIP3    H278377   5.832   1.761   1.582 -0.1656 -0.4841  1.0255
18988TIP3   OH278378   5.896   0.780   2.584  0.1684 -0.3573 -0.3470
18988TIP3    H178379   5.874   0.806   2.674  0.9718 -0.6430 -0.0612
18988TIP3    H278380   5.858   0.848   2.529  0.4805  0.3227  0.2742
18989TIP3   OH278381   3.340   4.534  16.046  0.0561 -0.3557  0.2523
18989TIP3    H178382   3.382   4.593  16.108 -0.4672 -0.3463  0.6062
18989TIP3    H278383   3.248   4.532  16.073 -0.2048 -0.2672 -0.5869
18990TIP3   OH278384   6.620   1.571   0.766 -0.4417  0.7534 -0.4687
18990TIP3    H178385   6.688   1.543   0.705  0.4696  0.0335  0.8548
18990TIP3    H278386   6.555   1.501   0.763 -0.2363  0.5564 -0.3773
18991TIP3   OH278387   5.378   1.410   2.535 -0.5254 -0.9233 -0.1944
18991TIP3    H178388   5.463   1.453   2.528 -1.4126  0.7181 -1.5339
18991TIP3    H278389   5.390   1.341   2.599  1.7675 -0.5950 -0.2468
18992TIP3   OH278390   1.767   6.118  12.326  0.2412  0.2309 -0.5880
18992TIP3    H178391   1.845   6.173  12.328  0.5202 -0.1426 -1.0792
18992TIP3    H278392   1.786   6.053  12.259  0.9309 -1.9636  1.6667
18993TIP3   OH278393   2.306   3.441  16.848 -0.2440  0.1629  0.3264
18993TIP3    H178394   2.385   3.453  16.795  0.6121 -2.4861  0.8952
18993TIP3    H278395   2.339   3.404  16.930 -2.0491 -0.7859  0.6443
18994TIP3   OH278396   4.465   4.955   1.417 -0.2924  0.1100  0.1261
18994TIP3    H178397   4.381   5.001   1.418 -0.1118  0.4614 -0.5632
18994TIP3    H278398   4.458   4.892   1.489 -2.3851 -2.0439 -1.8632
18995TIP3   OH278399   3.892   6.713  11.138 -0.3937 -0.2595  0.2341
18995TIP3    H178400   3.904   6.785  11.200 -0.0676 -0.3357  0.2605
18995TIP3    H278401   3.975   6.708  11.090  0.4605 -2.1704  1.8553
18996TIP3   OH278402   1.540   6.471  16.696  0.7090  0.9833  0.0175
18996TIP3    H178403   1.463   6.511  16.736  2.3166  1.8322  2.3479
18996TIP3    H278404   1.529   6.377  16.712 -0.3489  0.9939 -0.5905
18997TIP3   OH278405   3.376   2.204  11.897  0.0923  0.1282  0.6872
18997TIP3    H178406   3.403   2.295  11.909 -0.0328  0.3030 -0.3886
18997TIP3    H278407   3.336   2.180  11.981  0.4285  0.9537  1.0891
18998TIP3   OH278408   1.083   6.412  13.692 -0.2689 -0.2928  0.8409
18998TIP3    H178409   1.145   6.471  13.735  1.0733 -1.4322  0.5109
18998TIP3    H278410   1.007   6.411  13.750  0.2316  0.7107  1.5263
18999TIP3   OH278411   0.148   3.104  13.618  0.1614 -0.7018 -0.0788
18999TIP3    H178412   0.231   3.144  13.643 -0.0453 -1.0521  1.2027
18999TIP3    H278413   0.173   3.023  13.575  0.5526  0.3559 -1.9054
19000TIP3   OH278414   4.669   5.449  10.893  0.3701  1.0262  0.3430
19000TIP3    H178415   4.603   5.517  10.883 -0.7254 -0.0637 -0.0782
19000TIP3    H278416   4.673   5.407  10.807  0.1496 -0.2045  0.9205
19001TIP3   OH278417   5.670   0.065  15.366 -0.4130 -0.5624 -0.6372
19001TIP3    H178418   5.725   0.068  15.444 -1.8982 -1.5562  0.4928
19001TIP3    H278419   5.642   0.156  15.354 -0.8357 -0.5265  0.5002
19002TIP3   OH278420   5.894   1.618  15.027  0.1176  0.5146 -0.2210
19002TIP3    H178421   5.924   1.614  14.936  0.9281  1.8589 -0.0327
19002TIP3    H278422   5.813   1.669  15.023  0.5689  1.2521 -0.1032
19003TIP3   OH278423   3.621   2.226   5.268 -0.3042 -0.2003 -0.3785
19003TIP3    H178424   3.653   2.136   5.263 -0.8448 -0.3603 -1.1430
19003TIP3    H278425   3.548   2.223   5.329 -0.2019 -0.2467 -0.2599
19004TIP3   OH278426   4.065   4.906  13.276  0.1075  0.0565  0.2060
19004TIP3    H178427   4.057   4.947  13.362  1.7986  1.6334 -0.3444
19004TIP3    H278428   4.118   4.828  13.291  2.6742  1.7387  0.2248
19005TIP3   OH278429   2.686   6.781  16.954 -0.7334 -0.4717  0.3226
19005TIP3    H178430   2.610   6.739  16.914 -0.5622 -1.5118  1.0636
19005TIP3    H278431   2.701   6.731  17.034  1.2193 -0.7636 -0.2030
19006TIP3   OH278432   1.129   4.358  16.010 -0.0781 -0.7391 -0.0595
19006TIP3    H178433   1.124   4.452  15.992  0.2685 -0.9195 -1.1529
19006TIP3    H278434   1.120   4.351  16.105  1.9106  0.5444  0.2408
19007TIP3   OH278435   2.356   2.712  14.572 -0.7242  0.6187  0.2341
19007TIP3    H178436   2.302   2.637  14.545  1.6780 -1.9930  2.3235
19007TIP3    H278437   2.346   2.715  14.667  2.5530  0.1726  0.6650
19008TIP3   OH278438   4.230   6.094   4.085 -0.2080  0.1478  0.4321
19008TIP3    H178439   4.203   6.012   4.128 -0.0114  0.1199  0.5020
19008TIP3    H278440   4.263   6.066   3.999  2.0760 -0.1111  1.3501
19009TIP3   OH278441   0.701   4.255  11.533  0.3359  0.1470 -0.6789
19009TIP3    H178442   0.790   4.258  11.496  0.5492  0.9217 -0.1000
19009TIP3    H278443   0.645   4.291  11.464  0.2379 -1.8618 -1.6968
19010TIP3   OH278444   3.181   5.738  12.609 -0.3992 -0.0316  0.6824
19010TIP3    H178445   3.262   5.737  12.661 -0.8476  1.1323  1.4209
19010TIP3    H278446   3.211   5.746  12.519  0.3421 -0.3191  0.9007
19011TIP3   OH278447   4.971   1.461  14.335  0.2092  0.5619 -0.4004
19011TIP3    H178448   4.894   1.403  14.327  0.0772  0.4861  1.3445
19011TIP3    H278449   5.033   1.425  14.272 -0.7656 -0.0613 -1.0351
19012TIP3   OH278450   2.240   3.554  15.462  0.3145  0.4214  0.3272
19012TIP3    H178451   2.299   3.594  15.527 -1.5863  0.3731  2.1449
19012TIP3    H278452   2.234   3.462  15.489 -0.2355  0.3279 -0.1187
19013TIP3   OH278453   4.443   3.492   2.250  0.0471 -0.1428 -0.1966
19013TIP3    H178454   4.530   3.513   2.217  0.9129 -2.4469  0.4768
19013TIP3    H278455   4.458   3.422   2.314 -2.2278 -0.0957  0.4539
19014TIP3   OH278456   4.995   2.480  16.509  0.2564 -0.1786 -0.6026
19014TIP3    H178457   4.924   2.420  16.487  0.7510 -1.2390  0.5814
19014TIP3    H278458   5.068   2.423  16.532  0.6327  0.8676  0.9009
19015TIP3   OH278459   3.859   3.476  11.095  0.4973  0.3495  0.0055
19015TIP3    H178460   3.848   3.543  11.028  1.8999 -0.2452 -0.8396
19015TIP3    H278461   3.778   3.425  11.091  0.5112  0.3941 -1.1471
19016TIP3   OH278462   4.684   3.303   4.774 -0.7024 -0.2854  0.1717
19016TIP3    H178463   4.731   3.385   4.761 -2.1260  0.3554 -1.0199
19016TIP3    H278464   4.698   3.281   4.866  0.4817  0.7898  0.2517
19017TIP3   OH278465   0.950   4.615   3.073  0.1446  0.4043 -0.1440
19017TIP3    H178466   0.860   4.624   3.106  0.7566  0.7587  1.4516
19017TIP3    H278467   0.965   4.521   3.070 -0.4910  0.3220 -1.0227
19018TIP3   OH278468   4.095   2.547   3.827  0.2088 -0.5730  0.1525
19018TIP3    H178469   4.034   2.483   3.865 -0.7498  0.1710 -0.1200
19018TIP3    H278470   4.074   2.547   3.734  1.3227 -1.0476 -0.1077
19019TIP3   OH278471   6.451   2.374  15.948  0.0202 -0.2756 -0.1273
19019TIP3    H178472   6.499   2.405  16.025 -1.2639  1.2174  0.0825
19019TIP3    H278473   6.477   2.432  15.878 -0.8871  0.0667 -0.1884
19020TIP3   OH278474   5.278   0.463  12.282 -0.0572  0.4383  0.2398
19020TIP3    H178475   5.358   0.410  12.279 -1.5418 -2.1382  3.0180
19020TIP3    H278476   5.289   0.518  12.361 -1.3281 -0.4966  1.0823
19021TIP3   OH278477   1.735   4.081  17.238 -0.8512 -0.3832  0.0451
19021TIP3    H178478   1.657   4.135  17.249 -0.5572  0.0399  0.0494
19021TIP3    H278479   1.720   4.035  17.155 -1.2183 -0.4940  0.1729
19022TIP3   OH278480   1.007   4.054   3.346  0.0604  0.0042  0.7678
19022TIP3    H178481   0.934   4.109   3.375  0.6463  0.4239  1.4937
19022TIP3    H278482   1.076   4.116   3.324 -0.3285 -0.3171 -1.4713
19023TIP3   OH278483   3.835   5.499   5.104 -0.3779 -0.1890 -0.4618
19023TIP3    H178484   3.925   5.519   5.128 -0.7536  1.0027  0.0030
19023TIP3    H278485   3.837   5.491   5.008 -0.1373  1.7718 -0.6374
19024TIP3   OH278486   5.760   6.748   3.878  0.2806 -0.3469  0.2607
19024TIP3    H178487   5.681   6.771   3.828 -0.3939  1.0024  1.8766
19024TIP3    H278488   5.818   6.707   3.814 -1.0518  0.1957 -1.3467
19025TIP3   OH278489   2.441   1.514   2.269 -0.9182 -0.4419  0.0593
19025TIP3    H178490   2.372   1.577   2.249 -0.5004  0.5481  1.6357
19025TIP3    H278491   2.516   1.542   2.215 -0.5743  0.7175  1.1397
19026TIP3   OH278492   2.383   1.198  10.870  0.1938  0.2558  0.5480
19026TIP3    H178493   2.289   1.190  10.886  0.4388  0.5446  2.2449
19026TIP3    H278494   2.391   1.271  10.808 -0.7338 -0.1032  0.0078
19027TIP3   OH278495   4.912   2.814   5.445  0.2964 -0.9414  0.3321
19027TIP3    H178496   4.855   2.787   5.373  3.0398 -1.8446 -1.5775
19027TIP3    H278497   4.926   2.734   5.496 -0.0729 -0.7334  0.7657
19028TIP3   OH278498   3.730   2.377   0.361  0.2007 -0.4780  0.5080
19028TIP3    H178499   3.687   2.316   0.422 -1.2710  0.2872  0.2506
19028TIP3    H278500   3.721   2.335   0.275  1.0873 -0.9134  0.6219
19029TIP3   OH278501   3.562   6.223   4.027  0.1584 -0.4572  0.2922
19029TIP3    H178502   3.536   6.137   3.994 -0.9087 -0.6362  1.5561
19029TIP3    H278503   3.657   6.217   4.038  0.4815 -0.5039 -2.3831
19030TIP3   OH278504   3.230   4.767  13.069  0.0460  0.0088 -0.2762
19030TIP3    H178505   3.183   4.703  13.121  0.1501 -0.2339 -0.4816
19030TIP3    H278506   3.180   4.848  13.079  0.0401 -0.0510  0.1625
19031TIP3   OH278507   1.117   2.034  11.350  0.2378 -0.4323  0.3857
19031TIP3    H178508   1.067   2.016  11.270  0.0842 -1.8237  0.7837
19031TIP3    H278509   1.202   2.063  11.319 -0.4466  0.9235 -0.2966
19032TIP3   OH278510   1.266   6.180   0.144  0.5030 -0.1214  0.3042
19032TIP3    H178511   1.307   6.195   0.059 -1.4974  1.0855 -0.4829
19032TIP3    H278512   1.338   6.154   0.201  1.8211 -1.3463 -1.8386
19033TIP3   OH278513   0.737   1.053   5.481  0.1165 -0.2047 -0.3130
19033TIP3    H178514   0.723   1.147   5.484  2.9847  0.2302  0.8060
19033TIP3    H278515   0.665   1.016   5.532  0.4336  1.5648  1.4838
19034TIP3   OH278516   4.154   0.308  11.875  0.0019  0.7984  0.1837
19034TIP3    H178517   4.061   0.307  11.850  0.1478  0.4039 -0.3693
19034TIP3    H278518   4.192   0.377  11.820  0.3049  0.0020 -0.6152
19035TIP3   OH278519   4.201   4.553   4.839  0.1678 -0.1720  0.1713
19035TIP3    H178520   4.136   4.489   4.867 -0.3239  0.1860 -0.1445
19035TIP3    H278521   4.151   4.634   4.825  0.6839  0.1170 -0.0328
19036TIP3   OH278522   3.688   0.413  16.400  0.0709 -0.0869  0.1555
19036TIP3    H178523   3.762   0.439  16.344 -0.4652  0.2600 -0.4042
19036TIP3    H278524   3.619   0.388  16.338 -1.2927  2.3795  0.5912
19037TIP3   OH278525   1.240   0.642   0.665  0.1255  0.4245 -0.4097
19037TIP3    H178526   1.241   0.565   0.721 -1.9001  1.5480  1.2192
19037TIP3    H278527   1.329   0.676   0.669  0.6483 -0.9694  0.0330
19038TIP3   OH278528   2.796   2.679   5.328 -0.0521  0.4754 -0.2254
19038TIP3    H178529   2.882   2.696   5.290 -0.2663 -0.5338 -1.1723
19038TIP3    H278530   2.815   2.643   5.415  0.4692  0.5932 -0.2893
19039TIP3   OH278531   3.331   3.415  16.506 -0.4744 -0.6559  0.2462
19039TIP3    H178532   3.336   3.489  16.566  1.1588 -0.6678  0.1478
19039TIP3    H278533   3.336   3.455  16.419  2.2967 -0.9971  0.2265
19040TIP3   OH278534   1.697   0.994   0.563 -0.2108 -0.3452  0.2047
19040TIP3    H178535   1.686   0.949   0.646 -0.0550  0.5493  0.7166
19040TIP3    H278536   1.686   1.087   0.584 -2.1692 -0.2519 -1.1228
19041TIP3   OH278537   2.840   3.131   5.376 -0.1700  0.0659  0.3748
19041TIP3    H178538   2.751   3.095   5.380  0.2406 -0.9414  0.5999
19041TIP3    H278539   2.877   3.093   5.296  0.9744 -1.6918  1.7064
19042TIP3   OH278540   3.373   1.604  14.346 -0.3315 -0.4685  0.6896
19042TIP3    H178541   3.318   1.528  14.365 -1.0444 -0.1485 -0.0235
19042TIP3    H278542   3.371   1.655  14.427 -0.0760 -1.0724  1.0781
19043TIP3   OH278543   2.256   5.380   1.639 -0.5524  0.1161  0.5465
19043TIP3    H178544   2.210   5.391   1.722 -0.5396  0.6438  0.4825
19043TIP3    H278545   2.217   5.301   1.601 -2.2727  1.2195 -0.0619
19044TIP3   OH278546   0.257   3.383   3.899 -0.5274  0.2153  0.0757
19044TIP3    H178547   0.178   3.437   3.897 -1.6001 -1.3451 -0.1848
19044TIP3    H278548   0.244   3.318   3.830  1.4786  0.6120 -0.7097
19045TIP3   OH278549   3.624   0.632   2.971 -0.6863 -0.5573  0.1445
19045TIP3    H178550   3.577   0.629   2.888  0.7478 -1.8507 -0.6575
19045TIP3    H278551   3.711   0.663   2.948  0.2664 -2.5797  0.8647
19046TIP3   OH278552   0.915   4.570  14.116 -0.0793 -0.1625 -0.2869
19046TIP3    H178553   0.871   4.485  14.110  0.2317 -0.5010  1.8575
19046TIP3    H278554   0.844   4.634  14.105 -0.4018 -0.6740 -1.3033
19047TIP3   OH278555   5.750   2.962   5.781 -0.2555 -0.4085 -0.3179
19047TIP3    H178556   5.787   3.037   5.735 -0.0710  1.0509  2.1528
19047TIP3    H278557   5.809   2.890   5.760  0.9358  0.6806 -0.7599
19048TIP3   OH278558   4.040   4.981   3.732  0.0596  0.4833 -0.0249
19048TIP3    H178559   4.011   4.892   3.751  1.2466  0.0010 -0.4436
19048TIP3    H278560   4.117   4.993   3.787 -0.0709  1.2387 -0.0046
19049TIP3   OH278561   3.086   2.995  12.727 -0.8183 -0.0697 -0.0927
19049TIP3    H178562   3.181   2.992  12.717 -0.7650  0.7288  0.1109
19049TIP3    H278563   3.053   3.017  12.640 -0.8174 -0.4352 -0.1831
19050TIP3   OH278564   5.294   4.825   1.094 -0.8475 -0.2304 -0.4046
19050TIP3    H178565   5.325   4.873   1.170 -3.2614  1.7248 -0.5931
19050TIP3    H278566   5.199   4.839   1.094 -0.7809  0.8244 -4.4308
19051TIP3   OH278567   5.076   6.517   2.733  0.2442 -0.2498  0.6829
19051TIP3    H178568   5.031   6.444   2.690 -0.0214  0.5154 -0.3459
19051TIP3    H278569   5.123   6.477   2.806  2.1494 -1.8275 -1.3586
19052TIP3   OH278570   3.578   4.824   5.461 -0.3069 -0.1858  0.2380
19052TIP3    H178571   3.493   4.804   5.421 -1.2469  1.4279  1.3738
19052TIP3    H278572   3.571   4.790   5.550 -1.1011  3.0295  1.4709
19053TIP3   OH278573   2.679   1.728  16.253  0.2045  0.1635 -0.1273
19053TIP3    H178574   2.768   1.716  16.287 -0.6641 -2.4843  1.3240
19053TIP3    H278575   2.647   1.807  16.297  0.5610 -0.9156  2.1383
19054TIP3   OH278576   3.802   4.336  14.200 -0.0662  0.2955 -0.0358
19054TIP3    H178577   3.827   4.249  14.231 -1.0619 -0.5722 -1.6280
19054TIP3    H278578   3.780   4.384  14.280 -0.0306 -1.0653  0.8123
19055TIP3   OH278579   3.955   6.358   2.098 -0.0033 -0.4376 -0.1064
19055TIP3    H178580   3.917   6.271   2.089 -1.1601 -0.1453  1.7691
19055TIP3    H278581   3.880   6.417   2.104  0.7460  0.3852  1.3643
19056TIP3   OH278582   2.626   3.102   2.325 -0.5055 -0.7355  0.4358
19056TIP3    H178583   2.590   3.137   2.244  2.7228  1.6021 -0.0831
19056TIP3    H278584   2.645   3.180   2.378  0.5623 -2.0659  2.0346
19057TIP3   OH278585   6.582   1.868  11.028  0.1870 -0.2042 -0.0403
19057TIP3    H178586   6.614   1.809  10.960  1.5132 -0.5720  0.8707
19057TIP3    H278587   6.488   1.851  11.034  0.0642 -0.1718 -1.7529
19058TIP3   OH278588   3.074   0.889  13.547 -0.1408 -0.3642 -0.3872
19058TIP3    H178589   3.045   0.870  13.458  0.8711 -0.9450 -0.5877
19058TIP3    H278590   3.074   0.804  13.591  2.0259 -0.5052 -0.6105
19059TIP3   OH278591   6.027   0.542  13.860  0.0871 -0.1708 -0.3192
19059TIP3    H178592   6.062   0.491  13.933 -0.6422  2.7032  2.1560
19059TIP3    H278593   6.075   0.624  13.863 -3.1765  1.8385 -0.0747
19060TIP3   OH278594   5.783   2.661  17.148 -0.7537  0.1674 -0.0952
19060TIP3    H178595   5.775   2.691  17.057 -1.6088 -0.2394 -0.1678
19060TIP3    H278596   5.821   2.574  17.141  0.1568  0.5470  0.0088
19061TIP3   OH278597   6.669   4.815  16.026 -0.1192 -0.1387 -0.4125
19061TIP3    H178598   6.715   4.863  15.956  0.4011 -1.8797 -1.2895
19061TIP3    H278599   6.583   4.796  15.989 -0.3524  0.1736 -0.0350
19062TIP3   OH278600   1.503   1.999  14.087 -0.5275  0.1999 -0.3670
19062TIP3    H178601   1.590   1.973  14.058 -0.5988 -0.8011  0.2819
19062TIP3    H278602   1.454   2.015  14.006 -0.4922 -1.7654 -0.7890
19063TIP3   OH278603   2.767   4.524   4.616 -0.2316 -0.7538  0.4712
19063TIP3    H178604   2.749   4.547   4.708  1.5645 -0.2688  0.7246
19063TIP3    H278605   2.816   4.442   4.621  0.3941 -0.4120 -0.0240
19064TIP3   OH278606   5.417   1.518   3.689 -0.6229 -0.0998  0.4535
19064TIP3    H178607   5.376   1.598   3.657 -2.1092 -0.2143  2.0195
19064TIP3    H278608   5.480   1.548   3.755  2.9363  0.1947 -2.8661
19065TIP3   OH278609   1.099   1.148   0.185 -0.0437  0.1876  0.0644
19065TIP3    H178610   1.125   1.209   0.254 -0.3561 -0.2292  0.5561
19065TIP3    H278611   1.127   1.190   0.104  0.5891  0.5464  0.4670
19066TIP3   OH278612   0.633   1.516   1.353 -0.0488  0.4110  0.1216
19066TIP3    H178613   0.581   1.587   1.390  0.5742  0.9928 -0.1061
19066TIP3    H278614   0.586   1.436   1.378  0.0780  0.8133  1.6895
19067TIP3   OH278615   1.333   3.419  14.035 -0.0452  0.3541 -0.3106
19067TIP3    H178616   1.273   3.348  14.057 -1.0370  1.2155 -0.2007
19067TIP3    H278617   1.357   3.404  13.944  0.5574 -0.7004  0.0188
19068TIP3   OH278618   0.364   6.514  16.516  0.4187  0.3192  0.2299
19068TIP3    H178619   0.363   6.444  16.581  0.5603 -1.1432 -1.3275
19068TIP3    H278620   0.344   6.471  16.433 -0.7030  2.3085 -0.5819
19069TIP3   OH278621   0.967   2.754   0.066 -0.0747  0.1161 -0.2486
19069TIP3    H178622   0.939   2.810  -0.006  0.0900  0.2959 -0.1742
19069TIP3    H278623   0.988   2.670   0.025 -1.0388 -0.1202 -0.2586
19070TIP3   OH278624   1.493   1.471  14.650  0.1137 -0.0919 -0.2723
19070TIP3    H178625   1.503   1.499  14.559  1.6022 -3.5235 -1.2409
19070TIP3    H278626   1.579   1.488  14.690 -0.1279  0.1547  0.1488
19071TIP3   OH278627   2.143   6.403  11.896 -0.1965  0.2574  0.5259
19071TIP3    H178628   2.182   6.330  11.946  0.0517  0.6817  0.9649
19071TIP3    H278629   2.064   6.425  11.944 -0.2161  0.3477  0.4528
19072TIP3   OH278630   4.547   4.375  17.200  0.2066 -0.0434  0.0246
19072TIP3    H178631   4.557   4.368  17.105 -1.5559 -0.5489 -0.1317
19072TIP3    H278632   4.531   4.285  17.229 -0.3043  0.2576  0.6794
19073TIP3   OH278633   3.699   6.279  13.792  0.2217 -0.4323 -0.9616
19073TIP3    H178634   3.688   6.333  13.870  1.4237  0.3269 -1.2968
19073TIP3    H278635   3.640   6.205  13.804 -1.1564  0.7688 -0.3166
19074TIP3   OH278636   2.595   4.557   4.365 -0.0318 -0.3216  0.0620
19074TIP3    H178637   2.643   4.592   4.440 -3.7804  2.6464  1.2216
19074TIP3    H278638   2.646   4.584   4.289  1.6536  0.2002  1.3669
19075TIP3   OH278639   0.311   4.155  12.037 -0.3585  0.3207  0.3547
19075TIP3    H178640   0.340   4.246  12.043 -0.4099  0.4145 -0.6404
19075TIP3    H278641   0.350   4.112  12.113  2.0099  0.5540 -0.6748
19076TIP3   OH278642   5.635   4.487  15.304  0.2499  0.1486 -0.3331
19076TIP3    H178643   5.685   4.477  15.223 -0.1224 -2.5957 -0.2954
19076TIP3    H278644   5.702   4.491  15.373  0.5469 -2.7954 -0.3508
19077TIP3   OH278645   3.514   4.671  16.905 -0.7021 -0.3111 -0.4911
19077TIP3    H178646   3.435   4.723  16.919  0.0272  0.5272  0.4908
19077TIP3    H278647   3.511   4.647  16.812 -1.3987  0.8715 -0.7727
19078TIP3   OH278648   0.407   2.652   3.010 -0.1813 -0.5843  0.2089
19078TIP3    H178649   0.419   2.618   2.922  0.0687  0.0908 -0.0241
19078TIP3    H278650   0.429   2.745   3.003 -1.0832 -0.3219  0.7769
19079TIP3   OH278651   0.313   4.725   3.830 -0.4830  0.0601 -0.0394
19079TIP3    H178652   0.307   4.818   3.810  0.0240  0.5500  2.0242
19079TIP3    H278653   0.233   4.705   3.879 -0.0554 -0.3349  0.5035
19080TIP3   OH278654   4.877   2.086  14.419  0.7409  0.2090 -0.0418
19080TIP3    H178655   4.924   2.002  14.412 -1.1876 -0.9215  0.3967
19080TIP3    H278656   4.833   2.095  14.334  0.4608  0.4753  0.1319
19081TIP3   OH278657   6.235   5.551  15.714  0.4156 -0.1228 -0.3677
19081TIP3    H178658   6.150   5.509  15.709 -0.0685  0.8648 -0.6058
19081TIP3    H278659   6.216   5.643  15.730  1.4628 -0.0151  0.3657
19082TIP3   OH278660   2.009   4.514   1.116 -0.4725 -0.0324 -0.5587
19082TIP3    H178661   1.997   4.431   1.163 -0.0206 -0.3082 -0.9312
19082TIP3    H278662   2.081   4.497   1.056  0.4902  1.0285  0.2751
19083TIP3   OH278663   1.219   2.909   2.269  0.7002 -0.0347  0.2867
19083TIP3    H178664   1.137   2.867   2.293  1.1108 -0.8222  0.3255
19083TIP3    H278665   1.225   2.985   2.327  0.3601 -0.3905  0.7890
19084TIP3   OH278666   4.853   0.863   4.073  0.3518 -0.6629  0.2174
19084TIP3    H178667   4.792   0.936   4.067 -0.6529 -1.5449 -0.4167
19084TIP3    H278668   4.803   0.792   4.114  0.9283 -1.4020 -0.3416
19085TIP3   OH278669   3.565   0.763  14.073 -0.2118  0.3803 -0.2172
19085TIP3    H178670   3.558   0.853  14.040 -0.8015 -0.2099 -1.7364
19085TIP3    H278671   3.497   0.757  14.141 -2.1944  0.2205 -2.1512
19086TIP3   OH278672   0.705   0.578  12.368  0.0714 -0.2697  0.3242
19086TIP3    H178673   0.626   0.557  12.416 -0.3451  0.9868  0.2188
19086TIP3    H278674   0.678   0.581  12.276 -0.0025  1.1392  0.3728
19087TIP3   OH278675   4.727   1.165  17.088  0.0247  0.0030 -0.5971
19087TIP3    H178676   4.799   1.227  17.081  0.5300 -0.3929  0.9910
19087TIP3    H278677   4.739   1.106  17.013  0.9386  0.3616 -0.7364
19088TIP3   OH278678   1.439   5.063  12.638 -0.4880  0.2331  0.3680
19088TIP3    H178679   1.396   5.013  12.569  1.9119 -0.8992 -0.3696
19088TIP3    H278680   1.378   5.062  12.711 -1.3336 -2.0372 -0.3591
19089TIP3   OH278681   1.994   5.758  11.051  0.0133 -0.2207 -0.5711
19089TIP3    H178682   1.930   5.690  11.029  0.2771 -0.3474 -0.9353
19089TIP3    H278683   2.071   5.737  10.998  1.3104 -1.5654  1.7775
19090TIP3   OH278684   2.206   1.515   3.399  0.0915 -0.6177 -0.7815
19090TIP3    H178685   2.284   1.533   3.450 -0.5210  2.2156 -0.7997
19090TIP3    H278686   2.239   1.465   3.323  1.3577 -2.4421  0.9142
19091TIP3   OH278687   0.691   6.269  16.576  0.0881 -0.2249  0.1745
19091TIP3    H178688   0.722   6.325  16.505 -1.3077 -0.2780 -0.4870
19091TIP3    H278689   0.771   6.238  16.619  0.9124  0.5608 -0.7843
19092TIP3   OH278690   5.719   4.907  14.562  0.0299 -0.2487  0.2757
19092TIP3    H178691   5.623   4.916  14.563  0.1182  0.6859  0.2518
19092TIP3    H278692   5.739   4.888  14.470 -0.1848 -1.0893  0.3942
19093TIP3   OH278693   1.089   5.182  10.572 -0.3809 -0.3109  0.0662
19093TIP3    H178694   1.025   5.251  10.592  1.6883  1.0627  2.2300
19093TIP3    H278695   1.116   5.200  10.482 -0.5516  1.1673  0.2948
19094TIP3   OH278696   1.848   4.624  16.293 -0.1954  0.1938 -0.2404
19094TIP3    H178697   1.768   4.656  16.335 -1.1720  0.0677 -1.9730
19094TIP3    H278698   1.825   4.538  16.259  0.5329  0.3498 -1.1549
19095TIP3   OH278699   4.576   3.013   6.188 -0.4777 -0.0518 -0.0777
19095TIP3    H178700   4.612   2.997   6.275  1.1046 -0.8811 -0.8636
19095TIP3    H278701   4.652   3.034   6.134 -1.2905 -0.7655 -1.5336
19096TIP3   OH278702   3.771   0.380   4.560  0.7690 -0.7552  0.1067
19096TIP3    H178703   3.725   0.299   4.585 -0.4417 -0.5035 -1.2189
19096TIP3    H278704   3.759   0.385   4.465  2.1562  0.1891 -0.0214
19097TIP3   OH278705   3.145   6.652  16.524 -0.2484 -0.3470  0.0701
19097TIP3    H178706   3.054   6.623  16.526 -0.9441  1.3813 -3.2250
19097TIP3    H278707   3.142   6.743  16.551  0.9646 -1.1264  3.0039
19098TIP3   OH278708   4.805   3.950   5.396  0.2350 -0.5177 -1.0929
19098TIP3    H178709   4.814   4.040   5.425 -1.3245 -0.8150  0.3958
19098TIP3    H278710   4.815   3.954   5.301 -0.7670  1.3674 -1.1393
19099TIP3   OH278711   5.843   1.210  10.989  0.2476 -0.0150 -0.2110
19099TIP3    H178712   5.904   1.136  10.978  0.3135 -0.1552  1.0053
19099TIP3    H278713   5.900   1.286  10.999  0.2691 -0.2796  1.8977
19100TIP3   OH278714   0.154   3.714  15.060 -0.0139  0.3040  0.4658
19100TIP3    H178715   0.207   3.637  15.082  1.4696  1.0814 -0.2698
19100TIP3    H278716   0.185   3.782  15.120  0.0897  0.8641 -0.2111
19101TIP3   OH278717   2.809   0.889   2.057 -0.6437  0.4217  0.1893
19101TIP3    H178718   2.881   0.827   2.066 -1.2154 -0.1958  0.5956
19101TIP3    H278719   2.731   0.834   2.052 -1.0487  1.0748 -0.6490
19102TIP3   OH278720   4.462   6.050  15.249  0.0815 -0.1989 -0.3517
19102TIP3    H178721   4.405   5.983  15.287  0.0478  0.3096  0.5121
19102TIP3    H278722   4.426   6.065  15.161 -0.5740 -0.5251 -0.1432
19103TIP3   OH278723   4.524   3.085   1.235 -0.3998 -0.0399 -0.2150
19103TIP3    H178724   4.555   3.002   1.198 -0.1554  0.6329 -1.5434
19103TIP3    H278725   4.502   3.064   1.326  2.3527 -0.9196  0.3032
19104TIP3   OH278726   1.121   1.969  16.433  0.4697 -0.3302  0.2747
19104TIP3    H178727   1.176   1.894  16.456  0.3308 -0.3215  0.6414
19104TIP3    H278728   1.152   2.039  16.490 -0.6447 -0.6263  1.2505
19105TIP3   OH278729   1.027   6.314   4.730 -0.2629 -0.0228 -0.0040
19105TIP3    H178730   1.080   6.339   4.806  0.5295  1.6214 -1.0753
19105TIP3    H278731   1.024   6.393   4.676  0.8824 -1.7351 -2.6713
19106TIP3   OH278732   5.736   0.353  13.820  0.0862  0.1079 -0.6249
19106TIP3    H178733   5.658   0.297  13.822 -0.1875  0.5096  0.2212
19106TIP3    H278734   5.721   0.412  13.746  0.3735 -0.9111 -1.5190
19107TIP3   OH278735   2.533   0.062   6.183 -0.2610 -0.3432 -0.7193
19107TIP3    H178736   2.451   0.079   6.230 -0.6234 -2.0249 -0.7304
19107TIP3    H278737   2.554   0.146   6.142 -1.9280  0.1420 -0.6348
19108TIP3   OH278738   3.131   0.580  10.460 -0.2940  0.1005  0.3221
19108TIP3    H178739   3.193   0.518  10.497  0.0023  1.0476  1.4543
19108TIP3    H278740   3.057   0.526  10.430  0.9564 -0.9961 -0.8199
19109TIP3   OH278741   4.138   4.055  16.938 -0.4730  0.7888 -0.2534
19109TIP3    H178742   4.173   4.127  16.885 -2.5589  1.2032 -1.1342
19109TIP3    H278743   4.141   3.979  16.879  0.3938  0.4660  0.1971
19110TIP3   OH278744   5.926   2.894  16.523  0.0498 -0.1587  0.0092
19110TIP3    H178745   5.847   2.841  16.517 -0.6440  0.8980 -0.3914
19110TIP3    H278746   5.966   2.869  16.607  0.4527 -2.2562 -0.7656
19111TIP3   OH278747   5.933   4.045  16.595  0.0169 -0.5439  0.2905
19111TIP3    H178748   5.909   4.090  16.676 -0.3256 -2.2610  1.1714
19111TIP3    H278749   5.893   4.097  16.526 -1.6251 -0.3119  1.3862
19112TIP3   OH278750   4.788   6.565  13.909  0.0571  0.5706  0.1128
19112TIP3    H178751   4.747   6.547  13.994  1.2446  0.6858  0.7197
19112TIP3    H278752   4.786   6.482  13.863  1.3912 -0.0386  1.1245
19113TIP3   OH278753   5.714   1.454   1.275 -0.2660 -0.2961  0.2373
19113TIP3    H178754   5.699   1.503   1.193 -0.9763 -1.7614 -0.5271
19113TIP3    H278755   5.795   1.491   1.310 -1.2418  2.0395  0.1299
19114TIP3   OH278756   4.816   5.602   2.415  0.2870 -0.1820  0.3721
19114TIP3    H178757   4.879   5.638   2.353 -1.2787  0.4529 -0.8758
19114TIP3    H278758   4.806   5.671   2.482 -0.2972  0.3859 -0.2967
19115TIP3   OH278759   6.290   3.643  12.769  0.0163  0.1520 -0.2509
19115TIP3    H178760   6.363   3.698  12.741 -0.0913 -0.2124 -1.2755
19115TIP3    H278761   6.319   3.605  12.852  0.0210  1.8662  0.5701
19116TIP3   OH278762   1.956   3.581  15.081 -0.0021  0.6034  0.1021
19116TIP3    H178763   1.956   3.555  14.989  0.0983  0.6167  0.0968
19116TIP3    H278764   1.901   3.516  15.125  1.0596 -0.2065  0.2503
19117TIP3   OH278765   3.206   4.660  13.399 -0.8327  0.6861  0.2629
19117TIP3    H178766   3.169   4.619  13.320 -0.0033  1.9234 -0.7866
19117TIP3    H278767   3.286   4.610  13.417  0.1912  1.8233 -1.0296
19118TIP3   OH278768   5.095   4.533  13.378 -0.2138  0.3116  0.2685
19118TIP3    H178769   5.184   4.501  13.393 -0.0154  0.0523 -1.3443
19118TIP3    H278770   5.106   4.624  13.353 -0.1918 -0.3194 -2.1547
19119TIP3   OH278771   5.756   2.348  13.385  0.5211  0.0138 -0.1514
19119TIP3    H178772   5.841   2.379  13.351  0.9438  0.9440  1.6814
19119TIP3    H278773   5.769   2.255  13.400  0.7969 -0.1129 -1.0911
19120TIP3   OH278774   5.827   6.494  17.067 -0.2026 -0.9235 -0.4417
19120TIP3    H178775   5.869   6.580  17.068 -1.1325 -0.4699 -0.5529
19120TIP3    H278776   5.741   6.508  17.106 -0.3424 -1.8161 -0.4135
19121TIP3   OH278777   4.159   6.251  12.625 -0.0459  0.1394 -0.1927
19121TIP3    H178778   4.221   6.189  12.664 -0.7723  0.6209  1.7674
19121TIP3    H278779   4.213   6.325  12.596  0.4947 -0.2181 -0.1033
19122TIP3   OH278780   1.380   5.655  12.470  0.1975  0.4170 -0.3562
19122TIP3    H178781   1.469   5.679  12.444 -0.3780  2.0570 -0.8752
19122TIP3    H278782   1.333   5.738  12.478 -0.7221 -0.2862  2.0805
19123TIP3   OH278783   5.588   1.217  12.387 -0.1707  0.1683  0.3346
19123TIP3    H178784   5.578   1.127  12.417  0.6370  0.1632  0.6082
19123TIP3    H278785   5.640   1.259  12.456  1.5811  0.1976 -0.9707
19124TIP3   OH278786   1.208   6.472  16.523 -0.6439  0.2672  0.0609
19124TIP3    H178787   1.159   6.451  16.602  0.8407  0.4203  1.0441
19124TIP3    H278788   1.277   6.406  16.519  0.4559  1.3911 -0.0354
19125TIP3   OH278789   5.359   1.043   3.864 -0.1618  0.6306  0.1057
19125TIP3    H178790   5.362   1.128   3.907 -3.2406  1.0241 -0.3023
19125TIP3    H278791   5.398   1.057   3.778  0.2367  1.3909  0.4131
19126TIP3   OH278792   6.105   2.774  12.150  0.2026 -0.3594  0.1615
19126TIP3    H178793   6.181   2.832  12.150 -0.3747  0.4053  0.3868
19126TIP3    H278794   6.030   2.833  12.149 -0.3879 -1.1087 -0.6980
19127TIP3   OH278795   6.044   5.887   0.287 -0.6162  0.1443 -0.3436
19127TIP3    H178796   6.064   5.880   0.194 -0.0731 -0.3618 -0.1900
19127TIP3    H278797   5.948   5.893   0.290 -0.5815  1.0745 -0.9833
19128TIP3   OH278798   5.984   1.775  12.111  0.0664  0.1893  0.4363
19128TIP3    H178799   5.925   1.709  12.147  0.5787 -0.6970 -0.3368
19128TIP3    H278800   5.931   1.821  12.046  0.0301 -0.1655  0.2133
19129TIP3   OH278801   1.507   1.066  14.030 -0.4271 -0.2819  0.2066
19129TIP3    H178802   1.448   1.012  13.977 -0.3563  0.6132 -0.8071
19129TIP3    H278803   1.560   1.004  14.079 -1.3770 -1.1094  0.1953
19130TIP3   OH278804   3.372   1.869   2.366  0.0868 -0.3440 -0.1978
19130TIP3    H178805   3.346   1.800   2.427  0.0895  0.7919  1.0861
19130TIP3    H278806   3.467   1.873   2.373  0.0635 -0.0147 -0.0705
19131TIP3   OH278807   1.742   5.673  16.514  0.4713 -0.3843 -0.2747
19131TIP3    H178808   1.826   5.708  16.485  0.2566  0.6916  0.4233
19131TIP3    H278809   1.708   5.737  16.576  0.1295 -1.8672  1.0942
19132TIP3   OH278810   1.050   4.987   5.991  0.2546  0.2604 -0.3065
19132TIP3    H178811   1.002   4.912   6.027  0.7205  0.4703  0.7544
19132TIP3    H278812   1.133   4.950   5.962 -0.2988  0.0018 -1.6434
19133TIP3   OH278813   0.115   6.077  10.530 -0.3082  0.5328  0.2122
19133TIP3    H178814   0.060   6.121  10.596 -1.8401  0.7163 -1.1656
19133TIP3    H278815   0.054   6.053  10.460  1.1052 -0.7545 -0.5987
19134TIP3   OH278816   2.443   3.651   5.536  0.2365 -0.3591 -0.8134
19134TIP3    H178817   2.399   3.666   5.452  0.1667  1.4349 -0.4581
19134TIP3    H278818   2.516   3.592   5.514  0.1419 -0.0101 -2.1110
19135TIP3   OH278819   0.179   6.028   3.138 -0.2518  0.0151  0.4223
19135TIP3    H178820   0.100   6.063   3.097 -1.1350 -0.1620  1.9221
19135TIP3    H278821   0.152   5.945   3.177  0.3278  0.5589  2.0514
19136TIP3   OH278822   6.331   5.478  11.264  0.1512  0.1962 -0.3882
19136TIP3    H178823   6.402   5.531  11.228  0.2516 -0.8539 -1.7771
19136TIP3    H278824   6.284   5.446  11.187 -2.2520  1.4319  0.5142
19137TIP3   OH278825   3.896   2.435  13.250 -0.2836 -0.6239 -0.4441
19137TIP3    H178826   3.878   2.495  13.323  1.6425 -0.1887 -0.2820
19137TIP3    H278827   3.954   2.485  13.192  0.5053 -1.9655 -0.8327
19138TIP3   OH278828   0.381   4.645  15.771  0.0368  0.1817 -0.1744
19138TIP3    H178829   0.406   4.557  15.801 -1.0935 -0.8184 -2.0455
19138TIP3    H278830   0.289   4.636  15.746 -0.1140  1.9420 -0.2889
19139TIP3   OH278831   3.716   0.271  13.723 -0.1925  0.1431  0.2553
19139TIP3    H178832   3.743   0.284  13.632 -1.3350 -0.5071 -0.1877
19139TIP3    H278833   3.796   0.245  13.768  0.2282 -0.2870 -0.7271
19140TIP3   OH278834   2.445   4.604   5.861 -0.2561  0.6891  0.7823
19140TIP3    H178835   2.419   4.693   5.886 -0.1525  0.5038  1.5755
19140TIP3    H278836   2.508   4.578   5.929 -2.0722 -0.8713  1.9092
19141TIP3   OH278837   2.931   4.439  12.639 -0.1775 -0.3224 -0.0349
19141TIP3    H178838   2.903   4.531  12.645 -0.4920 -0.4518  0.4808
19141TIP3    H278839   3.007   4.434  12.697 -1.6205 -0.9464  1.8815
19142TIP3   OH278840   0.707   2.790  16.773  0.0840 -0.4735 -0.1297
19142TIP3    H178841   0.660   2.866  16.739 -1.8236 -0.9584  1.2899
19142TIP3    H278842   0.788   2.786  16.723 -0.1502  2.0383 -0.7459
19143TIP3   OH278843   0.694   5.926  16.090  0.8173 -0.4159 -0.4263
19143TIP3    H178844   0.788   5.912  16.101  0.7014 -1.1853 -0.4176
19143TIP3    H278845   0.675   5.899  16.000  0.3110 -1.8679  0.0995
19144TIP3   OH278846   1.303   1.035  15.774 -0.7147 -0.0052 -0.3360
19144TIP3    H178847   1.390   1.033  15.814 -1.6147  0.4175  1.7173
19144TIP3    H278848   1.245   1.002  15.843 -2.3406  0.9305 -1.2535
19145TIP3   OH278849   3.004   5.459  17.096 -0.0779  0.0405 -0.2769
19145TIP3    H178850   3.080   5.417  17.055  0.5699  2.1511 -1.2738
19145TIP3    H278851   2.929   5.431  17.043  0.2489 -0.4299 -0.4976
19146TIP3   OH278852   4.929   6.247  13.415  0.1371  0.1323 -0.7116
19146TIP3    H178853   4.912   6.171  13.360  0.9287  0.9511 -2.1135
19146TIP3    H278854   4.974   6.309  13.358  1.4919  0.7853  1.0087
19147TIP3   OH278855   5.201   6.451   1.550  0.0687 -0.7092  0.3175
19147TIP3    H178856   5.281   6.503   1.551 -1.3621  1.5314  0.1057
19147TIP3    H278857   5.167   6.461   1.461 -1.8918  0.6430  1.1842
19148TIP3   OH278858   0.081   3.143   1.469 -0.1671 -0.0178 -0.5078
19148TIP3    H178859   0.125   3.069   1.512 -1.2846 -0.8662 -0.7936
19148TIP3    H278860   0.150   3.209   1.458  1.2533 -1.6357 -1.6760
19149TIP3   OH278861   4.991   3.323  16.461  0.1800 -0.1042 -0.4600
19149TIP3    H178862   5.027   3.411  16.472 -0.1648  0.0424 -0.4855
19149TIP3    H278863   4.896   3.336  16.463  0.1323 -0.6764  1.0748
19150TIP3   OH278864   5.270   4.355   4.207 -0.4792 -0.4021 -0.2159
19150TIP3    H178865   5.250   4.435   4.255 -0.2806 -2.3819  3.3551
19150TIP3    H278866   5.203   4.350   4.139 -0.1944  2.9952 -0.8271
19151TIP3   OH278867   0.881   6.652  15.335 -0.3293 -0.2559 -0.0807
19151TIP3    H178868   0.856   6.677  15.424 -0.0401 -1.2071  0.2738
19151TIP3    H278869   0.971   6.684  15.325 -0.5231  0.2588 -0.1987
19152TIP3   OH278870   0.157   1.032   0.323 -0.6215 -0.2503 -0.5286
19152TIP3    H178871   0.064   1.024   0.301 -0.4168 -1.9122 -0.8400
19152TIP3    H278872   0.197   0.955   0.284  0.7151 -0.1307  0.5856
19153TIP3   OH278873   4.608   3.798  16.613 -0.1164  0.0359  0.1284
19153TIP3    H178874   4.574   3.841  16.535 -0.8319 -2.4174 -0.9585
19153TIP3    H278875   4.689   3.756  16.583 -1.1745 -2.2015  0.2588
19154TIP3   OH278876   0.449   0.093  10.460 -0.8872 -0.9859  0.4836
19154TIP3    H178877   0.442   0.169  10.517 -0.5896 -2.2064  2.1997
19154TIP3    H278878   0.358   0.070  10.440 -0.9745 -0.1872 -0.0422
19155TIP3   OH278879   6.470   0.093  10.556  0.2392  0.2668  0.1408
19155TIP3    H178880   6.560   0.074  10.583 -0.4165 -2.2473  0.7437
19155TIP3    H278881   6.440   0.011  10.516 -1.5190  1.3461 -0.7941
19156TIP3   OH278882   6.380   0.357   2.800 -0.1454  0.1206 -0.4188
19156TIP3    H178883   6.356   0.390   2.713  0.4180 -2.2911 -1.5134
19156TIP3    H278884   6.473   0.337   2.793  0.0135  0.3773  0.8979
19157TIP3   OH278885   4.839   4.695  15.610 -0.3530  0.1387  0.3051
19157TIP3    H178886   4.812   4.758  15.544  0.3049  0.3096  0.1979
19157TIP3    H278887   4.807   4.611  15.578 -1.1730  0.4004  0.4149
19158TIP3   OH278888   4.392   2.276  16.123 -0.0916 -0.1852 -0.3116
19158TIP3    H178889   4.405   2.217  16.048  0.4170 -0.4159 -0.0375
19158TIP3    H278890   4.352   2.354  16.084  1.6477  0.3504 -1.0819
19159TIP3   OH278891   6.329   4.321   0.680  0.2508  0.1165 -1.0705
19159TIP3    H178892   6.410   4.273   0.662  0.4131  0.9178 -2.6260
19159TIP3    H278893   6.266   4.285   0.618 -1.0955 -1.7105  1.3076
19160TIP3   OH278894   2.416   6.658  12.084 -0.3355  0.0515 -0.1115
19160TIP3    H178895   2.414   6.745  12.045 -3.1956  0.5231  0.9599
19160TIP3    H278896   2.398   6.599  12.011  0.1551  0.4589 -0.5704
19161TIP3   OH278897   1.094   4.418   1.323  0.0158 -0.0065 -0.3153
19161TIP3    H178898   1.014   4.451   1.282 -0.8764 -1.1835  0.4270
19161TIP3    H278899   1.076   4.325   1.339  0.4325  0.3626  2.4582
19162TIP3   OH278900   3.362   1.773  12.179  0.7515  0.1386 -0.7295
19162TIP3    H178901   3.412   1.715  12.121 -0.4632 -1.2020 -0.4363
19162TIP3    H278902   3.271   1.751  12.162  0.3231  1.0948  0.3044
19163TIP3   OH278903   6.549   2.876  14.805  0.4859 -0.3278  0.3303
19163TIP3    H178904   6.599   2.795  14.816 -0.2460 -0.8973 -0.4904
19163TIP3    H278905   6.611   2.935  14.762  0.1177 -1.4001 -1.7321
19164TIP3   OH278906   5.428   3.911   1.944  0.1283 -0.2598  0.2323
19164TIP3    H178907   5.498   3.870   1.893  0.8606  0.3439  0.7423
19164TIP3    H278908   5.363   3.937   1.879  1.1984  0.7803 -0.4364
19165TIP3   OH278909   2.628   5.634   1.902  0.4645  0.1290 -0.6036
19165TIP3    H178910   2.640   5.616   1.995  2.6494  1.0375 -0.6627
19165TIP3    H278911   2.581   5.717   1.899  0.4594  0.1369 -0.2927
19166TIP3   OH278912   5.792   0.697  15.267  0.0923  0.4098  0.0830
19166TIP3    H178913   5.707   0.740  15.273 -0.1819 -0.1116  0.0197
19166TIP3    H278914   5.827   0.699  15.356 -1.8161 -3.0170  1.0178
19167TIP3   OH278915   1.558   0.693   0.297 -0.1503  0.3378  0.5157
19167TIP3    H178916   1.600   0.696   0.211 -0.9943 -1.5313  0.0234
19167TIP3    H278917   1.512   0.777   0.303 -1.7863 -0.3294 -1.7672
19168TIP3   OH278918   5.562   6.369   3.527  0.1485 -0.0605  0.0107
19168TIP3    H178919   5.479   6.404   3.558 -0.2711 -0.4939 -0.5999
19168TIP3    H278920   5.538   6.309   3.456  1.0078  0.0952 -0.4247
19169TIP3   OH278921   4.606   6.458   2.231  0.1390  0.5203  0.5570
19169TIP3    H178922   4.582   6.433   2.320 -0.9293  1.5339  0.5623
19169TIP3    H278923   4.693   6.497   2.241  0.9427 -1.2759  0.8323
19170TIP3   OH278924   1.946   3.342  15.234 -0.0078  0.2414  0.1112
19170TIP3    H178925   2.002   3.275  15.276  0.6444 -0.4876 -1.8658
19170TIP3    H278926   1.875   3.356  15.297  0.1518 -1.8955  0.8228
19171TIP3   OH278927   3.790   3.334  16.383  0.4729 -0.2274 -0.3312
19171TIP3    H178928   3.859   3.363  16.442  0.4817  0.1916 -0.5433
19171TIP3    H278929   3.772   3.410  16.328  0.0615 -0.4327 -0.4846
19172TIP3   OH278930   6.296   0.859   0.684  0.5743  0.5900 -0.2416
19172TIP3    H178931   6.239   0.931   0.709 -0.4626 -0.3379  0.1304
19172TIP3    H278932   6.280   0.847   0.590 -0.4580 -0.1737  0.0154
19173TIP3   OH278933   4.248   6.238   3.295 -0.6241  0.4292  0.3200
19173TIP3    H178934   4.201   6.201   3.221 -0.7134 -0.7930  0.9740
19173TIP3    H278935   4.184   6.292   3.340 -1.5695 -1.6018  1.4773
19174TIP3   OH278936   0.382   3.592  16.610  0.0204  0.4029 -0.5442
19174TIP3    H178937   0.336   3.524  16.660  0.4468  1.0230  0.7008
19174TIP3    H278938   0.315   3.658  16.591  0.1693  0.8403  0.4306
19175TIP3   OH278939   5.841   2.104   0.854  0.4754  0.0573  0.5125
19175TIP3    H178940   5.762   2.125   0.905 -0.4293  0.2462 -0.9521
19175TIP3    H278941   5.871   2.188   0.819 -0.3367 -0.3872 -1.3042
19176TIP3   OH278942   2.815   0.713  13.918 -0.2866  0.6637  0.5286
19176TIP3    H178943   2.745   0.739  13.979  0.2538  1.9039  0.6415
19176TIP3    H278944   2.892   0.760  13.950  0.1625  0.7554 -0.6840
19177TIP3   OH278945   4.425   3.684  14.447 -0.1821 -0.1450 -0.3339
19177TIP3    H178946   4.373   3.624  14.501 -0.4061  0.1331 -0.2400
19177TIP3    H278947   4.433   3.639  14.363  1.4940 -1.2894  0.4170
19178TIP3   OH278948   4.047   3.742  11.567 -0.1154 -0.0190 -0.4094
19178TIP3    H178949   4.136   3.743  11.602  0.6379 -1.4313 -2.1553
19178TIP3    H278950   4.008   3.662  11.601 -0.8313  0.7421  0.5841
19179TIP3   OH278951   2.730   6.282   2.971  1.0840  0.2080  0.7636
19179TIP3    H178952   2.794   6.354   2.976 -1.5392  2.7663 -0.8085
19179TIP3    H278953   2.680   6.289   3.052 -0.5863  1.6306 -0.3384
19180TIP3   OH278954   1.507   1.554   2.659 -0.1851 -0.3396 -0.3758
19180TIP3    H178955   1.525   1.615   2.587 -1.0371  0.8202  0.3762
19180TIP3    H278956   1.593   1.523   2.686  0.5085  2.5605  0.9580
19181TIP3   OH278957   3.421   1.252  10.659 -0.3817 -0.0872  0.2270
19181TIP3    H178958   3.454   1.265  10.570 -0.1210 -2.2440 -0.0044
19181TIP3    H278959   3.415   1.157  10.670 -0.4469  0.1374  2.5044
19182TIP3   OH278960   5.403   5.110  16.829  0.7712 -0.4137 -0.2978
19182TIP3    H178961   5.358   5.157  16.758 -0.3975 -1.3014 -0.1667
19182TIP3    H278962   5.473   5.062  16.785  0.6540 -0.2080 -0.7128
19183TIP3   OH278963   4.979   0.598  16.193  0.0420  0.1647  0.1003
19183TIP3    H178964   5.006   0.529  16.133 -0.5872 -0.5094  0.5822
19183TIP3    H278965   5.004   0.679  16.149 -1.1189 -0.2928 -1.4434
19184TIP3   OH278966   5.658   3.780  10.455  0.3829 -0.0747 -0.6050
19184TIP3    H178967   5.634   3.867  10.488 -0.0139 -0.7033  0.8089
19184TIP3    H278968   5.589   3.722  10.487  0.2898 -0.8092 -2.1079
19185TIP3   OH278969   4.845   5.070  15.452 -0.2010  0.7716  0.2359
19185TIP3    H178970   4.891   4.986  15.463 -1.8725 -0.1520  0.3055
19185TIP3    H278971   4.810   5.066  15.363 -3.3446 -0.1875  1.4430
19186TIP3   OH278972   1.961   0.056   1.926 -0.1499  0.2713 -0.5496
19186TIP3    H178973   2.026   0.038   1.994 -1.1970 -1.2866  0.0675
19186TIP3    H278974   2.010   0.050   1.844  0.4144 -1.3062 -0.1210
19187TIP3   OH278975   3.128   6.632   2.937 -0.0444 -0.4480  0.0449
19187TIP3    H178976   3.092   6.561   2.883  1.2991 -0.5901 -0.6936
19187TIP3    H278977   3.057   6.654   2.998 -1.0083 -1.4040 -0.6997
19188TIP3   OH278978   0.901   5.043  16.160  0.2612 -0.3034 -0.4302
19188TIP3    H178979   0.986   4.998  16.159  1.4008  1.6297  2.4019
19188TIP3    H278980   0.890   5.074  16.071  3.2064  0.5350 -0.5715
19189TIP3   OH278981   3.228   3.914  16.216 -0.0552 -0.6337 -0.3478
19189TIP3    H178982   3.155   3.889  16.272 -1.0126 -0.0728 -1.3284
19189TIP3    H278983   3.264   3.830  16.186  0.3262 -0.9306  0.9035
19190TIP3   OH278984   1.976   6.030  15.825  0.4686  0.1393 -0.2465
19190TIP3    H178985   2.006   6.065  15.909  0.6298  0.7211 -0.5473
19190TIP3    H278986   1.901   5.974  15.848  0.6728  0.0882  0.3091
19191TIP3   OH278987   2.056   0.719  15.730  0.0130 -0.1397  0.3867
19191TIP3    H178988   2.127   0.723  15.794  0.6234 -0.4266 -0.2761
19191TIP3    H278989   1.977   0.708  15.783  0.7495 -2.8769  0.9684
19192TIP3   OH278990   5.350   5.319  14.036  0.9615 -0.1281  0.0992
19192TIP3    H178991   5.308   5.252  13.983 -0.4904  0.3915  0.5807
19192TIP3    H278992   5.283   5.348  14.097  0.9058  3.1780 -1.3994
19193TIP3   OH278993   3.820   3.384   3.937  0.1429  0.2204  0.2358
19193TIP3    H178994   3.798   3.452   3.874 -2.0262  0.3114  1.0104
19193TIP3    H278995   3.897   3.417   3.984  1.0412  0.6729 -1.5473
19194TIP3   OH278996   1.702   2.116  17.195  0.0409 -0.1460 -0.3504
19194TIP3    H178997   1.685   2.209  17.182 -0.6752 -0.2645 -0.2801
19194TIP3    H278998   1.749   2.112  17.279  1.3988  0.2802 -1.0773
19195TIP3   OH278999   0.024   1.415  11.516  0.1454  0.2021 -0.2594
19195TIP3    H179000  -0.008   1.380  11.433  0.0370  2.8577 -1.3843
19195TIP3    H279001  -0.045   1.474  11.545  0.5639 -0.0597  1.3076
19196TIP3   OH279002   1.693   1.542   4.758  0.1748  0.5004 -0.8867
19196TIP3    H179003   1.713   1.629   4.723 -0.3343 -0.1029 -2.7082
19196TIP3    H279004   1.673   1.558   4.851  0.0980  2.3224 -1.1967
19197TIP3   OH279005   2.101   1.014   5.207 -0.1781 -0.2036  0.5868
19197TIP3    H179006   2.037   1.086   5.202 -1.4014 -1.2559  0.7379
19197TIP3    H279007   2.066   0.948   5.146  1.2252 -0.4436  0.0367
19198TIP3   OH279008   2.885   3.157  12.011  0.4068 -0.8574  0.0694
19198TIP3    H179009   2.960   3.154  12.070  2.0135  0.4533 -1.8105
19198TIP3    H279010   2.877   3.249  11.987 -0.3312 -1.3245 -1.5719
19199TIP3   OH279011   6.406   1.824   2.419  0.2439 -0.2485  0.3666
19199TIP3    H179012   6.389   1.743   2.371 -0.5152  0.4024 -0.4713
19199TIP3    H279013   6.501   1.834   2.416  0.0774  1.0754 -3.1748
19200TIP3   OH279014   2.455   3.745  15.581 -0.0769 -0.4214 -1.1323
19200TIP3    H179015   2.530   3.748  15.640 -0.4708  0.0479 -0.6465
19200TIP3    H279016   2.493   3.750  15.494  0.5738 -1.9893 -0.9677
19201TIP3   OH279017   2.135   3.867  11.438  0.1557  0.3432 -0.8640
19201TIP3    H179018   2.170   3.888  11.351 -0.2008 -1.1956 -1.3997
19201TIP3    H279019   2.049   3.829  11.420 -0.3640  0.9994  0.2402
19202TIP3   OH279020   3.601   4.760   5.908  0.2419 -0.0342 -0.2408
19202TIP3    H179021   3.555   4.718   5.981  0.2128 -0.6965 -0.6389
19202TIP3    H279022   3.651   4.689   5.868 -0.5418  0.1141 -1.4967
19203TIP3   OH279023   0.235   5.340  12.358 -0.0454  0.0567 -0.4171
19203TIP3    H179024   0.166   5.274  12.367 -0.1691  0.1611 -0.5917
19203TIP3    H279025   0.270   5.351  12.447  0.3609 -0.6592 -0.4833
19204TIP3   OH279026   0.453   2.638   3.599 -0.0947 -0.0382  0.2617
19204TIP3    H179027   0.472   2.713   3.542  1.1487 -0.7155 -0.2283
19204TIP3    H279028   0.523   2.575   3.580 -1.7955 -1.8449 -0.2398
19205TIP3   OH279029   5.116   6.428  13.342 -0.1447  0.4267 -0.6111
19205TIP3    H179030   5.144   6.504  13.393 -1.0166 -0.5490  1.3815
19205TIP3    H279031   5.196   6.379  13.326  0.1297  0.6683 -0.0267
19206TIP3   OH279032   4.699   3.460   4.049  0.3645 -0.4922  0.0127
19206TIP3    H179033   4.755   3.409   4.107  0.7426 -0.6631 -0.4911
19206TIP3    H279034   4.618   3.474   4.098 -0.2875 -2.7949 -0.3459
19207TIP3   OH279035   0.684   5.216   2.064 -0.4881 -0.3421  0.2598
19207TIP3    H179036   0.707   5.189   1.975 -0.8800 -1.5210  0.4929
19207TIP3    H279037   0.743   5.287   2.085  1.1475 -1.5620 -0.1176
19208TIP3   OH279038   5.394   5.157  17.095 -0.2574 -0.9423 -0.2894
19208TIP3    H179039   5.314   5.105  17.105 -0.6361 -0.5865 -1.4943
19208TIP3    H279040   5.422   5.141  17.005  0.0003  0.4219 -0.4474
19209TIP3   OH279041   1.039   2.239  12.792  0.0308 -0.2900  0.6028
19209TIP3    H179042   0.985   2.237  12.712  0.1124  0.5425  0.5290
19209TIP3    H279043   1.005   2.166  12.844  1.9693 -2.7576 -1.4744
19210TIP3   OH279044   2.269   3.207  10.381  0.0705  0.2735  0.3535
19210TIP3    H179045   2.233   3.121  10.402 -3.2016  1.4374 -0.0960
19210TIP3    H279046   2.350   3.189  10.334  0.2181 -2.5138  1.5819
19211TIP3   OH279047   0.957   4.007  13.852  0.2785 -0.1433  0.0133
19211TIP3    H179048   1.010   3.928  13.844 -1.1876 -1.0072 -1.2393
19211TIP3    H279049   0.971   4.054  13.770  1.2157  0.9639  0.7863
19212TIP3   OH279050   5.585   2.331  12.347  0.0595 -0.8053 -0.2410
19212TIP3    H179051   5.635   2.268  12.400  0.9471  1.3240  1.5853
19212TIP3    H279052   5.516   2.361  12.406  2.0350  2.8188  0.4186
19213TIP3   OH279053   4.300   6.584  14.796 -0.4234 -0.3009 -0.0162
19213TIP3    H179054   4.335   6.674  14.793  0.7572 -0.8010 -3.3135
19213TIP3    H279055   4.365   6.536  14.848 -0.4537  0.4995  0.7827
19214TIP3   OH279056   3.223   0.800   4.474 -0.2529 -0.2026 -0.0085
19214TIP3    H179057   3.275   0.820   4.552 -1.1313 -1.1283  0.8405
19214TIP3    H279058   3.146   0.754   4.508  0.5504 -2.8971 -1.6433
19215TIP3   OH279059   0.226   1.281  13.514  0.6742  0.1211 -0.6222
19215TIP3    H179060   0.218   1.307  13.606  0.5612 -3.7344  0.5604
19215TIP3    H279061   0.318   1.258  13.504  0.4662 -0.5132 -1.1258
19216TIP3   OH279062   2.969   0.915  12.657  0.6140  0.4111  0.0218
19216TIP3    H179063   2.912   0.946  12.587  2.4774  1.1667 -1.1954
19216TIP3    H279064   2.951   0.821  12.662  1.0619  0.1861 -2.0589
19217TIP3   OH279065   2.945   5.804   1.425 -0.1203  0.2153  0.2973
19217TIP3    H179066   3.002   5.813   1.502  0.6778  2.6106 -0.5150
19217TIP3    H279067   3.002   5.767   1.358 -0.0688  0.6660  0.0887
19218TIP3   OH279068   3.123   2.160  11.366  0.6735 -0.0251 -0.9155
19218TIP3    H179069   3.051   2.145  11.427  0.9027  3.7896  0.4744
19218TIP3    H279070   3.165   2.075  11.354 -0.9259 -1.2985  2.3017
19219TIP3   OH279071   2.949   2.573  15.146  0.0182  0.0445 -0.4973
19219TIP3    H179072   2.944   2.667  15.130  0.5447  0.0566 -0.6269
19219TIP3    H279073   2.992   2.565  15.231 -0.2199 -0.0753 -0.3892
19220TIP3   OH279074   6.517   1.861  14.893 -0.1696 -0.2440 -0.3054
19220TIP3    H179075   6.546   1.951  14.908 -1.8739  0.3492 -0.4527
19220TIP3    H279076   6.424   1.869  14.871 -0.5753 -2.1291  0.6386
19221TIP3   OH279077   6.057   5.372  13.293  0.2656 -0.1763 -0.4947
19221TIP3    H179078   6.021   5.291  13.331 -0.1674  0.7748  1.1492
19221TIP3    H279079   6.119   5.404  13.359  1.1652  0.3350 -1.5667
19222TIP3   OH279080   3.761   1.814  13.264  0.3441 -0.1119  0.6188
19222TIP3    H179081   3.728   1.728  13.241  0.9518 -0.2027  0.0823
19222TIP3    H279082   3.686   1.873  13.253  0.0604 -0.4970  0.5195
19223TIP3   OH279083   4.585   5.957   6.237 -0.2396 -0.2380  0.3839
19223TIP3    H179084   4.675   5.974   6.211 -0.5886  2.0778  0.5247
19223TIP3    H279085   4.551   6.043   6.262 -2.3006 -1.1696  0.9060
19224TIP3   OH279086   3.850   4.329   5.357 -0.7349 -0.5735  0.0535
19224TIP3    H179087   3.793   4.284   5.420  0.6107 -1.2767  0.8014
19224TIP3    H279088   3.926   4.271   5.348 -0.4390  0.0347 -1.4280
19225TIP3   OH279089   3.386   5.483  12.532  0.3862 -0.0689  0.2971
19225TIP3    H179090   3.394   5.389  12.548 -0.9408  0.0291  1.6096
19225TIP3    H279091   3.410   5.493  12.440  2.5098 -1.4157  0.6386
19226TIP3   OH279092   4.695   5.925   0.555 -0.1817  0.2413 -0.1557
19226TIP3    H179093   4.775   5.940   0.505  0.8794 -0.2025  1.3801
19226TIP3    H279094   4.699   5.833   0.580 -1.4279  0.0857 -0.5042
19227TIP3   OH279095   0.727   3.585  15.909 -0.0678 -0.2109 -0.0578
19227TIP3    H179096   0.742   3.601  16.002 -0.0237  1.9798 -0.4175
19227TIP3    H279097   0.643   3.539  15.906  1.1757 -2.6741  1.2140
19228TIP3   OH279098   6.262   5.605   3.801 -0.2348  0.4315 -0.2150
19228TIP3    H179099   6.262   5.511   3.783  2.7958  0.3272  0.1232
19228TIP3    H279100   6.253   5.611   3.896  2.6002  0.3358  0.0996
19229TIP3   OH279101   0.555   1.699  16.331 -0.3691 -0.0562 -0.2164
19229TIP3    H179102   0.491   1.641  16.372 -0.7912 -0.4678 -1.4406
19229TIP3    H279103   0.640   1.660  16.353 -0.5915 -0.2801  0.2544
19230TIP3   OH279104   5.939   2.545  14.052  0.1036 -0.3914  0.5980
19230TIP3    H179105   5.909   2.620  14.103  0.5809 -0.9749  1.7470
19230TIP3    H279106   5.976   2.485  14.117  0.5786 -1.2069 -0.4165
19231TIP3   OH279107   5.294   4.308   1.457  0.0698  0.4212  0.0454
19231TIP3    H179108   5.367   4.270   1.506  2.6506  2.9328 -1.6713
19231TIP3    H279109   5.217   4.289   1.511  2.1461 -1.0639  2.6561
19232TIP3   OH279110   6.715   5.230  16.025  0.3995 -0.0007 -0.6843
19232TIP3    H179111   6.707   5.222  16.120  0.0414 -2.7826 -0.8991
19232TIP3    H279112   6.629   5.205  15.991  0.8525 -0.1480 -1.7591
19233TIP3   OH279113   5.839   0.751   2.889  0.3900 -0.5489  0.5817
19233TIP3    H179114   5.784   0.706   2.826  1.8429  0.7458 -1.6693
19233TIP3    H279115   5.785   0.824   2.920 -0.8519 -2.0178  1.9685
19234TIP3   OH279116   6.614   6.128  15.396  0.5290  0.0207 -0.0049
19234TIP3    H179117   6.630   6.036  15.373  0.4272 -0.0021  0.0121
19234TIP3    H279118   6.591   6.170  15.313 -0.0680 -0.1111  0.0878
19235TIP3   OH279119   1.658   4.685   4.870 -0.4912 -0.1883  0.4902
19235TIP3    H179120   1.658   4.628   4.793 -0.7512  0.4505  0.0143
19235TIP3    H279121   1.746   4.721   4.873  0.0712 -1.6155  1.5446
19236TIP3   OH279122   4.828   6.624  10.963 -0.0457  0.1979  0.0678
19236TIP3    H179123   4.738   6.594  10.953  0.3096 -1.5270  1.8265
19236TIP3    H279124   4.856   6.646  10.874 -2.0243  0.2625 -0.5476
19237TIP3   OH279125   0.205   4.504   3.208 -0.5718 -0.2105 -0.0748
19237TIP3    H179126   0.177   4.448   3.135 -2.0291  1.6178 -0.9764
19237TIP3    H279127   0.178   4.592   3.181  0.6760  0.7602  1.8080
19238TIP3   OH279128   5.841   4.031  13.829 -0.7675  0.0040 -0.3321
19238TIP3    H179129   5.925   3.985  13.839  0.5543  1.5910 -3.5265
19238TIP3    H279130   5.776   3.968  13.862  1.5150 -1.8226  0.8695
19239TIP3   OH279131   6.471   4.660  10.971 -0.1511  0.4267 -0.6747
19239TIP3    H179132   6.554   4.680  11.015  0.2845 -0.7367 -0.9385
19239TIP3    H279133   6.426   4.601  11.030 -0.7691  0.9909 -0.5758
19240TIP3   OH279134   3.575   3.456  16.148  0.2184  0.6981  0.7481
19240TIP3    H179135   3.507   3.451  16.081  1.0665 -1.0987 -0.0128
19240TIP3    H279136   3.575   3.369  16.188  1.6687  0.8585  1.1238
19241TIP3   OH279137   6.490   2.062   5.760 -0.3759 -0.1474  0.1175
19241TIP3    H179138   6.561   2.121   5.735  0.2822 -0.1268  1.9698
19241TIP3    H279139   6.439   2.052   5.680  1.1369  0.6350 -0.9866
19242TIP3   OH279140   6.225   5.614   6.235 -0.0996 -0.1589  0.0087
19242TIP3    H179141   6.183   5.700   6.243 -0.0266 -0.0490 -0.7442
19242TIP3    H279142   6.159   5.560   6.192 -0.1717 -0.5035  0.5466
19243TIP3   OH279143   2.788   1.075  14.155  0.4751  0.1510  0.2928
19243TIP3    H179144   2.725   1.011  14.188  1.2404 -0.7267  0.0770
19243TIP3    H279145   2.737   1.154  14.139 -0.5316 -0.4978  0.3025
19244TIP3   OH279146   4.456   5.017   0.145  0.1694  0.1244 -0.0390
19244TIP3    H179147   4.494   5.003   0.232  0.1637  1.5528  0.2068
19244TIP3    H279148   4.522   4.985   0.084  0.2888 -0.6329  0.4850
19245TIP3   OH279149   3.346   2.304  13.935 -0.7078 -0.0570  0.2078
19245TIP3    H179150   3.264   2.350  13.956 -1.0899 -1.1374  1.1461
19245TIP3    H279151   3.331   2.214  13.964 -0.2110 -0.9517 -2.2033
19246TIP3   OH279152   0.847   4.039   3.635 -0.1136  0.1392 -0.3530
19246TIP3    H179153   0.854   4.062   3.543 -2.5176 -1.2769 -0.9208
19246TIP3    H279154   0.894   3.956   3.643  0.2769  0.3666 -0.2386
19247TIP3   OH279155   4.157   5.000   2.029 -0.5790  0.0360 -0.4328
19247TIP3    H179156   4.147   5.090   1.996 -1.1453  1.0670  2.4144
19247TIP3    H279157   4.145   5.008   2.123 -0.2057 -3.0010 -0.0930
19248TIP3   OH279158   5.338   6.236  11.084  0.4941  0.1866 -0.6789
19248TIP3    H179159   5.340   6.332  11.083 -1.2454  0.3023  1.3594
19248TIP3    H279160   5.318   6.214  11.175  0.1901 -2.0996 -1.2715
19249TIP3   OH279161   5.798   1.237   0.718  0.1553 -0.0122 -0.1755
19249TIP3    H179162   5.811   1.210   0.809  0.5890  2.1884  0.4310
19249TIP3    H279163   5.833   1.164   0.667 -0.1197 -1.2885  1.4058
19250TIP3   OH279164   0.203   0.519  12.926  0.5497  0.7579 -0.2521
19250TIP3    H179165   0.131   0.581  12.938 -0.2910  0.0036 -1.2253
19250TIP3    H279166   0.272   0.569  12.882  0.1809  1.2120 -0.3150
19251TIP3   OH279167   5.956   3.222  15.289 -0.4997  0.2714 -0.9048
19251TIP3    H179168   5.976   3.316  15.279 -0.3159  0.3780  0.3688
19251TIP3    H279169   5.926   3.195  15.202  0.4025  1.2780 -1.5587
19252TIP3   OH279170   3.401   5.159   6.284  0.1108  0.2857  0.4499
19252TIP3    H179171   3.436   5.128   6.368 -0.1513 -1.7550 -0.1749
19252TIP3    H279172   3.478   5.180   6.232  0.3434 -0.6108  0.4175
19253TIP3   OH279173   1.176   5.364  11.472  0.2332 -0.1989 -0.1538
19253TIP3    H179174   1.214   5.452  11.475 -0.5026  0.1022  0.8904
19253TIP3    H279175   1.093   5.375  11.427 -0.0339 -0.2887  0.3164
19254TIP3   OH279176   4.348   0.061   1.815 -0.0015  0.3348 -0.1450
19254TIP3    H179177   4.384   0.013   1.740 -1.4396  2.1445 -2.0567
19254TIP3    H279178   4.423   0.109   1.851  0.2955  0.9875 -1.6278
19255TIP3   OH279179   2.756   3.208   5.861  0.0645 -0.0148 -0.0629
19255TIP3    H179180   2.684   3.176   5.914  0.2089 -1.5178 -0.7573
19255TIP3    H279181   2.778   3.135   5.804  0.8365  1.1092 -1.2175
19256TIP3   OH279182   3.046   6.388   5.932  0.2144 -0.7126  0.2261
19256TIP3    H179183   2.957   6.362   5.910 -0.0377 -1.2179  1.8645
19256TIP3    H279184   3.038   6.442   6.010  0.9471  2.5758 -1.8212
19257TIP3   OH279185   1.554   5.627   0.251 -0.6761  0.0236  0.0483
19257TIP3    H179186   1.603   5.546   0.267  0.4706  0.8312  0.7536
19257TIP3    H279187   1.541   5.664   0.339  1.5296  2.1589 -0.4768
19258TIP3   OH279188   0.282   6.405  13.130 -0.2788 -0.1635 -0.6083
19258TIP3    H179189   0.359   6.406  13.073  0.7223 -0.0576  0.7216
19258TIP3    H279190   0.304   6.463  13.202 -3.1306  2.9480 -2.1053
19259TIP3   OH279191   0.928   2.902   0.815 -0.3068  0.1504  0.6628
19259TIP3    H179192   0.911   2.996   0.813 -1.4888 -0.0224  1.9486
19259TIP3    H279193   0.995   2.892   0.883 -0.3090  0.0269  0.6469
19260TIP3   OH279194   6.161   1.359  15.729  0.0157 -0.4383  0.5218
19260TIP3    H179195   6.128   1.370  15.819 -0.5634 -0.9261  0.3754
19260TIP3    H279196   6.089   1.387  15.673  0.5252  0.2560  0.2051
19261TIP3   OH279197   4.152   0.568   2.979  0.5599 -0.4199  0.3322
19261TIP3    H179198   4.225   0.565   3.041  0.3574  0.1804  0.6047
19261TIP3    H279199   4.081   0.608   3.029  0.4642  0.2838 -0.3603
19262TIP3   OH279200   2.863   2.411  11.540  0.2234  0.2551 -0.4329
19262TIP3    H179201   2.789   2.471  11.528 -1.6700 -2.0305 -0.4708
19262TIP3    H279202   2.935   2.453  11.493 -1.9048  1.0119 -3.1558
19263TIP3   OH279203   4.742   1.417   4.529  0.3764  0.5962  0.0666
19263TIP3    H179204   4.648   1.407   4.515  0.5100 -0.2457 -0.2158
19263TIP3    H279205   4.777   1.437   4.442  0.6472 -0.4969 -0.0771
19264TIP3   OH279206   0.794   6.729  16.692 -0.3421  0.5038 -0.0297
19264TIP3    H179207   0.700   6.712  16.683  0.0854 -1.5525 -0.9254
19264TIP3    H279208   0.827   6.655  16.743  0.4285  2.4462  2.4020
19265TIP3   OH279209   6.634   4.279   3.790  0.0290 -0.3223  0.0500
19265TIP3    H179210   6.618   4.310   3.701  0.1397 -1.4713 -0.3727
19265TIP3    H279211   6.730   4.280   3.799 -0.0040  0.4028  0.3814
19266TIP3   OH279212   3.686   6.123  14.198  0.6519 -0.5569  0.1812
19266TIP3    H179213   3.765   6.146  14.248 -1.0389 -2.2678  3.8619
19266TIP3    H279214   3.672   6.031  14.218 -2.2120 -0.2873 -0.4943
19267TIP3   OH279215   0.388   1.029  15.106  0.4035 -0.1867  0.6683
19267TIP3    H179216   0.363   1.087  15.179  0.5678 -0.0570  0.6208
19267TIP3    H279217   0.478   1.004  15.125 -0.0113 -1.2818  1.2425
19268TIP3   OH279218   1.078   5.770  13.053  0.9244 -0.2343  0.5173
19268TIP3    H179219   1.060   5.861  13.076 -1.6653 -0.6244  0.0879
19268TIP3    H279220   1.152   5.746  13.109 -0.8903  0.9463  3.5446
19269TIP3   OH279221   5.106   0.593  12.794 -0.2803  0.0220 -0.6812
19269TIP3    H179222   5.019   0.618  12.824 -0.6672 -0.3381 -1.5076
19269TIP3    H279223   5.129   0.517  12.848 -0.9638 -0.6101 -1.2875
19270TIP3   OH279224   3.813   0.312   3.993  0.0896  0.1841 -0.0347
19270TIP3    H179225   3.789   0.262   4.071  0.6058 -1.4505 -0.9012
19270TIP3    H279226   3.759   0.275   3.923  0.5438  0.7737 -0.7061
19271TIP3   OH279227   1.729   1.229   0.086 -0.4657  0.5726 -0.1535
19271TIP3    H179228   1.730   1.141   0.125  0.3446  0.3232 -0.7217
19271TIP3    H279229   1.753   1.287   0.158  1.9701  0.0199 -0.4758
19272TIP3   OH279230   2.378   1.865   0.029  0.5804 -0.3076 -0.2616
19272TIP3    H179231   2.366   1.803  -0.043  0.3121 -1.9087  1.1244
19272TIP3    H279232   2.306   1.927   0.019 -0.4728 -1.5146 -0.3778
19273TIP3   OH279233   6.358   6.038  10.479  0.3085  0.4409 -0.1124
19273TIP3    H179234   6.394   6.125  10.463 -1.6246  1.1689 -0.6668
19273TIP3    H279235   6.263   6.052  10.484  0.0334 -1.5283  0.5077
19274TIP3   OH279236   3.353   3.823  15.390 -0.0791  0.2771 -0.4311
19274TIP3    H179237   3.425   3.765  15.363 -1.1875 -0.7856 -1.1462
19274TIP3    H279238   3.345   3.886  15.319  0.4892  0.7121 -0.1077
19275TIP3   OH279239   4.706   0.909   3.254 -0.0904 -0.2574  0.1822
19275TIP3    H179240   4.699   0.818   3.283  2.2938 -0.3761  0.4547
19275TIP3    H279241   4.759   0.904   3.174 -2.0642  0.6495 -1.2342
19276TIP3   OH279242   2.859   2.382  15.449  0.2978  0.4540  0.2822
19276TIP3    H179243   2.883   2.347  15.535  3.7174  1.3983 -0.2123
19276TIP3    H279244   2.932   2.439  15.425 -1.6105  1.9256 -2.3104
19277TIP3   OH279245   1.761   2.362  10.958  0.0242  0.0713  0.2104
19277TIP3    H179246   1.741   2.435  10.899  1.3520  0.3073  0.0311
19277TIP3    H279247   1.761   2.400  11.046  2.0899  0.6006 -0.0008
19278TIP3   OH279248   6.644   4.322  12.566  0.6037 -0.0672 -0.3880
19278TIP3    H179249   6.710   4.334  12.498  0.3394 -1.8839 -1.0127
19278TIP3    H279250   6.562   4.311  12.518  0.5106 -1.9840  0.1610
19279TIP3   OH279251   4.136   2.397   4.246  0.0363 -0.8653 -0.4283
19279TIP3    H179252   4.092   2.324   4.289 -0.4313 -0.7580 -0.7218
19279TIP3    H279253   4.085   2.474   4.270  1.7360 -0.3166  1.6109
19280TIP3   OH279254   3.097   4.590  15.489 -0.7524 -0.0673 -0.2933
19280TIP3    H179255   3.028   4.644  15.449 -1.7810 -0.9239  0.2995
19280TIP3    H279256   3.105   4.623  15.578 -1.4063 -0.8921  0.0823
19281TIP3   OH279257   4.983   3.431   1.256  0.1790 -0.2947  0.0942
19281TIP3    H179258   4.915   3.487   1.217  0.4911 -0.1834 -0.2894
19281TIP3    H279259   5.013   3.375   1.184  2.0749  1.1823 -0.3102
19282TIP3   OH279260   4.340   1.300  16.912  0.2509  0.5617  0.1471
19282TIP3    H179261   4.293   1.263  16.837  0.5961  1.0462 -0.3187
19282TIP3    H279262   4.363   1.225  16.966  1.5196  0.0171 -1.1257
19283TIP3   OH279263   0.116   2.713   3.572 -0.0751 -0.3395  0.5841
19283TIP3    H179264   0.127   2.621   3.597  2.0448 -0.8678 -2.0929
19283TIP3    H279265   0.110   2.712   3.477 -0.3769  2.2834  0.5343
19284TIP3   OH279266   6.615   0.685   2.276 -0.3879  0.3846 -0.7481
19284TIP3    H179267   6.576   0.659   2.193 -1.4729  0.9837 -0.4456
19284TIP3    H279268   6.576   0.770   2.295 -0.3390  0.1508  0.4833
19285TIP3   OH279269   1.024   2.963  12.438 -0.2125 -0.4460  0.3463
19285TIP3    H179270   0.996   2.873  12.422 -1.6137 -0.0804  0.6927
19285TIP3    H279271   1.108   2.954  12.483 -0.8344 -1.6142  1.3181
19286TIP3   OH279272   5.176   2.900  13.029  0.1814  0.6434 -0.0515
19286TIP3    H179273   5.235   2.967  13.062  0.4960  0.4877 -0.2888
19286TIP3    H279274   5.163   2.840  13.103  1.4329 -0.0829 -0.4046
19287TIP3   OH279275   2.846   0.838  14.649 -0.3663  0.1914 -0.2853
19287TIP3    H179276   2.850   0.759  14.595 -1.8458 -0.3315  0.3601
19287TIP3    H279277   2.792   0.814  14.724 -0.4893  1.6962  0.1368
19288TIP3   OH279278   3.255   0.083   1.121 -0.1199 -0.2320 -0.3386
19288TIP3    H179279   3.258   0.176   1.145 -0.3046 -0.8802  2.2932
19288TIP3    H279280   3.163   0.068   1.099 -0.4013 -0.1601  0.7737
19289TIP3   OH279281   2.646   1.541  13.055  0.2655 -0.2157 -0.3070
19289TIP3    H179282   2.600   1.534  13.138  0.1531  0.9056 -0.2734
19289TIP3    H279283   2.664   1.450  13.030 -1.9248 -0.6787 -0.3051
19290TIP3   OH279284   6.196   6.191   4.445  0.2590  0.3768 -0.5057
19290TIP3    H179285   6.174   6.136   4.369  0.5985  0.5445 -0.7290
19290TIP3    H279286   6.112   6.208   4.487  0.0776  0.2031 -0.7930
19291TIP3   OH279287   2.394   5.199   5.957 -0.6278 -0.1267  0.4566
19291TIP3    H179288   2.484   5.230   5.955 -1.1933  1.5619  1.2562
19291TIP3    H279289   2.355   5.234   5.876 -0.9675  0.3608  0.8304
19292TIP3   OH279290   0.363   1.665  12.503  0.2800 -0.3720 -0.0222
19292TIP3    H179291   0.366   1.622  12.418  0.5321  1.1725 -0.8120
19292TIP3    H279292   0.433   1.730  12.499 -0.7291  0.7823  0.7663
19293TIP3   OH279293   1.056   1.893  13.665 -0.0999 -0.3669 -0.0996
19293TIP3    H179294   0.987   1.831  13.690  0.1568 -0.1341  1.2189
19293TIP3    H279295   1.037   1.914  13.574 -0.0785 -2.5351 -0.6383
19294TIP3   OH279296   0.733   0.246  14.395 -0.1290 -0.0458  0.0683
19294TIP3    H179297   0.748   0.183  14.466  1.8992 -1.1393 -1.2810
19294TIP3    H279298   0.698   0.194  14.323 -1.8511  1.0009  0.1320
19295TIP3   OH279299   1.491   5.598  11.922  0.1032 -0.1177 -0.2766
19295TIP3    H179300   1.504   5.565  12.011  1.1962 -1.3506 -0.8901
19295TIP3    H279301   1.432   5.535  11.881 -2.9001  2.0482  0.4718
19296TIP3   OH279302   3.853   0.847   1.584 -0.3091  0.1946 -0.4550
19296TIP3    H179303   3.789   0.792   1.539 -0.8331 -0.3688  0.9492
19296TIP3    H279304   3.938   0.810   1.559 -0.5733  0.1334 -1.2869
19297TIP3   OH279305   0.700   0.978  14.911 -0.2318  0.6164  0.0728
19297TIP3    H179306   0.718   0.951  15.001 -0.5795 -0.3933 -0.1556
19297TIP3    H279307   0.639   1.051  14.920 -0.5971  0.2415  0.6310
19298TIP3   OH279308   5.668   5.023   4.082 -1.1982 -0.1026  0.2361
19298TIP3    H179309   5.609   4.978   4.021 -0.8165 -0.6458  0.2706
19298TIP3    H279310   5.753   4.982   4.068 -0.8687  0.5295  0.3470
19299TIP3   OH279311   2.513   0.179  16.378 -0.3376  0.2813 -0.1891
19299TIP3    H179312   2.532   0.254  16.435 -0.0178  1.4787 -1.8401
19299TIP3    H279313   2.421   0.189  16.355  0.0780  0.9846 -1.5755
19300TIP3   OH279314   0.618   1.892  14.918  0.0912  0.5755 -0.0819
19300TIP3    H179315   0.646   1.843  14.840 -0.8596 -1.3900  0.7620
19300TIP3    H279316   0.687   1.877  14.982 -0.4236 -0.1007  0.3330
19301TIP3   OH279317   3.154   5.774   1.254 -0.7227 -0.8414 -0.4415
19301TIP3    H179318   3.199   5.697   1.219  1.3527  0.2876 -0.3374
19301TIP3    H279319   3.206   5.848   1.224 -3.4242  0.6482 -1.6660
19302TIP3   OH279320   5.320   2.086   2.178  0.3480 -0.6002  0.0987
19302TIP3    H179321   5.309   1.991   2.182  1.2624 -0.6930  0.7079
19302TIP3    H279322   5.415   2.099   2.178  0.2308  0.2879 -0.7674
19303TIP3   OH279323   2.694   6.390  15.319 -0.0597  0.1358  0.3060
19303TIP3    H179324   2.713   6.419  15.230  1.3568  0.6988  0.7920
19303TIP3    H279325   2.675   6.470  15.367 -0.3723 -0.1305  0.6308
19304TIP3   OH279326   3.149   5.588   1.893 -0.4792  0.3201  0.1125
19304TIP3    H179327   3.086   5.640   1.943 -1.9895 -1.3361 -0.0339
19304TIP3    H279328   3.135   5.613   1.802  0.3036  1.2265  0.2262
19305TIP3   OH279329   1.252   2.395   4.193 -0.0265 -0.2467 -0.0716
19305TIP3    H179330   1.298   2.330   4.247  0.8582  1.4594  1.3047
19305TIP3    H279331   1.212   2.454   4.256 -0.6515  0.6611 -1.3002
19306TIP3   OH279332   3.150   5.111  16.159 -0.2259  0.1036 -0.4655
19306TIP3    H179333   3.137   5.068  16.243  0.4311  1.4440  0.3429
19306TIP3    H279334   3.230   5.163  16.170 -1.4211  2.1430 -1.1260
19307TIP3   OH279335   2.745   5.363  12.144 -0.4973  0.7640 -0.3743
19307TIP3    H179336   2.726   5.280  12.188 -0.8369  1.1803  0.2813
19307TIP3    H279337   2.793   5.414  12.209 -2.6993  2.1274  0.2297
19308TIP3   OH279338   5.263   1.283  11.889 -0.0725  0.4856  0.4399
19308TIP3    H179339   5.336   1.233  11.851 -1.2261 -1.8274  1.2000
19308TIP3    H279340   5.300   1.370  11.904  1.9041 -0.0251 -1.1768
19309TIP3   OH279341   5.055   5.038   4.232  0.6097 -0.3515  0.2374
19309TIP3    H179342   5.003   4.996   4.301 -0.1908  0.8626  0.3939
19309TIP3    H279343   5.038   4.985   4.154  0.3590 -0.8782  0.6455
19310TIP3   OH279344   4.211   6.693   2.385 -0.3752  0.1362 -0.3151
19310TIP3    H179345   4.282   6.718   2.326  1.0380  0.5791  1.4938
19310TIP3    H279346   4.148   6.647   2.330  2.5103 -2.5361 -1.5546
19311TIP3   OH279347   1.637   1.774  14.494  0.2071 -0.5990  0.2570
19311TIP3    H179348   1.714   1.795  14.547 -0.1785  2.0629 -0.1731
19311TIP3    H279349   1.666   1.786  14.404 -0.4763 -0.4357  0.0545
19312TIP3   OH279350   0.006   2.891  13.937 -0.1578  0.1853  0.0932
19312TIP3    H179351   0.087   2.894  13.887 -0.8806  0.7456 -1.0698
19312TIP3    H279352  -0.041   2.970  13.911 -0.2823  0.7961  2.1147
19313TIP3   OH279353   3.174   6.686   4.493 -0.1050 -0.7706 -0.2566
19313TIP3    H179354   3.113   6.679   4.420 -1.5567  1.7226  0.6560
19313TIP3    H279355   3.254   6.643   4.463 -0.6529  0.2868 -3.3375
19314TIP3   OH279356   6.712   0.024   1.156 -0.7268 -0.1174  0.2468
19314TIP3    H179357   6.793   0.070   1.133 -1.3486  1.0519  0.3069
19314TIP3    H279358   6.725  -0.004   1.246 -0.3618  0.0047  0.2350
19315TIP3   OH279359   0.107   6.178  15.496  0.2796  0.2523  0.0059
19315TIP3    H179360   0.020   6.138  15.505  1.4563 -2.2605  0.6267
19315TIP3    H279361   0.111   6.207  15.404 -1.2926  0.6418  0.0440
19316TIP3   OH279362   5.840   6.629  13.611 -0.6989 -0.0494  0.1481
19316TIP3    H179363   5.862   6.640  13.519 -2.4635 -0.0094 -0.2688
19316TIP3    H279364   5.916   6.584  13.648 -0.4205 -1.0150 -1.5403
19317TIP3   OH279365   5.580   4.295   0.407  0.3198 -0.0444 -0.2124
19317TIP3    H179366   5.541   4.364   0.461  1.4230 -0.8246  1.6305
19317TIP3    H279367   5.519   4.222   0.415  0.3012 -0.0405 -0.3221
19318TIP3   OH279368   1.427   0.905  15.228  0.4213 -0.4674 -0.0582
19318TIP3    H179369   1.494   0.890  15.294 -0.9167 -2.1619  0.9509
19318TIP3    H279370   1.344   0.895  15.274 -0.5451 -0.5466 -1.7496
19319TIP3   OH279371   3.407   3.838   0.893 -0.7190  0.4560 -0.1995
19319TIP3    H179372   3.466   3.893   0.944 -2.1563  1.3442  0.5559
19319TIP3    H279373   3.375   3.895   0.823 -0.7017 -0.0084 -0.5903
19320TIP3   OH279374   0.461   0.489   3.508 -0.2877 -0.3012 -0.6277
19320TIP3    H179375   0.556   0.483   3.522  0.1520 -0.3030 -3.2364
19320TIP3    H279376   0.437   0.406   3.468 -1.4687 -0.4148  0.2940
19321TIP3   OH279377   2.094   4.497  12.017  0.4836  0.4622  0.4436
19321TIP3    H179378   2.093   4.477  12.110  0.2977 -0.0892  0.3205
19321TIP3    H279379   2.161   4.565  12.008  0.3501  0.6711  1.0083
19322TIP3   OH279380   2.383   1.092  14.997  0.3506 -0.1547 -0.2771
19322TIP3    H179381   2.316   1.023  14.994  1.1899 -1.0129  0.2412
19322TIP3    H279382   2.334   1.174  14.995 -0.6877 -0.7696 -0.4389
19323TIP3   OH279383   3.395   6.661  15.478  0.6299 -0.5668 -0.4593
19323TIP3    H179384   3.314   6.691  15.517  0.7145 -0.0790 -0.6580
19323TIP3    H279385   3.368   6.609  15.403  0.5387  1.5938 -1.9645
19324TIP3   OH279386   3.170   6.671   1.577 -0.0913  0.0248  0.0492
19324TIP3    H179387   3.089   6.717   1.597 -1.1009 -1.9656  0.7297
19324TIP3    H279388   3.155   6.632   1.491  0.1975 -0.1963  0.0968
19325TIP3   OH279389   1.132   6.379   2.743 -0.4449 -0.5380 -0.0150
19325TIP3    H179390   1.105   6.470   2.753  0.4515 -0.4335  1.5384
19325TIP3    H279391   1.224   6.383   2.717 -0.8652 -0.9708 -1.5947
19326TIP3   OH279392   6.142   4.929   0.780  1.0170  0.3826 -0.1297
19326TIP3    H179393   6.229   4.954   0.749  1.1959  0.3389  0.3334
19326TIP3    H279394   6.084   4.945   0.705  0.7050  4.5144  0.8552
19327TIP3   OH279395   3.680   0.656   4.636 -0.4527  0.5352  0.3768
19327TIP3    H179396   3.767   0.646   4.674  0.1905  1.4790 -0.8151
19327TIP3    H279397   3.685   0.612   4.552 -1.4968 -0.4343  0.7974
19328TIP3   OH279398   5.033   5.672  15.099  0.2018  0.7984 -0.5211
19328TIP3    H179399   4.955   5.668  15.154  0.9792 -0.2333  0.5092
19328TIP3    H279400   5.075   5.755  15.123  0.6030  0.2965  0.5519
19329TIP3   OH279401   3.734   4.859  14.737 -0.0367  0.1117 -0.7612
19329TIP3    H179402   3.663   4.921  14.720  0.8544  1.1153 -0.9325
19329TIP3    H279403   3.697   4.796  14.798 -0.6450  1.4727  0.3101
19330TIP3   OH279404   1.197   6.258  11.785  0.5102  0.5111 -0.6265
19330TIP3    H179405   1.198   6.257  11.690  2.3409  2.5730 -0.6600
19330TIP3    H279406   1.277   6.212  11.811  0.0678  0.0390 -0.0871
19331TIP3   OH279407   4.791   4.097  17.161 -0.1664  0.0315  0.4569
19331TIP3    H179408   4.835   4.181  17.170 -0.1094 -0.1264  1.7611
19331TIP3    H279409   4.714   4.116  17.107  0.2057  0.7797  0.1834
19332TIP3   OH279410   0.806   6.088   3.793 -0.1270  0.1161 -0.3826
19332TIP3    H179411   0.815   6.001   3.754 -1.3309 -0.0007 -0.3998
19332TIP3    H279412   0.812   6.148   3.718  1.6700  0.1209 -0.2671
19333TIP3   OH279413   5.663   6.539  16.657  0.9565  0.4843  0.1359
19333TIP3    H179414   5.584   6.511  16.610  0.4052  0.8669  0.8299
19333TIP3    H279415   5.734   6.528  16.593  0.4556 -0.5913 -0.2471
19334TIP3   OH279416   4.188   4.031  13.737  0.3088 -0.0392  0.4663
19334TIP3    H179417   4.262   3.989  13.782  0.9037  0.9946  0.4545
19334TIP3    H279418   4.226   4.107  13.693 -0.5228 -0.2684 -0.6701
19335TIP3   OH279419   4.505   1.568   1.157  0.2313 -0.5288 -0.3219
19335TIP3    H179420   4.539   1.603   1.240 -0.5303 -0.3732 -0.0653
19335TIP3    H279421   4.415   1.602   1.153 -0.1471 -1.5643 -0.6015
19336TIP3   OH279422   1.971   4.451  11.097 -0.5236 -0.3333 -0.1267
19336TIP3    H179423   2.029   4.375  11.089 -0.4186  0.0138 -3.7975
19336TIP3    H279424   1.905   4.437  11.029 -2.1888  1.4414  1.0919
19337TIP3   OH279425   6.104   6.405   0.812 -0.0381  0.4747 -0.6056
19337TIP3    H179426   6.115   6.336   0.746  0.1897  1.3724 -1.5316
19337TIP3    H279427   6.173   6.469   0.791 -1.0107  1.5723 -0.5451
19338TIP3   OH279428   2.058   2.069   0.208  0.2416  0.5938 -0.1190
19338TIP3    H179429   2.084   2.087   0.117 -1.7238  0.3105 -0.7669
19338TIP3    H279430   2.059   1.973   0.214 -2.9801  0.4397 -0.9292
19339TIP3   OH279431   3.628   2.295   0.095 -0.8042  0.0753  0.1546
19339TIP3    H179432   3.605   2.327   0.008 -0.7153  0.0093  0.1078
19339TIP3    H279433   3.627   2.199   0.086  2.4584  0.0457 -0.6428
19340TIP3   OH279434   4.468   6.595   0.724  0.1720 -0.2164 -0.1279
19340TIP3    H179435   4.502   6.529   0.664  1.3964  0.6645 -0.4177
19340TIP3    H279436   4.451   6.548   0.805 -0.5193 -1.2096 -0.8505
19341TIP3   OH279437   4.600   6.157   4.463  0.1024  0.0026  0.6099
19341TIP3    H179438   4.532   6.121   4.406  0.8630 -0.2998 -0.1126
19341TIP3    H279439   4.605   6.250   4.441 -0.5703  0.1741  1.1675
19342TIP3   OH279440   3.255   2.780  16.245  0.2195  0.0414 -0.1725
19342TIP3    H179441   3.236   2.840  16.173  1.0089  0.4017 -0.0886
19342TIP3    H279442   3.193   2.803  16.314  0.7297  0.9832 -0.0171
19343TIP3   OH279443   0.213   5.147  12.104 -0.0508  0.0133  0.6238
19343TIP3    H179444   0.218   5.226  12.159 -0.2107  1.0817 -0.8495
19343TIP3    H279445   0.125   5.112  12.120  0.5956 -0.7693  2.4880
19344TIP3   OH279446   6.248   5.522   3.097 -0.0175 -0.5663 -0.0148
19344TIP3    H179447   6.156   5.499   3.113 -0.3167 -0.0069 -0.8862
19344TIP3    H279448   6.244   5.603   3.046  0.9534 -0.6595 -0.2499
19345TIP3   OH279449   1.806   5.277   5.837 -0.1243 -0.0824  0.0212
19345TIP3    H179450   1.894   5.244   5.816 -0.3656 -0.4941 -0.3534
19345TIP3    H279451   1.821   5.340   5.907  0.1496 -2.3535  2.0733
19346TIP3   OH279452   0.299   5.576  15.026 -0.2500 -1.1179  0.0109
19346TIP3    H179453   0.387   5.566  15.064  0.4694 -1.3621 -1.6795
19346TIP3    H279454   0.291   5.505  14.963 -0.5964  0.4778 -1.8031
19347TIP3   OH279455   5.213   2.593   1.841 -0.0235  0.7017  0.2880
19347TIP3    H179456   5.248   2.513   1.801 -0.3443  1.6353 -1.9278
19347TIP3    H279457   5.123   2.570   1.865  0.9676 -0.6564  2.9033
19348TIP3   OH279458   5.943   1.607  15.648 -0.4450 -0.4005 -0.0223
19348TIP3    H179459   6.038   1.608  15.642 -0.4545 -2.1471 -0.9444
19348TIP3    H279460   5.914   1.681  15.595  0.3313 -1.2166 -1.5895
19349TIP3   OH279461   4.933   4.079   0.566  0.2006 -0.1910  0.6718
19349TIP3    H179462   4.874   4.010   0.597 -0.3486 -0.0479 -0.0450
19349TIP3    H279463   5.021   4.048   0.591 -0.1018 -0.8024  0.9945
19350TIP3   OH279464   3.313   4.430  13.633  0.4965 -0.3778 -0.2380
19350TIP3    H179465   3.389   4.444  13.690  0.6335 -2.6982  0.2237
19350TIP3    H279466   3.242   4.405  13.693 -0.3601  0.7951 -0.7587
19351TIP3   OH279467   3.882   0.394  16.111  0.0206  0.3148  0.4991
19351TIP3    H179468   3.945   0.341  16.160 -0.6401 -0.4337  0.5355
19351TIP3    H279469   3.872   0.474  16.163 -1.9326 -1.1465  2.4652
19352TIP3   OH279470   2.645   2.339   2.212 -0.1495 -0.1747 -0.6028
19352TIP3    H179471   2.553   2.321   2.227 -0.5335  1.1126 -1.3310
19352TIP3    H279472   2.691   2.282   2.273 -1.5022  1.1302  1.7058
19353TIP3   OH279473   5.607   0.258   5.893  0.3393  0.3340 -0.2890
19353TIP3    H179474   5.535   0.301   5.939 -1.3272 -1.7494 -0.8593
19353TIP3    H279475   5.616   0.173   5.936  2.4770  0.5647 -0.2298
19354TIP3   OH279476   5.529   2.141  17.059  0.3879 -0.1169  0.3988
19354TIP3    H179477   5.604   2.082  17.066  1.3002  0.9152 -0.6205
19354TIP3    H279478   5.544   2.191  16.979 -0.1881  1.7966  1.4486
19355TIP3   OH279479   4.969   5.807  11.861  0.4165  0.5216 -0.3469
19355TIP3    H179480   4.903   5.805  11.929  2.2638  0.4397  1.5061
19355TIP3    H279481   5.017   5.888  11.877 -0.1755  1.3449 -2.6009
19356TIP3   OH279482   0.243   2.487   5.785 -0.4677  0.3382  0.7473
19356TIP3    H179483   0.156   2.518   5.757 -0.4198  1.0871  1.3850
19356TIP3    H279484   0.240   2.393   5.773 -0.8079  0.5338 -0.7705
19357TIP3   OH279485   2.628   0.747   3.075 -0.2123 -0.2316 -0.2530
19357TIP3    H179486   2.681   0.790   3.008  0.8008 -0.1959  0.5493
19357TIP3    H279487   2.591   0.671   3.031  2.9466 -1.9784 -0.0930
19358TIP3   OH279488   0.676   2.718   4.869  0.0782  0.3989 -0.4436
19358TIP3    H179489   0.688   2.769   4.789  0.3269 -0.2400 -0.8250
19358TIP3    H279490   0.711   2.773   4.939  0.3640  0.7400 -0.8513
19359TIP3   OH279491   2.668   4.231  11.702 -0.1704  0.0366  0.4925
19359TIP3    H179492   2.660   4.190  11.616  0.1669 -1.2224  1.0534
19359TIP3    H279493   2.596   4.293  11.705  0.7926  1.3176 -1.3566
19360TIP3   OH279494   5.767   2.254  12.697  0.6423  0.0058 -0.0789
19360TIP3    H179495   5.785   2.198  12.622  1.5653  0.1789  0.0157
19360TIP3    H279496   5.816   2.334  12.679  1.9131 -0.4440  1.3229
19361TIP3   OH279497   4.656   6.285  14.655 -0.3977 -0.4850  0.0002
19361TIP3    H179498   4.614   6.202  14.679 -2.5988  1.2773  2.5629
19361TIP3    H279499   4.734   6.288  14.711  0.6597 -1.5784 -1.3635
19362TIP3   OH279500   0.487   6.617  16.971 -0.3467 -0.0655  0.0059
19362TIP3    H179501   0.539   6.697  16.965  0.7810 -0.9347 -2.2888
19362TIP3    H279502   0.408   6.636  16.919 -1.7523  0.7581  2.3410
19363TIP3   OH279503   2.599   1.917  14.640  0.0464 -0.5328 -0.3110
19363TIP3    H179504   2.643   1.901  14.557  0.6646 -0.3915 -0.0164
19363TIP3    H279505   2.648   1.866  14.704  0.4324  0.4432  0.1927
19364TIP3   OH279506   3.841   6.638   5.282 -0.1280 -0.4743 -0.1522
19364TIP3    H179507   3.877   6.723   5.255  0.3728 -0.4297  0.6246
19364TIP3    H279508   3.841   6.642   5.378 -0.8957 -1.0260 -0.1301
19365TIP3   OH279509   4.355   0.441  12.315  0.7563  0.3025 -0.0856
19365TIP3    H179510   4.388   0.518  12.363  1.4015 -0.0994  0.1278
19365TIP3    H279511   4.289   0.476  12.255  1.6780  1.1586 -0.6158
19366TIP3   OH279512   2.484   4.081  17.097 -0.4269 -0.2856 -0.6808
19366TIP3    H179513   2.451   4.129  17.173  1.4058  0.4057 -0.3199
19366TIP3    H279514   2.421   4.010  17.085 -1.0984 -0.0036  1.0601
19367TIP3   OH279515   1.659   5.970  13.494  0.0962  0.2626  0.3265
19367TIP3    H179516   1.657   5.904  13.425  0.4163  2.2731 -1.6463
19367TIP3    H279517   1.696   5.924  13.570  0.2017 -1.8357 -0.9628
19368TIP3   OH279518   1.831   1.819   4.708 -0.1744  0.4005 -0.0289
19368TIP3    H179519   1.785   1.901   4.726  0.8089  1.1083 -0.6572
19368TIP3    H279520   1.843   1.820   4.613 -0.0641 -0.4259 -0.0244
19369TIP3   OH279521   5.289   4.130  11.578  0.2059  0.7284  0.3229
19369TIP3    H179522   5.253   4.218  11.585  0.4040  0.8024  0.4355
19369TIP3    H279523   5.372   4.142  11.532 -0.4192  0.4220 -0.9060
19370TIP3   OH279524   1.651   0.092  12.172  0.2529 -0.4970 -0.0696
19370TIP3    H179525   1.555   0.093  12.175  0.2571 -0.2564  0.0298
19370TIP3    H279526   1.676   0.184  12.166  0.4646 -0.5921 -0.6919
19371TIP3   OH279527   4.094   4.968  14.489 -0.0873 -0.8894 -0.4780
19371TIP3    H179528   4.148   4.933  14.418 -0.6957 -0.6031 -1.0767
19371TIP3    H279529   4.121   5.059  14.497 -3.1079  0.3670 -3.3346
19372TIP3   OH279530   4.865   5.223   1.628 -0.0791 -0.2837  0.3030
19372TIP3    H179531   4.778   5.187   1.612 -0.4119  0.0695  1.2556
19372TIP3    H279532   4.915   5.202   1.549 -0.7497 -1.3525  0.1459
19373TIP3   OH279533   3.847   4.462   3.793  0.0577 -0.5399  0.6876
19373TIP3    H179534   3.887   4.501   3.870  1.1673  0.1472 -0.2200
19373TIP3    H279535   3.902   4.386   3.773  0.3498 -0.1561  0.0128
19374TIP3   OH279536   4.664   3.268  12.635  0.6599 -0.4106  0.0418
19374TIP3    H179537   4.726   3.340  12.621 -0.6338  0.7076 -0.0583
19374TIP3    H279538   4.640   3.239  12.547  0.0991 -0.0042  0.0555
19375TIP3   OH279539   0.924   2.340  11.361  0.3801 -0.0247  0.0599
19375TIP3    H179540   0.960   2.289  11.433 -0.5340 -2.6939 -1.3287
19375TIP3    H279541   0.996   2.347  11.298  0.5086  0.4296  0.2549
19376TIP3   OH279542   5.479   0.241   4.339 -0.0599 -0.1558 -0.0862
19376TIP3    H179543   5.506   0.159   4.382  1.0654  0.5140  0.5150
19376TIP3    H279544   5.535   0.247   4.262 -1.6197 -1.0186 -1.3010
19377TIP3   OH279545   1.137   6.479  13.994  0.0856 -0.2820  0.4164
19377TIP3    H179546   1.154   6.537  14.068  0.7445 -1.9614  1.6203
19377TIP3    H279547   1.218   6.480  13.943 -0.1581  0.4035  0.0348
19378TIP3   OH279548   2.307   1.351   0.205  0.2984  0.1896 -0.0281
19378TIP3    H179549   2.374   1.408   0.242 -0.1877  0.1950  0.8656
19378TIP3    H279550   2.331   1.263   0.235 -0.7291  0.3333  1.2898
19379TIP3   OH279551   4.882   2.504  11.896  0.7221  0.0648  0.0233
19379TIP3    H179552   4.836   2.422  11.876  2.6946 -1.2010  0.5259
19379TIP3    H279553   4.937   2.519  11.820 -0.7303  1.7582 -0.7204
19380TIP3   OH279554   0.244   3.852  14.053  0.3131 -0.2191  0.1338
19380TIP3    H179555   0.252   3.829  13.960 -0.0830  0.7535 -0.1579
19380TIP3    H279556   0.269   3.773  14.100  1.3965 -0.4427 -0.7998
19381TIP3   OH279557   6.262   0.778   2.360  0.1908  0.2091 -0.1142
19381TIP3    H179558   6.204   0.841   2.402 -2.0677 -2.1970  0.5106
19381TIP3    H279559   6.337   0.830   2.330 -1.4151  3.0797  0.7077
19382TIP3   OH279560   5.096   1.143  16.604  0.6413 -0.5855  0.3469
19382TIP3    H179561   5.017   1.136  16.551  1.3615  0.8859 -0.9431
19382TIP3    H279562   5.133   1.054  16.604  1.0628 -0.4450 -2.3018
19383TIP3   OH279563   0.671   1.432   2.057 -0.1794  0.1879 -0.3081
19383TIP3    H179564   0.596   1.428   1.998  0.3921 -1.0112 -0.9643
19383TIP3    H279565   0.673   1.346   2.099  0.3381  0.5029  0.3189
19384TIP3   OH279566   6.040   6.502  14.069 -0.0363  0.4732 -0.1976
19384TIP3    H179567   6.017   6.514  14.161  1.1288  1.8565 -0.0717
19384TIP3    H279568   6.135   6.512  14.066  0.4021 -3.0412 -1.0342
19385TIP3   OH279569   5.047   0.255   5.910  0.6250  0.4644 -0.0632
19385TIP3    H179570   5.023   0.247   6.002 -1.3141 -0.1389 -0.6193
19385TIP3    H279571   4.990   0.323   5.875 -1.3776 -1.9951 -1.7402
19386TIP3   OH279572   1.545   2.722   4.703  0.7512 -0.1970 -0.8376
19386TIP3    H179573   1.640   2.729   4.713  0.6489 -1.4089  1.2110
19386TIP3    H279574   1.520   2.802   4.657  2.7752  0.0884 -1.4884
19387TIP3   OH279575   4.610   4.735  12.855  0.1747 -0.1395  0.3036
19387TIP3    H179576   4.609   4.651  12.810 -1.5249  0.0921 -0.1502
19387TIP3    H279577   4.533   4.734  12.912  0.2137  1.0346  0.4079
19388TIP3   OH279578   5.275   2.510  12.429  0.0493 -0.3552  0.2633
19388TIP3    H179579   5.243   2.598  12.450 -0.7850 -0.4877 -0.4086
19388TIP3    H279580   5.345   2.494  12.492 -2.0376 -0.5570  2.5841
19389TIP3   OH279581   4.529   3.476  15.223  0.4521 -0.1267  0.3373
19389TIP3    H179582   4.573   3.445  15.144 -0.1743 -1.0429  0.3380
19389TIP3    H279583   4.466   3.540  15.191 -1.3165 -2.0566 -0.1868
19390TIP3   OH279584   2.487   1.515   3.470 -0.5070 -0.4804 -0.3674
19390TIP3    H179585   2.469   1.422   3.455 -0.8683 -0.7567  1.6803
19390TIP3    H279586   2.546   1.517   3.545  1.8170  0.8334 -2.1365
19391TIP3   OH279587   1.282   3.661  16.075 -0.7925  0.0789  0.1473
19391TIP3    H179588   1.232   3.721  16.131  0.6624 -0.0883  1.6663
19391TIP3    H279589   1.272   3.576  16.116  0.5725  0.0094  0.3649
19392TIP3   OH279590   4.370   6.029   3.856 -0.1398 -0.0330 -0.2556
19392TIP3    H179591   4.309   6.038   3.783 -0.1718 -0.5281 -0.2950
19392TIP3    H279592   4.415   6.113   3.860 -2.1504  1.0213  0.9853
19393TIP3   OH279593   3.658   3.293  11.074  0.3962  0.6580 -0.1390
19393TIP3    H179594   3.683   3.214  11.122 -1.9810  0.6000  1.1046
19393TIP3    H279595   3.593   3.263  11.010  0.0124  1.4778 -0.1423
19394TIP3   OH279596   0.243   0.665   1.331  0.3129  0.1282 -0.3370
19394TIP3    H179597   0.167   0.656   1.388  0.5919 -3.4826 -0.4136
19394TIP3    H279598   0.213   0.722   1.260 -1.5982  0.5725  0.7790
19395TIP3   OH279599   4.029   0.750   5.660  0.2013 -0.0533 -0.2110
19395TIP3    H179600   3.998   0.710   5.741  0.7622 -2.1542 -0.9941
19395TIP3    H279601   4.023   0.680   5.595  1.7294  0.9945 -1.5178
19396TIP3   OH279602   2.771   2.198   2.385 -0.6674  0.6305  0.8246
19396TIP3    H179603   2.783   2.233   2.473 -1.1548 -0.3510  1.2858
19396TIP3    H279604   2.704   2.130   2.395 -1.5291  1.2544 -0.4854
19397TIP3   OH279605   1.556   6.502   5.834 -0.5020  0.4963  0.2041
19397TIP3    H179606   1.518   6.560   5.899  0.0151  2.9051 -1.5499
19397TIP3    H279607   1.554   6.553   5.753  0.6591 -1.6766 -1.2416
19398TIP3   OH279608   6.729   1.900   5.585 -0.2506 -0.2438  0.0357
19398TIP3    H179609   6.786   1.977   5.585  2.5840 -2.2447  0.2570
19398TIP3    H279610   6.690   1.899   5.498  0.2853  1.0242 -0.2312
19399TIP3   OH279611   1.115   1.457   3.919 -0.2428  0.2600  0.0037
19399TIP3    H179612   1.055   1.384   3.936  0.0120 -0.4113 -1.8496
19399TIP3    H279613   1.200   1.427   3.951 -0.4151  0.2831  0.4842
19400TIP3   OH279614   1.901   4.267   2.872  0.3735 -0.7199 -0.3620
19400TIP3    H179615   1.851   4.226   2.942  2.2795 -0.2546  1.3223
19400TIP3    H279616   1.991   4.236   2.886  0.9912  0.3284 -1.8846
19401TIP3   OH279617   3.022   0.739   5.775  0.7221 -0.4876 -0.2273
19401TIP3    H179618   2.998   0.820   5.730  2.8924 -0.3822 -1.2550
19401TIP3    H279619   3.113   0.752   5.800  1.0562 -2.5796 -0.3174
19402TIP3   OH279620   1.936   3.945   0.753 -0.5968  0.5439 -0.5215
19402TIP3    H179621   1.996   3.976   0.686 -0.5349  0.7992 -0.3481
19402TIP3    H279622   1.852   3.934   0.707 -1.2334  3.2461 -0.0845
19403TIP3   OH279623   1.681   3.358  15.479 -0.5075  0.0585  0.1516
19403TIP3    H179624   1.637   3.308  15.410 -0.5254  0.7044 -0.3105
19403TIP3    H279625   1.682   3.299  15.554  1.4553 -1.4851 -1.0385
19404TIP3   OH279626   2.336   1.848  14.674 -0.5932 -0.3342  0.2661
19404TIP3    H179627   2.291   1.881  14.597 -0.4252 -0.4932  0.1023
19404TIP3    H279628   2.427   1.837  14.647 -0.2480  0.9435  0.8877
19405TIP3   OH279629   5.661   2.966   0.233 -0.0366  0.2507 -0.9934
19405TIP3    H179630   5.701   3.050   0.210 -1.8363  1.4315  0.0308
19405TIP3    H279631   5.679   2.956   0.327  0.6076 -0.7798 -1.2144
19406TIP3   OH279632   4.754   6.350  13.753  0.0746 -0.7054  0.7606
19406TIP3    H179633   4.699   6.273  13.740 -0.7601 -0.0631  0.3341
19406TIP3    H279634   4.843   6.320  13.736  0.1895 -2.3875  4.0263
19407TIP3   OH279635   4.943   4.606  12.601 -0.2645  0.1338 -0.1647
19407TIP3    H179636   4.954   4.562  12.686 -1.3451 -0.6252 -0.4158
19407TIP3    H279637   5.005   4.679  12.604 -0.1723  0.0112  1.2138
19408TIP3   OH279638   0.537   1.381  11.964 -0.0220  0.1377 -0.6422
19408TIP3    H179639   0.479   1.457  11.969 -0.7689 -0.4745  0.2027
19408TIP3    H279640   0.518   1.342  11.878 -0.5662  0.1760 -0.5419
19409TIP3   OH279641   1.470   5.778   4.316 -0.1219  0.9177 -0.1684
19409TIP3    H179642   1.428   5.703   4.359  0.2756  1.4123  1.1043
19409TIP3    H279643   1.564   5.762   4.326 -0.0338  1.9627  0.8042
19410TIP3   OH279644   3.236   1.849   0.151  0.3009 -0.2509  0.3603
19410TIP3    H179645   3.213   1.853   0.244 -1.0618 -0.8195  0.0553
19410TIP3    H279646   3.218   1.759   0.125  1.5086 -0.3240 -0.2600
19411TIP3   OH279647   4.230   0.519  14.018  0.4546  0.2934 -0.3817
19411TIP3    H179648   4.209   0.442  13.966  1.2730  0.3374 -0.7940
19411TIP3    H279649   4.324   0.533  14.003  0.4466  0.9956  0.1813
19412TIP3   OH279650   5.811   2.137  15.237 -0.7610  0.2770 -0.0367
19412TIP3    H179651   5.847   2.114  15.323 -2.6647 -2.1151  0.1669
19412TIP3    H279652   5.783   2.228  15.247  0.6043  0.5669  1.3385
19413TIP3   OH279653   3.640   4.313   0.397 -0.2366  0.2105  0.5065
19413TIP3    H179654   3.637   4.338   0.305  0.7421 -2.0428 -0.1676
19413TIP3    H279655   3.639   4.396   0.444 -4.2587  1.3148 -1.3630
19414TIP3   OH279656   4.810   2.232   3.299  0.3491 -0.8732  0.0432
19414TIP3    H179657   4.784   2.208   3.210 -0.5433 -0.6002  0.2319
19414TIP3    H279658   4.742   2.293   3.329 -0.2689 -2.2637  1.5401
19415TIP3   OH279659   5.599   1.318  10.889 -0.1413 -0.3301  0.0829
19415TIP3    H179660   5.550   1.270  10.956  0.4697 -1.5004 -0.2891
19415TIP3    H279661   5.680   1.268  10.877 -0.1787 -0.0755 -1.4299
19416TIP3   OH279662   6.652   6.185  10.629 -0.5304  0.1566 -0.5540
19416TIP3    H179663   6.635   6.205  10.537 -0.3574  2.6029 -0.0896
19416TIP3    H279664   6.625   6.265  10.676  1.0087 -0.4093  1.3406
19417TIP3   OH279665   0.342   5.739   1.968  0.7221  0.0470 -0.0621
19417TIP3    H179666   0.377   5.731   2.057 -1.5578  0.8681  0.9433
19417TIP3    H279667   0.247   5.744   1.980  0.3765  0.0772 -2.5588
19418TIP3   OH279668   6.120   6.663  13.003 -0.0212 -0.2818 -0.1773
19418TIP3    H179669   6.148   6.740  12.953 -1.9085  0.4497 -0.1536
19418TIP3    H279670   6.156   6.678  13.091 -0.2219  0.4897 -0.2177
19419TIP3   OH279671   5.098   3.586  16.515  0.4118  0.4107  0.6786
19419TIP3    H179672   5.192   3.569  16.527  0.6441  0.6688 -0.6870
19419TIP3    H279673   5.093   3.681  16.504  0.0314  0.3548  0.3886
19420TIP3   OH279674   6.346   3.104   2.588  0.4051  0.2028 -0.0107
19420TIP3    H179675   6.269   3.100   2.645  0.9293  0.0917  0.6839
19420TIP3    H279676   6.331   3.182   2.534 -1.1286 -0.8870 -1.2256
19421TIP3   OH279677   4.847   1.214   4.255 -0.5378 -0.0240  0.0512
19421TIP3    H179678   4.864   1.278   4.186  0.2096 -1.6127 -1.2619
19421TIP3    H279679   4.933   1.200   4.296 -0.6742 -0.2804  0.2500
19422TIP3   OH279680   0.525   3.924  15.830 -0.1798 -0.0269  0.2047
19422TIP3    H179681   0.551   3.971  15.751 -2.1116 -1.1850 -1.1586
19422TIP3    H279682   0.443   3.880  15.806  0.6911 -2.7007  1.9866
19423TIP3   OH279683   3.532   0.567  15.656 -0.0522  0.3367  0.6632
19423TIP3    H179684   3.572   0.589  15.741  3.3726 -0.7165 -0.6127
19423TIP3    H279685   3.518   0.473  15.660  3.1245 -0.2812 -1.0778
19424TIP3   OH279686   2.639   4.094   6.578 -0.2230  0.5042  0.2060
19424TIP3    H179687   2.602   4.037   6.645  1.0175  1.1407  1.4661
19424TIP3    H279688   2.673   4.034   6.512 -3.2300 -0.0954 -0.8742
19425TIP3   OH279689   1.205   5.214   0.474 -0.7787 -0.2266 -0.2959
19425TIP3    H179690   1.203   5.126   0.436  0.5723 -0.2376 -0.3325
19425TIP3    H279691   1.184   5.272   0.401 -4.5257 -0.6711  0.2984
19426TIP3   OH279692   5.276   4.388   3.691 -0.5800 -0.4904  0.0545
19426TIP3    H179693   5.330   4.368   3.767  1.2543  3.9273  0.0594
19426TIP3    H279694   5.336   4.384   3.617 -1.0916  0.5726 -0.4400
19427TIP3   OH279695   1.678   4.614   2.575 -0.6260 -0.2510 -0.2074
19427TIP3    H179696   1.730   4.682   2.619  1.4567 -0.5436 -2.1944
19427TIP3    H279697   1.600   4.661   2.544 -0.6169  0.6044  1.0331
19428TIP3   OH279698   0.704   4.926  11.735  0.0085  0.1955 -0.1395
19428TIP3    H179699   0.666   5.014  11.743 -1.1405 -0.5556  3.6498
19428TIP3    H279700   0.629   4.867  11.740  0.6413 -1.0434 -3.9484
19429TIP3   OH279701   4.558   4.430   5.534 -0.5647 -0.4389  0.4339
19429TIP3    H179702   4.589   4.368   5.600 -1.1770  1.0587  2.1650
19429TIP3    H279703   4.533   4.507   5.584  0.3679  1.2877 -1.7135
19430TIP3   OH279704   3.699   1.141  12.709  0.1572 -0.4193  0.6042
19430TIP3    H179705   3.624   1.200  12.719  0.0436 -0.6761  1.3196
19430TIP3    H279706   3.723   1.148  12.617 -1.6822 -1.4603  0.0200
19431TIP3   OH279707   6.452   1.014   1.601 -0.1563 -0.2135 -0.2232
19431TIP3    H179708   6.458   1.105   1.572  1.5776 -0.3197 -0.2111
19431TIP3    H279709   6.488   0.963   1.529 -0.9927 -0.8920 -0.1703
19432TIP3   OH279710   6.446   3.176   2.033 -0.1171 -0.3027  0.5391
19432TIP3    H179711   6.385   3.236   1.989 -0.0769  2.2289  3.7642
19432TIP3    H279712   6.390   3.120   2.086  0.1088 -0.1417  0.9555
19433TIP3   OH279713   6.104   0.059  13.558 -0.0697  0.4648 -0.5372
19433TIP3    H179714   6.039   0.077  13.626 -0.3097  0.7883 -0.8545
19433TIP3    H279715   6.186   0.092  13.594 -0.0593 -0.0240 -0.0989
19434TIP3   OH279716   3.895   0.552   4.752  0.1266  0.1728 -0.6924
19434TIP3    H179717   3.881   0.471   4.702  1.6369 -0.4495 -0.1462
19434TIP3    H279718   3.984   0.543   4.786  0.2476  2.0107 -0.4993
19435TIP3   OH279719   4.354   6.329   4.369 -1.1363  0.2606 -0.0354
19435TIP3    H179720   4.440   6.358   4.338 -0.9904  0.5180  0.6220
19435TIP3    H279721   4.340   6.245   4.324 -0.7382  0.4341 -0.4842
19436TIP3   OH279722   5.233   0.601  12.039  0.2277 -0.2868 -0.2690
19436TIP3    H179723   5.237   0.564  12.128 -0.9139 -0.2522 -0.1885
19436TIP3    H279724   5.140   0.616  12.024  0.3767 -0.6275 -1.6201
19437TIP3   OH279725   6.205   2.143  13.105  0.4466 -0.0089 -0.2719
19437TIP3    H179726   6.228   2.154  13.197  4.6167  1.4045 -1.3489
19437TIP3    H279727   6.253   2.065  13.077 -1.2881 -0.8048 -1.1099
19438TIP3   OH279728   5.175   2.099  16.292 -0.1177  0.2445 -0.2404
19438TIP3    H179729   5.119   2.044  16.346  1.1584  0.4912  1.3564
19438TIP3    H279730   5.168   2.186  16.331  2.6287 -0.0553  0.9574
19439TIP3   OH279731   0.397   1.149  13.150 -0.1431 -0.1757 -0.1221
19439TIP3    H179732   0.315   1.173  13.193 -0.9227  0.3519 -1.8544
19439TIP3    H279733   0.375   1.076  13.093  0.7899 -0.6420  0.1032
19440TIP3   OH279734   6.710   5.560  13.470  0.8001 -0.3025  0.3513
19440TIP3    H179735   6.711   5.521  13.558 -2.3831 -1.3891 -0.0085
19440TIP3    H279736   6.635   5.620  13.472  1.0000  0.0359 -1.4885
19441TIP3   OH279737   6.565   1.495   4.979 -0.1565  0.4725 -0.0159
19441TIP3    H179738   6.533   1.404   4.981  1.2082 -0.0588 -1.2079
19441TIP3    H279739   6.537   1.532   5.062 -0.0831 -1.2677  0.8089
19442TIP3   OH279740   2.994   3.581   5.961  0.1032 -0.1632  0.2619
19442TIP3    H179741   3.050   3.654   5.934 -1.9519  0.0731 -3.7033
19442TIP3    H279742   2.915   3.623   5.996  0.3062 -0.5015  1.1365
19443TIP3   OH279743   0.354   4.110  13.934  0.3399 -0.6629 -0.3086
19443TIP3    H179744   0.292   4.046  13.968  0.0340  0.0876  0.5855
19443TIP3    H279745   0.436   4.091  13.980 -0.3757  1.0864  1.7568
19444TIP3   OH279746   1.619   2.104   3.428  0.0830  0.6277  0.6919
19444TIP3    H179747   1.680   2.042   3.387 -0.1539  0.1834  1.0049
19444TIP3    H279748   1.644   2.107   3.520 -0.5395  0.2273  0.8805
19445TIP3   OH279749   3.712   4.111  12.516  0.3081  0.3466  0.8350
19445TIP3    H179750   3.618   4.129  12.526  0.4893  1.1482  1.1478
19445TIP3    H279751   3.741   4.086  12.604  0.5140  0.7024  0.8675
19446TIP3   OH279752   0.588   3.004  13.830 -0.3249 -0.0089  0.2673
19446TIP3    H179753   0.654   3.045  13.886 -1.3864  0.6154  1.0796
19446TIP3    H279754   0.590   2.911  13.855  1.3075 -0.2732 -0.7966
19447TIP3   OH279755   0.593   0.941  11.661  0.2484  0.4266 -0.0329
19447TIP3    H179756   0.546   1.009  11.612  0.5046  0.7938  0.2192
19447TIP3    H279757   0.672   0.986  11.692  0.0600  0.2171  0.7649
19448TIP3   OH279758   4.484   2.993  11.568 -0.0215  0.1506 -0.1703
19448TIP3    H179759   4.392   2.972  11.584  0.1895 -0.4656  0.2388
19448TIP3    H279760   4.500   2.963  11.479 -0.5445  1.3936 -0.7104
19449TIP3   OH279761   1.396   2.412   3.506  0.0727 -0.1187  0.4988
19449TIP3    H179762   1.449   2.385   3.581  0.0864  0.1976  0.6052
19449TIP3    H279763   1.312   2.440   3.545 -0.4564 -1.3388  0.2671
19450TIP3   OH279764   2.725   1.157   2.064  0.4460  0.1210 -0.3613
19450TIP3    H179765   2.752   1.070   2.034 -0.0777 -0.1753  0.0243
19450TIP3    H279766   2.802   1.191   2.110  1.2913  0.6237 -2.1177
19451TIP3   OH279767   3.237   5.308  11.806  0.5605  0.0432 -0.0137
19451TIP3    H179768   3.206   5.351  11.885 -0.1761 -0.3284 -0.0962
19451TIP3    H279769   3.235   5.214  11.827  0.1953 -0.0668 -0.5206
19452TIP3   OH279770   4.425   0.141   4.834  0.2136  0.7446  0.0268
19452TIP3    H179771   4.468   0.173   4.913  0.1933 -0.4528  0.5213
19452TIP3    H279772   4.470   0.187   4.762  2.4121 -0.5718  0.5148
19453TIP3   OH279773   1.845   4.479   1.403 -0.2143 -0.6918 -0.3364
19453TIP3    H179774   1.802   4.543   1.460  1.4387  0.5969 -0.5024
19453TIP3    H279775   1.781   4.464   1.333 -0.2613  1.5531 -0.8307
19454TIP3   OH279776   1.565   5.305  17.228  0.2665 -0.0752  0.3612
19454TIP3    H179777   1.625   5.261  17.289  1.0192 -2.2259 -1.8551
19454TIP3    H279778   1.620   5.328  17.153 -1.0738  0.6973 -0.3928
19455TIP3   OH279779   0.745   5.967  14.430  0.0042 -0.3736 -0.5916
19455TIP3    H179780   0.671   5.930  14.383 -0.5335 -1.5603  1.1098
19455TIP3    H279781   0.715   5.973  14.521  2.0882 -1.1754  0.1828
19456TIP3   OH279782   5.231   4.020   4.107  0.0755 -0.0112  0.6257
19456TIP3    H179783   5.281   4.101   4.100 -0.5484  0.3062 -0.2124
19456TIP3    H279784   5.140   4.046   4.091 -0.4085 -0.5260  2.4427
19457TIP3   OH279785   5.696   5.094   5.524  0.1780 -0.5907  0.1048
19457TIP3    H179786   5.737   5.031   5.464  0.0049  1.2625 -1.9983
19457TIP3    H279787   5.759   5.165   5.532 -0.8701  0.3433  0.1648
19458TIP3   OH279788   1.907   3.956  16.642 -0.2019 -0.1345 -0.6593
19458TIP3    H179789   1.972   4.021  16.615 -0.1809  1.2272  2.4151
19458TIP3    H279790   1.830   3.974  16.588  0.4018  1.2737 -1.0625
19459TIP3   OH279791   1.839   6.378   3.351 -0.3232  0.7681 -0.7230
19459TIP3    H179792   1.887   6.457   3.323  2.0855 -0.0300  1.0010
19459TIP3    H279793   1.891   6.306   3.316 -0.6353 -0.1177  0.6460
19460TIP3   OH279794   1.377   0.414  14.191 -0.1394 -0.1510  0.6021
19460TIP3    H179795   1.358   0.335  14.140 -0.7986  0.2402  0.2361
19460TIP3    H279796   1.472   0.416  14.199 -0.0803 -0.6008  0.0101
19461TIP3   OH279797   4.128   2.750   4.581  0.3174  0.0742  0.1807
19461TIP3    H179798   4.056   2.709   4.533  0.0384 -0.3154  0.9119
19461TIP3    H279799   4.171   2.806   4.517 -0.3983  0.0079 -0.3710
19462TIP3   OH279800   0.228   3.475  17.163 -0.2736 -0.0235 -0.1578
19462TIP3    H179801   0.311   3.488  17.210  1.2213 -1.5674 -2.2559
19462TIP3    H279802   0.222   3.550  17.104 -1.2444  0.9763  1.1955
19463TIP3   OH279803   1.795   1.152   5.499  0.2785  0.7756  0.0216
19463TIP3    H179804   1.838   1.121   5.420 -0.0131  0.8306 -0.1578
19463TIP3    H279805   1.852   1.124   5.570  0.8867  1.3228 -0.2505
19464TIP3   OH279806   3.178   6.474  14.550  0.1607  0.0647 -0.1053
19464TIP3    H179807   3.207   6.564  14.565 -0.5592  0.0667  1.3871
19464TIP3    H279808   3.158   6.441  14.637 -1.4819 -0.8970 -0.8355
19465TIP3   OH279809   1.750   5.636  11.342  0.0661  0.1028 -0.2943
19465TIP3    H179810   1.774   5.586  11.420  1.0188  2.7296  1.1587
19465TIP3    H279811   1.671   5.684  11.368 -0.2761  0.1267 -1.3408
19466TIP3   OH279812   6.237   3.764  16.368 -0.0992  0.0607 -0.3961
19466TIP3    H179813   6.144   3.784  16.383  0.6368  2.4993  1.1354
19466TIP3    H279814   6.257   3.696  16.432 -0.6161  0.0840 -0.2042
19467TIP3   OH279815   3.084   4.249   4.070  0.0676 -0.4672  0.3038
19467TIP3    H179816   3.138   4.300   4.131  0.5619 -0.5759 -0.0410
19467TIP3    H279817   3.022   4.313   4.035  1.0786  0.0547 -0.5892
19468TIP3   OH279818   2.254   4.474  12.760  0.3701  0.2227  0.1213
19468TIP3    H179819   2.233   4.566  12.744  0.2903 -0.0309 -1.2572
19468TIP3    H279820   2.190   4.446  12.826 -0.3758  0.8335 -0.3314
19469TIP3   OH279821   5.251   1.757  14.088  0.0216 -0.1337  0.1489
19469TIP3    H179822   5.286   1.825  14.032 -1.2581 -0.0069 -0.5262
19469TIP3    H279823   5.200   1.701  14.029  0.8062 -1.5079  0.7414
19470TIP3   OH279824   6.679   0.675  11.199  0.5496  0.0668  0.7812
19470TIP3    H179825   6.588   0.662  11.173  0.6564  0.8201 -0.0067
19470TIP3    H279826   6.721   0.711  11.120  1.1440  1.3283  1.6607
19471TIP3   OH279827   2.657   3.684   1.332 -0.2548  0.1931  0.5865
19471TIP3    H179828   2.733   3.719   1.378 -0.4054  0.0397  0.9613
19471TIP3    H279829   2.625   3.614   1.389  1.6831 -2.4813 -1.4668
19472TIP3   OH279830   5.211   0.491   2.901  0.1086 -0.6112  0.3441
19472TIP3    H179831   5.240   0.582   2.909 -2.3321  0.1028  1.2705
19472TIP3    H279832   5.274   0.441   2.953  0.5830  0.7257  1.0776
19473TIP3   OH279833   4.175   3.500  12.919  0.0419  0.6617  0.6266
19473TIP3    H179834   4.260   3.539  12.900  0.6090 -1.1893 -0.7543
19473TIP3    H279835   4.190   3.449  12.999  0.1338  0.6070  0.5753
19474TIP3   OH279836   5.736   0.971  14.966 -0.0486 -0.6377  0.7898
19474TIP3    H179837   5.699   0.883  14.964  0.4579 -0.8988  2.3723
19474TIP3    H279838   5.752   0.988  15.059  1.0151  0.6414  0.3836
19475TIP3   OH279839   2.210   5.224   2.475  0.1641 -0.4253  0.0659
19475TIP3    H179840   2.132   5.267   2.511 -0.5392 -1.5626 -0.0905
19475TIP3    H279841   2.179   5.176   2.398  1.7521  2.4585 -2.5081
19476TIP3   OH279842   0.966   5.855   3.770  0.2802 -0.2607 -0.5031
19476TIP3    H179843   1.007   5.828   3.852 -1.4544  2.2907  1.2856
19476TIP3    H279844   1.021   5.925   3.737 -0.5851  0.6669 -0.0061
19477TIP3   OH279845   6.410   6.428   1.726  0.6038 -0.6969  0.5137
19477TIP3    H179846   6.367   6.360   1.673  0.7384 -0.0156 -0.4925
19477TIP3    H279847   6.445   6.489   1.661 -2.8792  2.4410  1.4281
19478TIP3   OH279848   2.665   4.195   1.464 -0.0499  0.0617  0.3153
19478TIP3    H179849   2.650   4.101   1.475  0.1629  0.1279  1.2102
19478TIP3    H279850   2.603   4.237   1.523 -1.7363  0.5750 -1.7434
19479TIP3   OH279851   3.756   0.843   0.644  0.4532  0.2997  0.1370
19479TIP3    H179852   3.722   0.920   0.599 -0.2907 -0.3259 -0.3981
19479TIP3    H279853   3.836   0.873   0.686  0.4423  1.2337 -0.4884
19480TIP3   OH279854   3.532   1.203  14.507  0.0438 -0.3828  0.4433
19480TIP3    H179855   3.504   1.118  14.471 -1.4472  0.4094 -0.2982
19480TIP3    H279856   3.495   1.204  14.595 -0.0663 -0.4252  0.3973
19481TIP3   OH279857   4.396   5.574   0.262  0.4161 -0.0208 -0.2877
19481TIP3    H179858   4.335   5.502   0.282  0.5342 -0.6380 -2.0563
19481TIP3    H279859   4.361   5.613   0.183  0.1841  2.1050  0.8294
19482TIP3   OH279860   6.345   3.094   2.272  0.0044 -0.6883  0.0724
19482TIP3    H179861   6.436   3.089   2.302  0.5412 -0.0008 -1.4069
19482TIP3    H279862   6.313   3.004   2.278  0.5321 -0.8016  1.3503
19483TIP3   OH279863   2.072   2.600   0.604 -0.0585 -0.0544 -0.5621
19483TIP3    H179864   2.025   2.636   0.529  0.4819  0.9624 -0.4170
19483TIP3    H279865   2.013   2.615   0.678  0.8570  2.0724 -0.2227
19484TIP3   OH279866   6.631   3.661   2.533  1.0657 -0.2181  1.0511
19484TIP3    H179867   6.690   3.729   2.499  3.0574 -1.5497  1.7684
19484TIP3    H279868   6.563   3.653   2.466  0.8694  2.3938  0.9058
19485TIP3   OH279869   2.869   6.481  12.753  0.2044  0.0751  0.2353
19485TIP3    H179870   2.785   6.524  12.737  0.4223 -0.2201 -1.9295
19485TIP3    H279871   2.870   6.408  12.690  1.3098 -1.0188  1.4944
19486TIP3   OH279872   6.454   4.046   3.989  0.4518  0.0506 -0.3750
19486TIP3    H179873   6.488   3.988   3.922  1.4235  0.3812 -0.1828
19486TIP3    H279874   6.432   3.988   4.062 -1.4468 -0.4130 -1.2783
19487TIP3   OH279875   3.577   6.074  10.394 -0.0731  0.7856  0.4742
19487TIP3    H179876   3.568   6.107  10.484 -2.5226 -1.3776  1.0978
19487TIP3    H279877   3.504   6.114  10.346 -1.7086 -1.7782  0.6965
19488TIP3   OH279878   3.627   3.835   2.185 -0.4085 -0.0405 -0.1986
19488TIP3    H179879   3.582   3.861   2.105 -0.7839 -3.9715 -1.4044
19488TIP3    H279880   3.558   3.795   2.238  0.6533 -1.4398  0.1583
19489TIP3   OH279881   6.608   0.842   4.781  0.4295  0.0532  0.1678
19489TIP3    H179882   6.691   0.805   4.752 -0.5242 -0.1614 -2.3932
19489TIP3    H279883   6.542   0.798   4.729 -1.3762 -0.1451  2.5326
19490TIP3   OH279884   3.485   4.302  14.368 -0.0673 -0.6235 -0.1062
19490TIP3    H179885   3.413   4.364  14.365 -0.5724 -1.0318  2.4885
19490TIP3    H279886   3.559   4.353  14.401  0.4261 -0.5922 -1.2387
19491TIP3   OH279887   0.734   0.780  15.522  0.2414  0.1276 -0.0422
19491TIP3    H179888   0.702   0.722  15.453  1.0054 -0.2496 -0.0934
19491TIP3    H279889   0.720   0.730  15.603  1.3252 -0.3396 -0.1267
19492TIP3   OH279890   5.371   2.455  14.203  0.0581 -0.0047 -0.2981
19492TIP3    H179891   5.310   2.430  14.272 -0.3735  1.3107 -0.2032
19492TIP3    H279892   5.346   2.402  14.127 -0.6794 -0.0495 -0.0176
19493TIP3   OH279893   5.735   2.638   0.318 -0.0487  0.0317  0.4560
19493TIP3    H179894   5.796   2.570   0.342 -0.1760 -0.3684 -0.3354
19493TIP3    H279895   5.694   2.664   0.400 -0.3032 -1.1381  0.7042
19494TIP3   OH279896   5.255   3.711   0.962 -0.5990 -0.2096 -0.4806
19494TIP3    H179897   5.189   3.746   1.022 -0.2213  0.2886 -0.3513
19494TIP3    H279898   5.321   3.780   0.956  1.8799 -2.2275  2.4234
19495TIP3   OH279899   6.019   3.397   4.926 -0.1286  0.3644  0.4381
19495TIP3    H179900   5.992   3.305   4.925 -0.4883  0.4696 -0.1086
19495TIP3    H279901   6.011   3.425   4.834  3.9689 -0.2190 -0.2205
19496TIP3   OH279902   3.330   1.696  14.618  0.5181 -0.2112 -0.3240
19496TIP3    H179903   3.326   1.779  14.664  0.2527 -0.8617  0.8581
19496TIP3    H279904   3.239   1.666  14.614  0.5011  0.0157 -1.5938
19497TIP3   OH279905   2.921   6.671   3.579 -0.2443  0.3325  0.3284
19497TIP3    H179906   2.854   6.634   3.635  0.5669 -0.9866  0.4317
19497TIP3    H279907   2.874   6.700   3.500 -1.1335  0.7400  1.0070
19498TIP3   OH279908   0.714   5.113   1.558  0.3483  0.7115  0.5345
19498TIP3    H179909   0.630   5.138   1.597  1.0428 -1.9315  3.9380
19498TIP3    H279910   0.693   5.037   1.503  0.1524  1.4758 -0.4554
19499TIP3   OH279911   3.176   2.071   4.274  0.3926  0.3788 -0.3778
19499TIP3    H179912   3.268   2.057   4.252  0.6933  2.6745 -0.7501
19499TIP3    H279913   3.175   2.075   4.370  0.4238 -1.2152 -0.3049
19500TIP3   OH279914   4.078   0.757  15.139  0.1599  0.5580  0.2850
19500TIP3    H179915   4.020   0.698  15.187 -0.8841  0.0211 -1.5813
19500TIP3    H279916   4.030   0.840  15.136  1.2694  1.2885  2.2017
19501TIP3   OH279917   2.226   4.344   0.165 -0.5767 -0.8172  0.1689
19501TIP3    H179918   2.150   4.292   0.141 -0.5352 -0.6503 -0.3263
19501TIP3    H279919   2.301   4.287   0.148 -0.3789  0.2119 -2.6415
19502TIP3   OH279920   4.555   1.088  12.194 -0.0568 -0.3084 -0.6074
19502TIP3    H179921   4.583   1.030  12.265  0.2557  0.3234 -0.2075
19502TIP3    H279922   4.480   1.136  12.229  0.6914  0.7004 -0.3479
19503TIP3   OH279923   0.452   5.338   3.556 -0.8504  0.2026 -0.2464
19503TIP3    H179924   0.497   5.266   3.512  2.1731  2.1818 -0.5080
19503TIP3    H279925   0.487   5.417   3.516 -0.8449  1.9609  3.0449
19504TIP3   OH279926   3.897   3.737  17.007 -0.4425 -0.8715  0.6084
19504TIP3    H179927   3.965   3.672  16.989  0.4543  0.0038  0.7896
19504TIP3    H279928   3.927   3.783  17.085 -1.1316 -0.3104  0.5527
19505TIP3   OH279929   4.851   1.092  14.800  0.4774  0.2402 -0.9207
19505TIP3    H179930   4.758   1.116  14.794  0.4712  0.2315 -0.8543
19505TIP3    H279931   4.893   1.140  14.730  0.0955 -1.3226 -2.2533
19506TIP3   OH279932   1.707   2.011   2.466 -0.3149  0.4331 -0.3134
19506TIP3    H179933   1.754   1.931   2.490  1.2822  0.4086 -3.2332
19506TIP3    H279934   1.758   2.082   2.504 -0.2421  0.1851  0.0490
19507TIP3   OH279935   0.867   6.175  11.486  0.4122  0.2356  0.0486
19507TIP3    H179936   0.834   6.225  11.562 -0.4172 -0.6238  0.2606
19507TIP3    H279937   0.913   6.101  11.525  0.9947  0.4289 -0.2788
19508TIP3   OH279938   5.750   4.242   2.690 -0.5481 -0.1900 -0.2815
19508TIP3    H179939   5.682   4.254   2.756 -0.8907 -2.4611 -0.1753
19508TIP3    H279940   5.821   4.198   2.737  0.2085  0.3720 -0.8710
19509TIP3   OH279941   2.685   1.548   3.666  0.0082 -0.3318 -0.2158
19509TIP3    H179942   2.665   1.550   3.759  3.6052 -0.1716  0.6242
19509TIP3    H279943   2.766   1.598   3.657 -0.6786  0.3407 -3.5627
19510TIP3   OH279944   3.997   0.435  15.698 -0.3166  0.4166 -0.3744
19510TIP3    H179945   4.007   0.483  15.781  2.7602 -0.2112 -0.3573
19510TIP3    H279946   4.047   0.355  15.710  0.2535  0.3625 -2.8734
19511TIP3   OH279947   6.449   4.994  12.310 -0.0530 -0.4902 -0.0611
19511TIP3    H179948   6.406   4.915  12.343 -2.7739  1.2560  0.7189
19511TIP3    H279949   6.458   4.979  12.216 -1.4220 -1.3263 -0.0652
19512TIP3   OH279950   4.173   0.170   4.438 -0.1033 -0.4763 -0.3933
19512TIP3    H179951   4.252   0.115   4.443  1.4297  1.5222 -1.6998
19512TIP3    H279952   4.177   0.223   4.518 -0.8123 -1.2477  0.1596
19513TIP3   OH279953   2.637   5.582   4.555  0.2775  0.0193 -0.0557
19513TIP3    H179954   2.551   5.540   4.556 -0.3964  1.3965 -0.4111
19513TIP3    H279955   2.695   5.517   4.596 -1.0399 -0.6325  0.8043
19514TIP3   OH279956   6.300   5.629  16.230 -0.0307 -0.0687  0.0621
19514TIP3    H179957   6.262   5.714  16.253  0.2378 -0.2789  1.3257
19514TIP3    H279958   6.237   5.591  16.168 -0.8577  0.4699  0.5549
19515TIP3   OH279959   5.278   0.386   5.792 -0.4184 -0.1602  0.2563
19515TIP3    H179960   5.212   0.342   5.844  0.2159  1.0156  2.0942
19515TIP3    H279961   5.320   0.316   5.742 -2.0299 -1.0985  0.1853
19516TIP3   OH279962   3.797   5.566  12.240  0.2671  1.1477 -0.3229
19516TIP3    H179963   3.790   5.608  12.154 -1.9798  1.9638  0.2202
19516TIP3    H279964   3.744   5.487  12.232  2.3434 -0.2571 -0.5233
19517TIP3   OH279965   0.526   4.185  13.140 -0.4064  0.0409  0.4768
19517TIP3    H179966   0.581   4.225  13.207  1.6649  0.1784 -1.2566
19517TIP3    H279967   0.438   4.184  13.178  0.8034 -0.3937  3.4079
19518TIP3   OH279968   4.737   2.729   0.924  0.0398 -0.5140  0.2747
19518TIP3    H179969   4.770   2.653   0.875 -1.2582 -0.9999  0.1319
19518TIP3    H279970   4.765   2.805   0.873 -1.2626 -1.0150 -1.1923
19519TIP3   OH279971   6.575   1.398  14.838 -0.3046  0.0606  0.2918
19519TIP3    H179972   6.622   1.344  14.774  0.4756 -0.2536  1.1200
19519TIP3    H279973   6.536   1.468  14.786 -0.7525 -0.9057 -0.7038
19520TIP3   OH279974   1.297   1.649   5.354  0.2656 -0.7169  0.4362
19520TIP3    H179975   1.382   1.617   5.323  1.3364  1.3931  1.1463
19520TIP3    H279976   1.267   1.582   5.415  1.9273 -0.9460  1.0065
19521TIP3   OH279977   2.284   4.309  16.713  0.0181  0.1699 -0.2124
19521TIP3    H179978   2.353   4.245  16.731 -0.7397 -0.5930 -0.0153
19521TIP3    H279979   2.331   4.387  16.681  0.8380 -1.1084 -2.2293
19522TIP3   OH279980   5.461   6.095   5.470 -0.1218  0.0656 -0.2034
19522TIP3    H179981   5.449   6.189   5.484 -1.0125 -0.2148  1.0092
19522TIP3    H279982   5.391   6.070   5.410  0.4045  0.2607 -0.9031
19523TIP3   OH279983   5.015   3.389  16.983 -0.6030 -0.0429  0.0495
19523TIP3    H179984   5.054   3.304  17.005  0.2697  0.9301  2.3878
19523TIP3    H279985   4.924   3.382  17.011 -0.2768  0.1379  1.1546
19524TIP3   OH279986   5.904   2.767   5.182  0.2801 -0.2686 -0.5724
19524TIP3    H179987   5.933   2.838   5.240  2.2279 -1.6743  0.2521
19524TIP3    H279988   5.918   2.800   5.094  2.5947 -0.1307 -0.1912
19525TIP3   OH279989   6.418   3.714  15.256  0.2043  0.2113  0.1395
19525TIP3    H179990   6.345   3.662  15.289  1.5376 -1.6236  0.2606
19525TIP3    H279991   6.397   3.730  15.164 -1.1958  1.2425  0.6139
19526TIP3   OH279992   5.426   3.527   0.859 -0.0812 -0.1571 -0.4253
19526TIP3    H179993   5.460   3.513   0.947  1.7105  1.6896 -0.7653
19526TIP3    H279994   5.344   3.574   0.871 -1.0182 -1.9812  0.3301
19527TIP3   OH279995   6.604   4.400   3.251 -0.4009  0.5285  0.2291
19527TIP3    H179996   6.670   4.435   3.191 -0.0396 -1.6257 -0.7169
19527TIP3    H279997   6.522   4.439   3.222 -0.1925 -0.3114 -1.5804
19528TIP3   OH279998   3.135   1.394  15.489  0.0187  0.6597 -0.0393
19528TIP3    H179999   3.082   1.353  15.420  1.0862 -0.2360 -0.3398
19528TIP3    H280000   3.120   1.338  15.566  0.7046  0.2712 -0.1863
19529TIP3   OH280001   4.193   4.651  13.309 -0.2145  0.0441  0.1057
19529TIP3    H180002   4.270   4.646  13.253 -0.3581 -1.8441  0.0320
19529TIP3    H280003   4.216   4.600  13.387 -0.0282  2.5929  1.7815
19530TIP3   OH280004   0.437   2.242  16.091  0.0910  0.0342  0.2413
19530TIP3    H180005   0.412   2.261  16.000 -0.3247  1.1542  0.5779
19530TIP3    H280006   0.525   2.280  16.099  0.5251 -0.9134  0.0352
19531TIP3   OH280007   4.119   1.630  13.130  0.1292  0.4240  0.4675
19531TIP3    H180008   4.115   1.542  13.169  1.2084 -0.8190 -2.1304
19531TIP3    H280009   4.027   1.654  13.116 -0.1406 -1.4197 -1.1783
19532TIP3   OH280010   5.726   4.382  15.073 -0.0264  0.0543 -0.7762
19532TIP3    H180011   5.691   4.455  15.022  2.3715  1.5473 -0.3539
19532TIP3    H280012   5.821   4.394  15.071  0.3913 -2.8046 -0.2988
19533TIP3   OH280013   2.856   3.003   6.221 -0.3169 -0.1202  0.4077
19533TIP3    H180014   2.876   3.020   6.313 -0.2824  0.0549  0.3661
19533TIP3    H280015   2.906   2.924   6.200 -0.5095 -0.2963  0.6056
19534TIP3   OH280016   4.983   6.648  14.769 -0.1074  0.5239  0.4187
19534TIP3    H180017   5.063   6.596  14.765 -0.4212  0.0437  0.3149
19534TIP3    H280018   4.979   6.693  14.684  0.1281  0.6635  0.4815
19535TIP3   OH280019   3.040   2.321  14.947 -0.5582  0.0670 -0.1162
19535TIP3    H180020   2.949   2.298  14.929 -0.5005 -1.9937  1.9432
19535TIP3    H280021   3.044   2.328  15.043  1.7464 -1.2617 -0.0750
19536TIP3   OH280022   2.611   6.265   5.459  0.3036  0.6161  0.4330
19536TIP3    H180023   2.644   6.341   5.410 -0.9686  0.6882 -0.3378
19536TIP3    H280024   2.527   6.245   5.419 -1.2591  1.2902  3.2408
19537TIP3   OH280025   5.506   6.764   4.275 -0.3275  0.8491  0.0265
19537TIP3    H180026   5.422   6.732   4.241  0.3696 -1.1630  0.1496
19537TIP3    H280027   5.524   6.843   4.223 -0.1439 -1.1599 -3.0844
19538TIP3   OH280028   3.140   4.091   4.664 -0.0967 -0.4653  0.2551
19538TIP3    H180029   3.235   4.105   4.658 -0.2928  0.8903  0.2694
19538TIP3    H280030   3.123   4.015   4.608  1.3584 -2.3029  2.2198
19539TIP3   OH280031   6.586   5.853  15.313 -0.0810 -0.4260  0.3319
19539TIP3    H180032   6.503   5.817  15.343 -0.6186  1.0470  0.6391
19539TIP3    H280033   6.652   5.788  15.340 -0.9066 -0.6689  1.7798
19540TIP3   OH280034   1.110   0.163   2.507  0.3009  0.0921  0.2214
19540TIP3    H180035   1.186   0.122   2.549 -1.2954 -2.3426  0.8246
19540TIP3    H280036   1.120   0.143   2.414  0.1333 -0.6690  0.3658
19541TIP3   OH280037   0.096   4.957   0.511 -0.6783  0.3443 -0.1251
19541TIP3    H180038   0.114   5.018   0.583 -0.1120 -1.3050  1.1673
19541TIP3    H280039   0.130   5.001   0.434 -0.7805  1.9142  0.7071
19542TIP3   OH280040   2.361   6.736  10.478  0.3793  0.2551  0.0995
19542TIP3    H180041   2.327   6.739  10.388 -1.2381  1.3533  0.7219
19542TIP3    H280042   2.362   6.643  10.499 -1.0519  0.1038 -0.4052
19543TIP3   OH280043   3.754   6.409   0.686 -0.3509 -0.6118  0.3591
19543TIP3    H180044   3.800   6.326   0.675 -1.4056 -1.1509 -0.0726
19543TIP3    H280045   3.784   6.463   0.614 -1.3007 -1.3921 -0.6454
19544TIP3   OH280046   6.007   5.600   2.416 -0.2113 -0.3501 -0.5667
19544TIP3    H180047   5.994   5.507   2.401  0.3835 -0.3342 -1.2316
19544TIP3    H280048   6.053   5.606   2.500  0.4795 -0.6986 -0.9214
19545TIP3   OH280049   2.722   3.703  15.994  0.1403  0.3593 -0.1491
19545TIP3    H180050   2.658   3.674  16.058  0.2253  0.0737 -0.1961
19545TIP3    H280051   2.778   3.764  16.042 -0.1259  0.5605 -0.0935
19546TIP3   OH280052   4.032   5.349  15.722 -0.0339 -0.0401  0.4763
19546TIP3    H180053   3.952   5.388  15.685  0.7676  1.4555  0.3071
19546TIP3    H280054   4.010   5.331  15.813 -1.8462 -3.2263 -0.5103
19547TIP3   OH280055   4.175   0.656  17.093  1.0536 -0.3567 -0.1062
19547TIP3    H180056   4.158   0.571  17.053  1.2402 -1.1160  1.4087
19547TIP3    H280057   4.146   0.647  17.184  1.5592  1.0254  0.2086
19548TIP3   OH280058   3.384   2.378   4.258  0.3348  0.3799  0.4408
19548TIP3    H180059   3.439   2.353   4.184 -1.0555  0.1246 -0.5315
19548TIP3    H280060   3.374   2.298   4.310 -2.3299 -0.6332 -1.5051
19549TIP3   OH280061   1.344   1.133  15.527 -0.4902  0.2652 -0.4961
19549TIP3    H180062   1.310   1.110  15.613  0.0912  1.4438  0.0631
19549TIP3    H280063   1.407   1.064  15.507  1.1046  1.2385  1.0713
19550TIP3   OH280064   6.427   6.082   5.026 -0.0444  0.2352  0.0604
19550TIP3    H180065   6.407   6.049   4.938 -0.7995  0.4241  0.1572
19550TIP3    H280066   6.349   6.132   5.051 -0.6004 -1.3901  1.6243
19551TIP3   OH280067   0.580   5.959  14.655 -0.9352 -0.3222  0.3741
19551TIP3    H180068   0.515   6.027  14.671  1.1344  1.6673  0.5024
19551TIP3    H280069   0.639   5.963  14.730  1.0772 -0.0112 -1.1624
19552TIP3   OH280070   6.174   0.386  12.400  0.0017 -0.3768 -0.6934
19552TIP3    H180071   6.115   0.459  12.382 -0.7066 -0.7470  0.1422
19552TIP3    H280072   6.260   0.427  12.409 -0.6956  0.6075  1.8192
19553TIP3   OH280073   0.683   0.979  13.251 -0.2391  0.5346  0.6622
19553TIP3    H180074   0.762   0.997  13.200  0.3779 -0.9764  1.0511
19553TIP3    H280075   0.640   1.064  13.260 -0.2369  0.8922 -2.1557
19554TIP3   OH280076   1.036   5.257  14.928  0.2976  0.0023 -0.4571
19554TIP3    H180077   1.051   5.316  15.002 -0.6721  0.9528 -1.0046
19554TIP3    H280078   0.969   5.301  14.875  1.1254 -0.5543 -2.0165
19555TIP3   OH280079   0.679   1.437   2.407 -0.1517  0.2755  0.0285
19555TIP3    H180080   0.767   1.457   2.440  0.9552 -0.3021 -2.4511
19555TIP3    H280081   0.655   1.515   2.356 -2.2950  1.6210  2.9385
19556TIP3   OH280082   2.135   4.490  16.863 -0.0065  0.1354  0.1047
19556TIP3    H180083   2.168   4.423  16.803 -1.1485 -1.0353  0.7557
19556TIP3    H280084   2.113   4.441  16.943  0.4964  1.5126  1.0957
19557TIP3   OH280085   6.082   1.438   3.149  0.6404 -0.3272 -0.0508
19557TIP3    H180086   6.138   1.363   3.169 -0.7746 -1.7439 -1.2860
19557TIP3    H280087   6.124   1.480   3.074  0.7549 -0.6223 -0.1531
19558TIP3   OH280088   0.040   6.061  12.878 -0.0689 -0.5015  0.0857
19558TIP3    H180089   0.034   5.992  12.811 -2.7994 -2.8897  2.6333
19558TIP3    H280090  -0.025   6.036  12.944  1.4404  2.6014  2.8962
19559TIP3   OH280091   4.192   2.231  13.283 -0.0910  0.2792 -0.0189
19559TIP3    H180092   4.118   2.181  13.249 -0.2626  0.2187  0.4489
19559TIP3    H280093   4.267   2.200  13.232 -0.8757  2.5509 -2.6758
19560TIP3   OH280094   0.134   2.449  14.926  0.4208 -0.1427 -0.0915
19560TIP3    H180095   0.040   2.460  14.945  0.5904  1.3552 -0.1129
19560TIP3    H280096   0.149   2.499  14.847  1.2581 -0.3486 -0.0648
19561TIP3   OH280097   4.611   4.030  10.441 -0.0027 -0.9470 -0.1705
19561TIP3    H180098   4.559   4.018  10.361 -1.4756 -1.2433  0.8225
19561TIP3    H280099   4.546   4.045  10.510  1.2532 -0.8479  1.0048
19562TIP3   OH280100   1.315   0.916   3.914 -0.1946  0.6905 -0.3590
19562TIP3    H180101   1.260   0.848   3.954  2.6000 -0.9729  0.8561
19562TIP3    H280102   1.312   0.897   3.820 -1.3720  0.3942 -0.2730
19563TIP3   OH280103   2.056   5.630   5.880  0.0663  0.1436  0.0295
19563TIP3    H180104   2.068   5.679   5.961 -1.0225 -0.4509  0.5722
19563TIP3    H280105   1.968   5.594   5.888  0.3987 -0.8849 -0.8996
19564TIP3   OH280106   4.281   3.236  15.925  0.2032  0.0266 -0.1723
19564TIP3    H180107   4.307   3.194  15.843 -1.5632 -0.4400 -0.5109
19564TIP3    H280108   4.230   3.312  15.898  1.9152  1.4249  0.4699
19565TIP3   OH280109   4.061   2.321   1.703 -0.1397  0.3618 -0.3198
19565TIP3    H180110   4.141   2.329   1.756  0.0733 -1.9871 -0.2348
19565TIP3    H280111   4.040   2.411   1.678  1.0498  1.2811  1.8405
19566TIP3   OH280112   2.488   4.209   5.798  0.2559  0.0229  0.1332
19566TIP3    H180113   2.469   4.270   5.868  0.7677 -0.0709  0.3520
19566TIP3    H280114   2.534   4.136   5.840 -0.9588 -0.8374 -0.0040
19567TIP3   OH280115   0.617   1.299  13.344 -0.3400  0.3708  0.0522
19567TIP3    H180116   0.590   1.386  13.313  0.0587 -0.2365 -2.0850
19567TIP3    H280117   0.708   1.290  13.313  0.7566  0.4851  3.0707
19568TIP3   OH280118   1.849   4.731   1.131  0.1161  0.0203  0.3951
19568TIP3    H180119   1.889   4.644   1.129 -0.5704 -0.2603 -1.1794
19568TIP3    H280120   1.849   4.754   1.224 -1.0973 -2.3262  1.0232
19569TIP3   OH280121   1.718   4.755  11.921  0.3156  0.0261 -0.1256
19569TIP3    H180122   1.765   4.678  11.889 -0.5432 -1.5533  2.2916
19569TIP3    H280123   1.679   4.727  12.004 -1.5886  2.5035 -0.1181
19570TIP3   OH280124   6.349   6.646  10.439 -0.1260  0.7845  0.0977
19570TIP3    H180125   6.360   6.554  10.463  0.6131  1.0167  0.6430
19570TIP3    H280126   6.292   6.643  10.362  2.0678 -0.2959 -1.5356
19571TIP3   OH280127   2.179   4.856   1.760 -0.2338  0.1184 -0.6384
19571TIP3    H180128   2.236   4.885   1.831  0.1144 -1.1948 -0.3734
19571TIP3    H280129   2.095   4.899   1.778  0.8336  2.5645 -1.3865
19572TIP3   OH280130   5.512   1.883   2.421  0.1499  0.8312  0.5818
19572TIP3    H180131   5.472   1.839   2.346  0.6246  0.5478  0.4908
19572TIP3    H280132   5.605   1.882   2.402  0.1490  2.0966  0.4730
19573TIP3   OH280133   3.570   1.120   5.680  0.2408  0.1388 -0.1499
19573TIP3    H180134   3.614   1.154   5.602 -0.4933 -1.4178 -1.2785
19573TIP3    H280135   3.639   1.074   5.728  0.9803  2.2035  0.8022
19574TIP3   OH280136   3.976   3.160   2.005 -0.5070 -0.0545 -0.4074
19574TIP3    H180137   3.884   3.185   2.007 -0.5203 -0.0753 -0.7382
19574TIP3    H280138   3.986   3.098   2.077  0.2280  3.2882  2.5092
19575TIP3   OH280139   5.284   6.500  11.071 -0.0008  0.6030  0.1788
19575TIP3    H180140   5.350   6.568  11.057 -0.4848  0.9131 -0.6379
19575TIP3    H280141   5.209   6.527  11.018  0.7021 -1.8428 -2.2065
19576TIP3   OH280142   1.941   1.527  13.560  0.2938  0.4590  0.2800
19576TIP3    H180143   1.908   1.617  13.564  1.0907  0.7896 -0.5207
19576TIP3    H280144   2.018   1.532  13.504  0.6696 -0.6287  0.6831
19577TIP3   OH280145   2.562   2.610   5.036  0.2989  0.6610 -0.1936
19577TIP3    H180146   2.570   2.662   5.115 -1.3132  0.1065  0.3672
19577TIP3    H280147   2.592   2.523   5.062 -0.3082  0.4592 -0.1609
19578TIP3   OH280148   1.571   3.486  17.000 -0.4968  0.7933  1.0322
19578TIP3    H180149   1.626   3.511  17.074 -1.6699  0.9891  1.8472
19578TIP3    H280150   1.618   3.518  16.923 -0.5528  2.9530  1.8710
19579TIP3   OH280151   4.697   6.114   5.468 -0.4593  0.0954  0.3971
19579TIP3    H180152   4.708   6.073   5.382 -1.3720  1.4170 -0.3518
19579TIP3    H280153   4.787   6.123   5.501 -0.1038 -0.4333 -0.3945
19580TIP3   OH280154   0.618   4.221   4.521 -0.0269  0.4973  0.1010
19580TIP3    H180155   0.623   4.152   4.455 -0.2649  1.9889 -1.5307
19580TIP3    H280156   0.525   4.235   4.534  0.0134 -0.8660  1.9335
19581TIP3   OH280157   5.735   6.084   6.206  0.1674 -0.0453 -0.4291
19581TIP3    H180158   5.810   6.062   6.151  1.7858 -2.1426  2.4565
19581TIP3    H280159   5.676   6.009   6.198  1.5437 -1.5285  2.4644
19582TIP3   OH280160   2.793   2.364   1.979 -0.1095  0.0354  0.2058
19582TIP3    H180161   2.852   2.295   2.007  1.9806  1.7640  0.2187
19582TIP3    H280162   2.737   2.381   2.055 -1.4074 -2.3564 -0.1609
19583TIP3   OH280163   1.744   3.055   4.850  0.2427  0.1170 -0.3471
19583TIP3    H180164   1.821   3.064   4.907  0.2662  1.3326 -0.5686
19583TIP3    H280165   1.725   3.144   4.820 -1.8828 -0.0255  0.5139
19584TIP3   OH280166   1.077   0.616  13.973  0.1609 -1.1186  0.3908
19584TIP3    H180167   1.055   0.586  14.061 -0.3734  0.0131  0.6550
19584TIP3    H280168   1.119   0.541  13.931 -2.5520 -2.7594  0.4884
19585TIP3   OH280169   3.892   3.544  11.944 -0.5734 -0.4479 -0.1769
19585TIP3    H180170   3.856   3.625  11.979  0.8472  0.3385 -0.5286
19585TIP3    H280171   3.958   3.516  12.007  1.9625  0.9497 -2.1170
19586TIP3   OH280172   0.415   3.061  16.694 -0.0720  0.4951 -0.5024
19586TIP3    H180173   0.385   3.097  16.777  1.1977  0.0126  0.1762
19586TIP3    H280174   0.346   3.083  16.632 -0.9700  0.9700  0.6527
19587TIP3   OH280175   5.205   5.040  15.541  0.6629  0.2540 -0.2370
19587TIP3    H180176   5.293   5.003  15.548  0.6063  0.3225  0.8129
19587TIP3    H280177   5.220   5.134  15.528  0.7264  0.6420  2.3508
19588TIP3   OH280178   3.785   4.253   5.883 -0.0250 -1.2113 -0.0137
19588TIP3    H180179   3.735   4.238   5.802 -2.6630  0.1102  1.2790
19588TIP3    H280180   3.813   4.166   5.910 -0.4549 -1.8446 -1.5589
19589TIP3   OH280181   6.376   2.714   2.446  0.2502  0.2697  0.2989
19589TIP3    H180182   6.350   2.697   2.536  5.3870  0.0427  1.9015
19589TIP3    H280183   6.376   2.629   2.403 -1.9970  0.3524  0.0723
19590TIP3   OH280184   2.979   1.102  12.227 -0.4439 -0.1728 -0.0149
19590TIP3    H180185   2.990   1.007  12.214 -1.5542 -0.3930  0.6210
19590TIP3    H280186   3.065   1.139  12.205 -0.7028 -1.0653 -2.7685
19591TIP3   OH280187   3.000   4.301  11.952 -0.5356  0.6482 -0.5137
19591TIP3    H180188   3.074   4.336  12.003 -0.0604  1.9603 -2.0367
19591TIP3    H280189   3.040   4.236  11.894 -1.2362 -1.5905  1.4655
19592TIP3   OH280190   4.516   5.753   2.879 -0.3654 -0.5067  0.3048
19592TIP3    H180191   4.486   5.697   2.808 -1.6044 -0.5111  0.8155
19592TIP3    H280192   4.606   5.777   2.855 -0.6846 -0.7062 -1.1277
19593TIP3   OH280193   4.141   0.369  15.227 -0.5693 -0.0516  0.4028
19593TIP3    H180194   4.131   0.454  15.185 -1.7079 -0.2389  0.2768
19593TIP3    H280195   4.091   0.376  15.308  2.6325  0.7289  2.4176
19594TIP3   OH280196   1.370   1.576  11.406  0.6824 -0.3818  0.5416
19594TIP3    H180197   1.285   1.542  11.436  0.1959 -0.1492 -0.5570
19594TIP3    H280198   1.348   1.642  11.341  1.6725  0.8418  1.4124
19595TIP3   OH280199   5.328   1.302  12.306  0.0203 -0.6656  0.2914
19595TIP3    H180200   5.297   1.269  12.390  1.5344 -2.1362  0.2975
19595TIP3    H280201   5.417   1.269  12.299  1.1874  2.5108 -0.2439
19596TIP3   OH280202   0.821   2.083   0.600 -0.4163  0.0436 -0.5484
19596TIP3    H180203   0.911   2.096   0.630 -0.4704 -0.7784 -0.0097
19596TIP3    H280204   0.773   2.058   0.679 -0.5970 -2.0018 -1.2837
19597TIP3   OH280205   6.259   2.036  16.806  0.6759 -0.3397  0.4158
19597TIP3    H180206   6.329   2.101  16.812  0.3822  0.0345 -0.2306
19597TIP3    H280207   6.300   1.955  16.835  1.5340 -0.2362 -0.4905
19598TIP3   OH280208   2.058   2.869  16.030 -0.0372  0.1545 -0.5251
19598TIP3    H180209   2.096   2.792  15.988 -2.0022  0.4657 -2.9632
19598TIP3    H280210   2.127   2.900  16.089  1.6984 -2.0110 -1.3410
19599TIP3   OH280211   6.495   1.167  17.037  0.1120 -0.2808  0.3397
19599TIP3    H180212   6.523   1.258  17.031  0.2487 -0.2521  1.3366
19599TIP3    H280213   6.509   1.132  16.949 -0.4255  0.7931 -0.1729
19600TIP3   OH280214   6.660   6.578   4.471  0.4567  0.1015  0.0968
19600TIP3    H180215   6.736   6.622   4.433  0.9983 -1.0643 -0.1879
19600TIP3    H280216   6.636   6.511   4.407 -1.2373  0.8938 -0.1326
19601TIP3   OH280217   0.621   0.436   5.327  0.3453 -0.0135  0.4321
19601TIP3    H180218   0.661   0.350   5.312  0.2145  0.1647 -0.9300
19601TIP3    H280219   0.692   0.488   5.365  0.9254 -0.2159 -0.3492
19602TIP3   OH280220   2.339   2.429   5.525 -0.3043 -0.1532  0.1681
19602TIP3    H180221   2.319   2.488   5.453  0.7860 -0.7715 -0.6495
19602TIP3    H280222   2.279   2.355   5.512  0.8447 -0.9013 -0.9015
19603TIP3   OH280223   5.030   6.520   3.969  0.1393  0.0238  0.4108
19603TIP3    H180224   5.100   6.585   3.963  1.2624 -1.1788  0.1170
19603TIP3    H280225   5.049   6.459   3.898  0.6716 -2.1161  2.3334
19604TIP3   OH280226   6.615   1.996   2.647  0.4785  0.0538 -0.1131
19604TIP3    H180227   6.678   1.944   2.697 -0.8893  0.8294  2.5304
19604TIP3    H280228   6.649   2.085   2.651  0.3406  0.1259 -0.5247
19605TIP3   OH280229   4.542   0.276   0.775  0.2117  0.0750 -0.0280
19605TIP3    H180230   4.528   0.196   0.825  0.7841  0.1806  0.3173
19605TIP3    H280231   4.512   0.346   0.833 -0.1489  0.1185 -0.2691
19606TIP3   OH280232   5.285   1.728  11.038  0.4021 -0.1248 -0.5171
19606TIP3    H180233   5.193   1.714  11.060  0.3618  0.7390 -0.0806
19606TIP3    H280234   5.306   1.659  10.976 -0.8365  0.3053 -1.4321
19607TIP3   OH280235   1.899   1.924   1.643  0.1330 -0.3331  0.3657
19607TIP3    H180236   1.836   1.995   1.655  1.4564  0.9173  0.0438
19607TIP3    H280237   1.896   1.904   1.549  0.1234 -0.3604  0.3718
19608TIP3   OH280238   1.372   0.095  11.418  0.6211 -0.0834 -0.3798
19608TIP3    H180239   1.408   0.154  11.484 -0.8651  0.0316  0.3400
19608TIP3    H280240   1.390   0.007  11.452 -1.0860 -0.0265  0.7226
19609TIP3   OH280241   5.942   4.442   5.063 -0.5934  0.3868  0.2092
19609TIP3    H180242   5.944   4.483   5.150 -1.3168 -2.2091  1.5051
19609TIP3    H280243   6.034   4.439   5.036 -0.4346  1.9008  0.5306
19610TIP3   OH280244   0.338   5.247  15.968  0.0874 -0.3991  0.2589
19610TIP3    H180245   0.344   5.213  16.057 -1.2549 -0.5128  0.3134
19610TIP3    H280246   0.348   5.342  15.978  4.6775 -0.7230  0.0245
19611TIP3   OH280247   5.137   6.577   0.599  0.5414 -0.3562  0.2292
19611TIP3    H180248   5.107   6.662   0.630  1.9144 -0.4926  2.0490
19611TIP3    H280249   5.159   6.591   0.507  2.5926  1.7533  1.0038
19612TIP3   OH280250   3.792   5.798  12.388 -0.7933 -0.1022  0.0709
19612TIP3    H180251   3.815   5.716  12.344 -0.1035 -0.1667  0.5358
19612TIP3    H280252   3.812   5.866  12.324 -0.9340 -0.2665 -0.1495
19613TIP3   OH280253   1.246   3.962   0.449 -0.5167 -0.1311 -0.4955
19613TIP3    H180254   1.240   4.043   0.399 -0.0634  0.1108 -0.1582
19613TIP3    H280255   1.157   3.948   0.483 -0.0844  1.4576  1.3679
19614TIP3   OH280256   6.565   5.913  10.591 -0.2402  0.3407 -0.1093
19614TIP3    H180257   6.483   5.933  10.547 -0.7098  0.0766  0.6378
19614TIP3    H280258   6.610   5.997  10.597 -0.5971  0.5413 -0.2431
19615TIP3   OH280259   1.922   5.484  13.126 -0.1113 -0.1997  0.2858
19615TIP3    H180260   1.946   5.452  13.213 -0.4184  0.0706  0.4701
19615TIP3    H280261   1.853   5.549  13.142 -0.2932 -0.2790 -0.1706
19616TIP3   OH280262   1.555   5.736  14.421  0.0499  0.1187 -0.0807
19616TIP3    H180263   1.534   5.743  14.328 -0.7872  1.1391  0.1676
19616TIP3    H280264   1.564   5.827  14.450 -2.1390 -0.0772  1.3622
19617TIP3   OH280265   6.722   5.237   3.180  0.3748 -0.1349  0.3065
19617TIP3    H180266   6.715   5.197   3.266  2.0783 -1.9598 -0.3464
19617TIP3    H280267   6.655   5.193   3.128 -2.4617  2.8426  1.3222
19618TIP3   OH280268   2.108   2.552   4.643 -0.2716  0.2561 -0.1477
19618TIP3    H180269   2.129   2.487   4.711  0.8474  0.9882  0.2255
19618TIP3    H280270   2.013   2.547   4.633 -0.1314 -1.8448 -0.5387
19619TIP3   OH280271   1.373   2.715   2.101 -0.1517  0.8363 -0.1592
19619TIP3    H180272   1.421   2.781   2.052 -0.8046  0.4348 -1.3669
19619TIP3    H280273   1.331   2.764   2.172 -0.9880  1.8073 -1.2933
19620TIP3   OH280274   0.488   4.273  10.971 -0.0076  0.4157  0.4459
19620TIP3    H180275   0.414   4.227  11.011 -0.1857 -1.0970 -1.5422
19620TIP3    H280276   0.454   4.361  10.951 -1.0148 -0.0091  0.2866
19621TIP3   OH280277   2.834   2.900  13.573  0.3705 -0.2960 -0.1422
19621TIP3    H180278   2.869   2.844  13.505 -0.4079 -2.4369  1.1722
19621TIP3    H280279   2.774   2.959  13.527  2.1016  0.3073 -1.7015
19622TIP3   OH280280   6.772   4.140   4.995 -0.0866  0.1081  0.0486
19622TIP3    H180281   6.708   4.111   5.060 -0.1904  2.2169  0.9465
19622TIP3    H280282   6.795   4.061   4.946 -2.9261 -0.7911  0.0917
19623TIP3   OH280283   5.555   1.038   2.073  0.2671  0.1376  0.4362
19623TIP3    H180284   5.528   1.128   2.094  0.7010  0.1692  0.8558
19623TIP3    H280285   5.474   0.996   2.042  0.2325  0.9116 -0.5815
19624TIP3   OH280286   0.463   6.205   4.867 -0.3762  0.0918 -0.6495
19624TIP3    H180287   0.470   6.300   4.879 -2.1107  0.0580  0.7938
19624TIP3    H280288   0.554   6.176   4.856  0.1961  1.8813 -0.8927
19625TIP3   OH280289   0.936   3.314  13.708  0.2100  0.4593  0.3079
19625TIP3    H180290   0.921   3.254  13.635 -1.2135 -1.2397  1.9574
19625TIP3    H280291   1.029   3.336  13.701 -0.1676  1.2734 -2.7010
19626TIP3   OH280292   1.208   3.507   2.637 -0.1790  0.2064 -0.0622
19626TIP3    H180293   1.185   3.458   2.559  0.4368 -4.3890  2.4980
19626TIP3    H280294   1.124   3.533   2.674 -0.7054 -2.0993  0.4378
19627TIP3   OH280295   4.775   2.843   1.433  0.1165 -0.7814  0.0524
19627TIP3    H180296   4.803   2.825   1.344  0.0404  1.1469 -0.3697
19627TIP3    H280297   4.856   2.862   1.480  0.0933 -1.2068  0.2734
19628TIP3   OH280298   3.654   3.603   1.074 -0.3104 -0.0477  0.4202
19628TIP3    H180299   3.636   3.693   1.104 -0.3579 -0.1692  0.7608
19628TIP3    H280300   3.701   3.563   1.147 -0.3751 -0.3293  0.3057
19629TIP3   OH280301   1.870   1.780  16.273  0.1245 -0.0473  0.4206
19629TIP3    H180302   1.814   1.703  16.259 -0.1164  0.1806  0.1161
19629TIP3    H280303   1.808   1.851  16.291  0.3084  0.2594 -0.1573
19630TIP3   OH280304   4.150   4.632  16.966  0.4062 -0.0892 -0.2068
19630TIP3    H180305   4.154   4.601  16.876 -0.8681 -0.5522 -0.1157
19630TIP3    H280306   4.214   4.579  17.013  1.7047  0.7442 -0.9954
19631TIP3   OH280307   3.003   1.038  13.252  0.0130 -0.0561 -0.0189
19631TIP3    H180308   3.010   1.092  13.173 -0.5132 -1.1553 -0.8407
19631TIP3    H280309   3.005   0.948  13.219 -0.3546 -0.5222  1.2157
19632TIP3   OH280310   0.676   2.412  16.158  0.3855  0.2841  0.3783
19632TIP3    H180311   0.720   2.461  16.089 -0.8819  0.8438 -0.0568
19632TIP3    H280312   0.667   2.474  16.230  2.2315 -0.4757  1.2756
19633TIP3   OH280313   5.300   6.666   1.975  0.0451 -0.3714  0.7663
19633TIP3    H180314   5.394   6.665   1.962  0.0117 -2.3826  0.5586
19633TIP3    H280315   5.265   6.709   1.897  0.6841 -0.8634  0.2138
19634TIP3   OH280316   4.621   4.865   4.566  0.2733  0.1564 -0.2477
19634TIP3    H180317   4.532   4.860   4.601  0.6606  0.0788  0.7535
19634TIP3    H280318   4.623   4.946   4.516 -0.4445  0.0137 -0.5053
19635TIP3   OH280319   4.749   2.315   5.477 -0.3062  0.7595 -0.2794
19635TIP3    H180320   4.797   2.255   5.420  1.6124  1.0810  0.9211
19635TIP3    H280321   4.741   2.267   5.560 -1.0822  1.1561 -0.1218
19636TIP3   OH280322   5.049   0.461   0.079  1.1467  0.2165  0.4745
19636TIP3    H180323   5.142   0.453   0.062  1.2429 -2.0860  1.9064
19636TIP3    H280324   5.012   0.375   0.057 -0.8230  1.3858 -1.0338
19637TIP3   OH280325   5.407   2.319   5.444 -0.0923 -0.5166 -0.4446
19637TIP3    H180326   5.332   2.318   5.384 -1.4067 -2.6271  1.1847
19637TIP3    H280327   5.421   2.412   5.463 -2.6558 -0.1166 -0.3311
19638TIP3   OH280328   0.480   6.274   4.561  0.1765 -0.5816 -0.1534
19638TIP3    H180329   0.490   6.232   4.647  1.3307  1.0964  0.5646
19638TIP3    H280330   0.548   6.341   4.560 -1.5241  1.1776 -1.3125
19639TIP3   OH280331   1.646   2.436  11.714  0.7157 -0.5544  0.3869
19639TIP3    H180332   1.634   2.396  11.628  1.0335  2.5747 -1.1675
19639TIP3    H280333   1.728   2.399  11.747  2.5042  0.9486 -2.2606
19640TIP3   OH280334   6.358   0.555  11.604  0.1382 -0.7027 -0.2230
19640TIP3    H180335   6.404   0.615  11.545 -0.2997  0.2188  0.3544
19640TIP3    H280336   6.403   0.565  11.688 -0.4566 -0.5643  0.0829
19641TIP3   OH280337   5.159   4.629   1.551  0.3582  0.7420  0.1868
19641TIP3    H180338   5.098   4.690   1.508  0.3904  0.5152 -0.1859
19641TIP3    H280339   5.204   4.585   1.478 -2.5244 -2.6623  0.3060
19642TIP3   OH280340   1.662   4.967  15.581 -0.1622 -0.3229 -0.4731
19642TIP3    H180341   1.673   4.919  15.499  0.9702 -0.3312 -0.3268
19642TIP3    H280342   1.603   4.913  15.633  0.2277 -1.0103 -0.7400
19643TIP3   OH280343   1.655   3.262   6.775 -0.7886 -0.6593 -0.3252
19643TIP3    H180344   1.668   3.354   6.753 -0.4149 -0.4812  0.6190
19643TIP3    H280345   1.700   3.214   6.705  0.5102 -0.1053  0.1079
19644TIP3   OH280346   1.377   0.749  16.738  0.4346 -0.1604  0.0852
19644TIP3    H180347   1.380   0.819  16.804  0.3423 -1.5078  1.5508
19644TIP3    H280348   1.468   0.727  16.722  0.4076 -0.8578  0.8788
19645TIP3   OH280349   2.335   3.866  17.029  0.3426  0.2056  0.0699
19645TIP3    H180350   2.249   3.887  16.994  0.2392  1.4901  1.0661
19645TIP3    H280351   2.374   3.809  16.963 -0.7385  0.7215 -1.0424
19646TIP3   OH280352   0.163   5.072  13.594  0.1290  0.0909  0.8180
19646TIP3    H180353   0.194   5.143  13.538  0.4692 -0.2916  0.5184
19646TIP3    H280354   0.192   4.992  13.550 -1.9025 -0.3130  0.1548
19647TIP3   OH280355   2.844   5.897  12.313 -0.3101  0.2371  0.3515
19647TIP3    H180356   2.795   5.954  12.372  0.9888  0.6933  0.9933
19647TIP3    H280357   2.872   5.824  12.368  0.8669  0.6455  0.3146
19648TIP3   OH280358   2.328   6.318  17.172  0.0020  0.4734  0.1193
19648TIP3    H180359   2.355   6.227  17.162 -2.7972 -0.2940 -0.8533
19648TIP3    H280360   2.365   6.362  17.095  0.2746 -0.0884 -0.0772
19649TIP3   OH280361   3.418   0.916  15.226 -0.7158  0.0103  0.1860
19649TIP3    H180362   3.377   0.915  15.139 -0.6560 -0.9553  0.1580
19649TIP3    H280363   3.395   1.001  15.262  2.6065  2.0873 -2.3568
19650TIP3   OH280364   4.348   2.016   6.873 -0.0548 -0.1032  0.3227
19650TIP3    H180365   4.270   2.020   6.928 -1.2098 -2.2493 -1.0719
19650TIP3    H280366   4.387   2.103   6.879 -1.5159  0.4239  2.5254
19651TIP3   OH280367   0.547   0.948   4.795  0.0899 -0.2441 -0.4605
19651TIP3    H180368   0.639   0.931   4.774  0.2747 -0.0772  0.1860
19651TIP3    H280369   0.529   1.034   4.759  0.1445 -0.3452 -0.7276
19652TIP3   OH280370   0.080   3.762   2.416 -0.3953  0.3203  0.4897
19652TIP3    H180371   0.052   3.671   2.411  0.0989  0.2164 -0.3951
19652TIP3    H280372   0.174   3.758   2.428 -0.1118  0.7211 -1.3936
19653TIP3   OH280373   3.285   6.152   3.430  0.0205 -0.4630 -0.1627
19653TIP3    H180374   3.368   6.104   3.421 -0.2421 -0.7389 -1.2348
19653TIP3    H280375   3.243   6.142   3.344 -0.1510  1.4778 -0.3323
19654TIP3   OH280376   6.113   1.437  13.289  0.1945 -0.2967  0.5272
19654TIP3    H180377   6.040   1.448  13.350  0.0902  0.0635  0.3373
19654TIP3    H280378   6.071   1.415  13.206  0.3863 -1.9048  0.8420
19655TIP3   OH280379   0.423   4.821  15.081 -0.1882  0.0387  0.3136
19655TIP3    H180380   0.499   4.764  15.090  0.6103  1.1334  0.4677
19655TIP3    H280381   0.417   4.839  14.987 -2.2645 -2.7619 -0.1702
19656TIP3   OH280382   2.497   5.700   6.406 -0.2138 -0.4457 -0.2859
19656TIP3    H180383   2.575   5.661   6.367 -0.8313 -0.0266 -1.9912
19656TIP3    H280384   2.424   5.665   6.355 -0.9812  0.8106 -0.0820
19657TIP3   OH280385   1.091   0.034  17.038 -0.4819  0.0417 -0.6167
19657TIP3    H180386   1.063  -0.057  17.049 -0.0535  0.2726  3.0673
19657TIP3    H280387   1.025   0.085  17.084  2.5152  1.0555  2.7997
19658TIP3   OH280388   4.199   0.247   2.341 -0.1492  0.0936 -0.0351
19658TIP3    H180389   4.110   0.215   2.329 -0.7984  1.6400  0.5954
19658TIP3    H280390   4.235   0.250   2.252 -0.1458 -2.1310 -0.1271
19659TIP3   OH280391   5.754   4.129  12.190 -0.3132 -0.0089  0.2756
19659TIP3    H180392   5.670   4.091  12.165  0.1420 -0.5190 -0.4842
19659TIP3    H280393   5.747   4.142  12.285 -1.0793 -0.4599  0.2827
19660TIP3   OH280394   6.429   3.280   0.064 -0.0917 -0.3765  0.4492
19660TIP3    H180395   6.366   3.294   0.135  1.3467 -0.5005  1.7938
19660TIP3    H280396   6.475   3.364   0.056 -0.1702 -0.3991 -0.2531
19661TIP3   OH280397   0.551   2.769   5.541  0.3465  0.1769  0.6386
19661TIP3    H180398   0.516   2.750   5.454 -0.5470 -0.5014  1.1376
19661TIP3    H280399   0.523   2.695   5.594  0.6380  0.7329  1.5701
19662TIP3   OH280400   5.378   6.139   3.048  0.1594 -0.2125 -0.1508
19662TIP3    H180401   5.380   6.198   2.973 -3.3053  0.3734  0.1320
19662TIP3    H280402   5.416   6.190   3.120  1.4024  0.0100 -0.9492
19663TIP3   OH280403   2.820   6.506   2.723 -0.1680 -0.3610  0.3101
19663TIP3    H180404   2.792   6.442   2.658  0.7785 -2.2778  1.7158
19663TIP3    H280405   2.911   6.524   2.702  0.1503 -1.0096  1.0791
19664TIP3   OH280406   1.921   1.621   1.138 -0.3419 -0.5755 -0.4017
19664TIP3    H180407   1.881   1.708   1.133  0.8295  0.1649  2.5201
19664TIP3    H280408   2.008   1.633   1.100 -0.0638 -0.4134  0.2954
19665TIP3   OH280409   5.678   6.156   3.008 -0.2414 -0.0216 -0.2557
19665TIP3    H180410   5.605   6.208   2.973 -1.3147  0.0749  2.0170
19665TIP3    H280411   5.739   6.221   3.043  0.2616 -0.1615 -0.8643
19666TIP3   OH280412   4.674   0.838  10.492 -0.2795  0.7500 -0.3045
19666TIP3    H180413   4.617   0.761  10.483 -0.1488  0.4445  1.2734
19666TIP3    H280414   4.759   0.810  10.459 -0.3506  0.3588 -0.1521
19667TIP3   OH280415   2.170   6.604   0.716  0.8777  0.5307  0.3039
19667TIP3    H180416   2.167   6.648   0.801 -0.3064 -0.3448  0.7417
19667TIP3    H280417   2.238   6.538   0.726  0.4915  0.1881  0.7045
19668TIP3   OH280418   4.096   1.342   5.560  0.1362 -0.6010  0.5433
19668TIP3    H180419   4.092   1.395   5.480  1.1454 -1.7738 -0.2969
19668TIP3    H280420   4.142   1.398   5.623  0.2548 -0.0736 -0.0055
19669TIP3   OH280421   3.913   1.435  16.164 -0.3478 -0.2981  0.1008
19669TIP3    H180422   3.914   1.357  16.109 -2.1916 -0.7053  0.6111
19669TIP3    H280423   3.850   1.415  16.233 -0.1000  1.2589  0.8063
19670TIP3   OH280424   2.915   6.567   0.628  0.3270  0.1419 -0.1638
19670TIP3    H180425   2.879   6.500   0.686 -0.1521  0.7663  0.2671
19670TIP3    H280426   2.885   6.650   0.665 -1.1945  0.4974 -2.1231
19671TIP3   OH280427   0.232   0.934   3.590 -0.3789  0.0152 -0.2632
19671TIP3    H180428   0.251   0.881   3.668 -0.9447 -0.1394 -0.2269
19671TIP3    H280429   0.310   0.989   3.578 -0.7892  0.9079  1.1170
19672TIP3   OH280430   2.493   5.200  14.236  0.2005 -0.0077 -0.3182
19672TIP3    H180431   2.425   5.191  14.303  1.2337  1.4671  0.9489
19672TIP3    H280432   2.461   5.146  14.163 -2.4660  0.8714  0.1274
19673TIP3   OH280433   4.178   5.366   1.637 -0.3987  0.0925 -0.7098
19673TIP3    H180434   4.146   5.360   1.547  0.6264 -0.9182 -1.0070
19673TIP3    H280435   4.149   5.453   1.666  0.3352  0.9450 -2.4237
19674TIP3   OH280436   3.730   5.222   3.913 -0.2144  0.1090 -0.4707
19674TIP3    H180437   3.658   5.205   3.852  0.3091 -2.8200 -0.3237
19674TIP3    H280438   3.807   5.230   3.857 -0.2093  0.4461 -0.4168
19675TIP3   OH280439   2.551   2.097  12.961  0.0494  0.2727  0.0652
19675TIP3    H180440   2.639   2.129  12.938 -0.1691  1.6752  1.0955
19675TIP3    H280441   2.495   2.175  12.953 -0.8803 -0.3312  0.6379
19676TIP3   OH280442   4.725   4.585  16.445  0.1059 -0.3269  0.5803
19676TIP3    H180443   4.645   4.565  16.493 -0.4736  0.5423 -0.0352
19676TIP3    H280444   4.762   4.661  16.490 -1.2355  1.4632 -1.2656
19677TIP3   OH280445   6.251   4.986  16.049 -0.3301  0.8072 -0.7235
19677TIP3    H180446   6.301   4.911  16.078 -0.9284  1.0789  1.0848
19677TIP3    H280447   6.229   4.967  15.958  0.6271 -0.5898 -0.6711
19678TIP3   OH280448   4.266   6.499  12.526  0.5442 -0.1116  0.2979
19678TIP3    H180449   4.305   6.539  12.604 -1.7628  3.0250 -0.0651
19678TIP3    H280450   4.312   6.541  12.453 -0.1830  0.0773 -0.0574
19679TIP3   OH280451   2.445   6.405  14.237 -0.3219  0.1152  0.3324
19679TIP3    H180452   2.520   6.464  14.239  0.3223 -0.6668 -0.5390
19679TIP3    H280453   2.374   6.458  14.200 -0.9389  1.6481  3.4668
19680TIP3   OH280454   6.265   3.156  10.998  0.3983 -0.0749  0.1571
19680TIP3    H180455   6.218   3.147  10.915  0.0823  0.4164  0.2830
19680TIP3    H280456   6.227   3.089  11.055 -0.3711  0.5142  0.3550
19681TIP3   OH280457   5.853   5.067  16.216 -0.4618 -0.2471 -0.1757
19681TIP3    H180458   5.815   5.152  16.238  1.8074  0.6424  0.5208
19681TIP3    H280459   5.942   5.088  16.186  0.6277 -2.4679  1.3495
19682TIP3   OH280460   1.560   2.351   5.365  0.3726 -0.2125  0.6280
19682TIP3    H180461   1.538   2.443   5.379 -0.5059 -0.0232 -1.6669
19682TIP3    H280462   1.494   2.302   5.415 -1.1268  0.4134 -0.6730
19683TIP3   OH280463   5.242   4.532   1.312 -0.3619  0.6202 -0.2076
19683TIP3    H180464   5.261   4.446   1.350  1.4386  0.8828 -0.4405
19683TIP3    H280465   5.223   4.514   1.220 -1.9558  0.2686  0.1892
19684TIP3   OH280466   1.395   4.932   4.254  0.4601 -0.5886 -0.5370
19684TIP3    H180467   1.338   4.968   4.186  1.8996  1.1621 -0.8565
19684TIP3    H280468   1.363   4.843   4.266 -1.1077 -0.2822 -2.0761
19685TIP3   OH280469   5.120   0.977  11.306  0.5245 -0.1273  0.1909
19685TIP3    H180470   5.126   0.888  11.272 -0.6147 -0.0665 -0.1718
19685TIP3    H280471   5.176   1.029  11.249  0.4792 -0.4474 -0.1429
19686TIP3   OH280472   3.859   2.233  14.646  0.0799  0.2205 -0.3355
19686TIP3    H180473   3.948   2.260  14.668  0.3630 -1.1822  0.3333
19686TIP3    H280474   3.867   2.140  14.625 -1.3515 -0.1138  0.5085
19687TIP3   OH280475   3.895   2.190  13.508  0.1602 -0.0855  0.1148
19687TIP3    H180476   3.948   2.115  13.480  0.0894  0.2226 -0.8902
19687TIP3    H280477   3.827   2.196  13.441  0.4849  1.2082 -0.1043
19688TIP3   OH280478   5.067   5.424  11.115  0.3053  0.4086 -0.3087
19688TIP3    H180479   5.131   5.492  11.139  0.9179 -0.3076  0.1089
19688TIP3    H280480   5.120   5.354  11.077 -0.3658  0.3187 -1.0924
19689TIP3   OH280481   3.904   0.496  14.414 -0.0865  0.1371  0.3926
19689TIP3    H180482   3.981   0.534  14.457  0.4784 -1.1841  0.5577
19689TIP3    H280483   3.886   0.555  14.341  1.3034  0.2399  0.1313
19690TIP3   OH280484   0.468   1.325   1.451  0.2167 -0.0876  0.0984
19690TIP3    H180485   0.402   1.377   1.496 -0.2267  0.5347 -1.2465
19690TIP3    H280486   0.486   1.252   1.510 -0.9170  0.2914  0.9215
19691TIP3   OH280487   5.660   1.353  13.324  0.1321  0.5097  0.0512
19691TIP3    H180488   5.699   1.435  13.296  1.7526 -0.4600 -0.5714
19691TIP3    H280489   5.692   1.340  13.413 -1.2215  1.2203  0.6546
19692TIP3   OH280490   0.935   6.457  16.822 -0.3426 -0.0765  0.2453
19692TIP3    H180491   0.891   6.389  16.771  0.6647 -1.0148  0.5982
19692TIP3    H280492   1.005   6.411  16.868  0.2028  1.1642  0.6847
19693TIP3   OH280493   3.297   4.680   1.781  0.4577  0.0731  0.0631
19693TIP3    H180494   3.348   4.617   1.832  1.4290  0.5858 -0.2794
19693TIP3    H280495   3.311   4.764   1.825  0.8379  0.4138 -0.6997
19694TIP3   OH280496   4.668   5.709  16.494 -0.2432 -0.3984 -0.0726
19694TIP3    H180497   4.700   5.736  16.580  0.8018 -1.2829 -0.1662
19694TIP3    H280498   4.732   5.744  16.432 -1.3185  0.7586 -0.5528
19695TIP3   OH280499   6.704   3.961  15.671  0.3179 -0.1065  0.3232
19695TIP3    H180500   6.694   3.909  15.591 -0.1879 -0.0499  0.3521
19695TIP3    H280501   6.721   4.050  15.640  2.7364 -0.5614  0.2578
19696TIP3   OH280502   1.336   0.621   1.397 -0.3280  0.2441  0.1265
19696TIP3    H180503   1.420   0.580   1.380 -0.5510 -0.4825  0.7467
19696TIP3    H280504   1.338   0.644   1.490  0.3807  3.0141 -0.5503
19697TIP3   OH280505   2.898   6.553  16.548  0.3063 -0.1326  0.1699
19697TIP3    H180506   2.866   6.595  16.468  1.3202  0.5848  0.1407
19697TIP3    H280507   2.819   6.541  16.601 -0.3913 -0.6670 -0.9450
19698TIP3   OH280508   0.211   5.690   4.986  0.4659  0.5352  0.2519
19698TIP3    H180509   0.185   5.741   5.063  1.5644  2.6229 -0.7227
19698TIP3    H280510   0.304   5.670   5.001  0.2381 -0.5212  0.2663
19699TIP3   OH280511   3.964   3.766   0.204 -0.1974 -0.2221  0.2292
19699TIP3    H180512   3.975   3.861   0.196 -1.6083 -0.1672 -1.3783
19699TIP3    H280513   4.044   3.730   0.168 -0.4022  0.3411 -0.8181
19700TIP3   OH280514   6.110   2.298   1.670 -0.2207 -0.0533  0.0632
19700TIP3    H180515   6.097   2.341   1.755 -0.7606  0.3313 -0.2046
19700TIP3    H280516   6.203   2.278   1.667 -0.1038  0.4060  0.5289
19701TIP3   OH280517   0.355   3.440   6.679 -0.1481  0.1664  0.4158
19701TIP3    H180518   0.416   3.511   6.661 -0.1113  0.5093  1.8572
19701TIP3    H280519   0.362   3.383   6.602  2.1652  0.0789  0.6465
19702TIP3   OH280520   3.517   0.150  11.439  0.4028 -0.1727 -0.7924
19702TIP3    H180521   3.453   0.162  11.369 -0.1783  0.9352 -0.0873
19702TIP3    H280522   3.516   0.233  11.486  1.1863 -0.7222  0.1993
19703TIP3   OH280523   6.602   5.807   6.231  0.0063  0.5281 -0.4166
19703TIP3    H180524   6.676   5.854   6.269  0.6534  1.1207 -2.3741
19703TIP3    H280525   6.527   5.866   6.242 -0.6718 -0.8785  3.3663
19704TIP3   OH280526   3.002   5.181   5.029  0.0423  0.2306  0.0583
19704TIP3    H180527   3.062   5.256   5.030 -1.5734  1.5768  0.2956
19704TIP3    H280528   3.020   5.135   5.111  0.6132  0.7466  0.2297
19705TIP3   OH280529   4.467   4.100   2.493  0.4771 -0.5362 -0.0569
19705TIP3    H180530   4.387   4.086   2.542  0.8070  1.7707  1.1837
19705TIP3    H280531   4.442   4.158   2.421  1.1926  1.0355  0.9231
19706TIP3   OH280532   5.917   6.342   3.709  0.3200  0.1768  0.1200
19706TIP3    H180533   5.928   6.248   3.721  0.1184 -0.1258 -1.9081
19706TIP3    H280534   5.895   6.375   3.797  0.4361 -1.6401  0.8549
19707TIP3   OH280535   5.404   0.921  14.979 -0.3802 -0.4038  0.4157
19707TIP3    H180536   5.341   0.991  14.960 -2.6109 -2.3680  0.4470
19707TIP3    H280537   5.435   0.893  14.893 -1.5068 -1.2182  0.2832
19708TIP3   OH280538   4.959   3.127   5.750 -0.3571  0.3364 -0.2382
19708TIP3    H180539   5.054   3.131   5.757 -0.5663  1.4242  2.8753
19708TIP3    H280540   4.939   3.033   5.756  0.5313  0.0277 -1.7888
19709TIP3   OH280541   0.847   6.721   4.757 -0.4833  0.5198 -0.3280
19709TIP3    H180542   0.915   6.722   4.825 -2.5771  2.3371  1.8234
19709TIP3    H280543   0.862   6.639   4.710  0.9831 -0.8391  2.3713
19710TIP3   OH280544   6.578   3.809  10.625  0.0053 -0.6719  0.3562
19710TIP3    H180545   6.499   3.863  10.616 -1.1242 -1.8952  2.3442
19710TIP3    H280546   6.619   3.842  10.705  0.7286 -1.0167  0.1223
19711TIP3   OH280547   3.286   3.963  14.812  0.2913 -0.0645 -0.0601
19711TIP3    H180548   3.194   3.987  14.821 -0.0039 -0.7773 -1.0538
19711TIP3    H280549   3.326   4.037  14.767 -0.1489 -0.4182 -1.0732
19712TIP3   OH280550   6.556   6.313  14.680 -0.3548 -0.4377 -0.2558
19712TIP3    H180551   6.488   6.323  14.613 -2.4756 -0.4326  1.8410
19712TIP3    H280552   6.590   6.225  14.665  2.1209  1.0327 -3.9358
19713TIP3   OH280553   3.771   6.228   5.853  0.1772 -0.3678 -0.3214
19713TIP3    H180554   3.789   6.235   5.947  1.2811  0.7468 -0.6068
19713TIP3    H280555   3.694   6.171   5.848  0.2824 -0.6771  1.2412
19714TIP3   OH280556   2.620   2.552  12.504 -0.2803 -0.0238  0.6555
19714TIP3    H180557   2.668   2.518  12.579 -0.7884 -0.2733  0.8728
19714TIP3    H280558   2.683   2.549  12.432 -0.2537 -1.2518  0.7103
19715TIP3   OH280559   3.588   0.239  16.762 -0.5073  0.2420 -0.3078
19715TIP3    H180560   3.612   0.257  16.853 -0.2837  1.5034 -0.6035
19715TIP3    H280561   3.552   0.151  16.764  1.4961 -0.5928  0.6446
19716TIP3   OH280562   2.357   4.555  16.546  0.1078  0.7441 -0.0310
19716TIP3    H180563   2.300   4.511  16.482 -0.9693 -0.3201  1.6193
19716TIP3    H280564   2.432   4.584  16.495 -0.7389 -0.0776 -1.7899
19717TIP3   OH280565   3.576   6.093  16.696 -0.0036 -0.1997  0.1877
19717TIP3    H180566   3.521   6.161  16.657  0.0365  0.7832  1.7965
19717TIP3    H280567   3.662   6.105  16.655  0.3455  1.5792  1.3872
19718TIP3   OH280568   5.196   5.889  15.308 -0.4460 -0.4695 -0.4353
19718TIP3    H180569   5.116   5.879  15.358 -0.5705  2.1391 -0.0499
19718TIP3    H280570   5.169   5.934  15.228  0.6512  0.6040 -0.2127
19719TIP3   OH280571   1.030   1.822  11.540 -0.2278  0.4854  0.0683
19719TIP3    H180572   1.016   1.876  11.462  1.3791 -1.0767 -1.3566
19719TIP3    H280573   1.086   1.874  11.597  1.4630  0.2849 -1.3692
19720TIP3   OH280574   6.197   4.944   2.484 -0.2548 -0.0973 -0.1696
19720TIP3    H180575   6.287   4.955   2.453 -0.0607  1.0869  0.7610
19720TIP3    H280576   6.147   4.925   2.405  1.0725 -2.5198 -0.4694
19721TIP3   OH280577   4.585   3.140  11.772 -0.1061  0.0038  0.0218
19721TIP3    H180578   4.559   3.086  11.697  0.4646  1.0164 -0.9223
19721TIP3    H280579   4.503   3.158  11.817 -0.6765  0.6906 -1.2577
19722TIP3   OH280580   1.993   1.482  12.914 -0.1566  0.0288  0.3525
19722TIP3    H180581   1.939   1.482  12.993 -0.9833 -2.4436 -0.1786
19722TIP3    H280582   1.933   1.454  12.844  1.1883 -0.2593 -0.6938
19723TIP3   OH280583   3.062   4.477   2.775  0.0618  0.4767  0.1721
19723TIP3    H180584   3.157   4.469   2.782  0.3579  1.0714 -2.5557
19723TIP3    H280585   3.032   4.388   2.754  0.2473  0.6738 -0.9637
19724TIP3   OH280586   0.801   4.246   3.310 -0.2068  0.4796  0.7249
19724TIP3    H180587   0.862   4.307   3.269 -1.0863  3.8030  4.1199
19724TIP3    H280588   0.733   4.233   3.244  0.3527  2.6779 -0.3438
19725TIP3   OH280589   4.513   0.814   0.918 -0.4242  0.3425 -0.1772
19725TIP3    H180590   4.476   0.872   0.851  0.4237 -0.2857 -1.1994
19725TIP3    H280591   4.567   0.872   0.972 -1.5169  0.9472  0.2913
19726TIP3   OH280592   1.684   0.616   3.808  0.5925 -0.1733  0.3347
19726TIP3    H180593   1.623   0.561   3.857 -1.1358  0.5047 -1.0249
19726TIP3    H280594   1.730   0.666   3.876 -1.3962  0.3765  1.3303
19727TIP3   OH280595   0.354   4.604   6.213 -0.2920  0.1559  0.1557
19727TIP3    H180596   0.309   4.665   6.271 -0.5244  1.2569 -1.1686
19727TIP3    H280597   0.415   4.657   6.163  2.0970 -1.2370  1.4892
19728TIP3   OH280598   4.338   3.560  16.038 -0.2056  0.2725 -0.2115
19728TIP3    H180599   4.262   3.543  15.982 -1.8913  1.2661  1.7424
19728TIP3    H280600   4.413   3.530  15.985 -2.0375 -2.1756 -1.5428
19729TIP3   OH280601   3.577   3.590   6.360 -0.0843 -0.1604 -0.1868
19729TIP3    H180602   3.589   3.647   6.285 -3.9392 -0.6165 -1.2757
19729TIP3    H280603   3.631   3.513   6.341  2.5435  1.6403 -0.2570
19730TIP3   OH280604   4.730   5.355  16.099  0.0414 -0.9880  0.2322
19730TIP3    H180605   4.658   5.311  16.146  1.0019 -0.3644  2.3570
19730TIP3    H280606   4.774   5.407  16.166  2.1559 -0.9210 -1.1548
19731TIP3   OH280607   4.396   2.994  14.226 -0.3014 -0.3501  0.9611
19731TIP3    H180608   4.323   2.983  14.287 -2.6228 -1.6517 -1.9611
19731TIP3    H280609   4.383   3.081  14.188 -0.1191 -0.4291  0.7129
19732TIP3   OH280610   0.471   1.341   1.860 -0.2221  0.8077 -0.0403
19732TIP3    H180611   0.539   1.307   1.801 -0.5786  0.1112 -0.0464
19732TIP3    H280612   0.393   1.289   1.840 -0.9021  1.9186 -0.3718
19733TIP3   OH280613   5.108   4.061   3.746 -0.9038 -0.4455  0.6765
19733TIP3    H180614   5.139   3.988   3.800  0.5754  0.1819  0.6936
19733TIP3    H280615   5.148   4.045   3.660  0.0655  0.7506  0.8910
19734TIP3   OH280616   0.105   6.685  11.389  0.1478  0.1808  0.1332
19734TIP3    H180617   0.088   6.771  11.428  2.0225  0.9014 -0.5677
19734TIP3    H280618   0.019   6.642  11.386 -0.6952  1.7667  1.1092
19735TIP3   OH280619   5.412   3.854  12.470 -0.1203 -0.7422 -0.3795
19735TIP3    H180620   5.334   3.890  12.426 -0.2174 -0.5049 -0.0121
19735TIP3    H280621   5.484   3.875  12.410  0.0102  1.2134  0.4203
19736TIP3   OH280622   2.739   1.484  16.524 -0.2854 -0.5973  0.1966
19736TIP3    H180623   2.706   1.424  16.590  1.2621 -1.6819  0.0194
19736TIP3    H280624   2.663   1.508  16.472 -1.6749  0.8621  2.7989
19737TIP3   OH280625   1.785   2.427  13.087  0.8480 -0.3400  0.3723
19737TIP3    H180626   1.753   2.346  13.047 -1.3467  1.1690 -1.0486
19737TIP3    H280627   1.728   2.495  13.052  2.3734  1.7832  1.8810
19738TIP3   OH280628   1.046   5.161   0.692 -0.0401  0.0064  0.0020
19738TIP3    H180629   1.103   5.180   0.617  1.2853 -2.4644  0.3403
19738TIP3    H280630   0.958   5.157   0.654  0.4423  0.2167 -1.1667
19739TIP3   OH280631   2.531   1.693   5.694 -0.2739 -0.2905  0.7435
19739TIP3    H180632   2.509   1.748   5.770  1.7507  1.0268  0.4215
19739TIP3    H280633   2.593   1.745   5.644 -2.2306 -0.7644 -2.3423
19740TIP3   OH280634   6.701   5.401  13.227  0.3379 -0.3739 -0.6578
19740TIP3    H180635   6.679   5.414  13.319 -0.8920 -2.7706 -0.5635
19740TIP3    H280636   6.797   5.400  13.225  0.3684 -0.5316  0.6357
19741TIP3   OH280637   2.768   5.834   4.529 -0.2696  0.2293 -0.6675
19741TIP3    H180638   2.714   5.755   4.537  1.1717 -0.7383 -0.3618
19741TIP3    H280639   2.820   5.836   4.610 -1.9541  2.7624  0.4141
19742TIP3   OH280640   1.394   4.076   3.467 -0.1627 -0.7199  0.1570
19742TIP3    H180641   1.375   3.984   3.450 -0.5131 -0.9922  2.0043
19742TIP3    H280642   1.437   4.077   3.553 -0.2913  0.8528  0.2197
19743TIP3   OH280643   5.227   0.749  11.160 -0.7245  0.0841  0.1492
19743TIP3    H180644   5.162   0.678  11.157 -0.7628  0.1186  0.1829
19743TIP3    H280645   5.202   0.808  11.089 -1.3903  0.6784  0.8672
19744TIP3   OH280646   1.021   4.099  15.147 -0.1605  0.5130  0.1807
19744TIP3    H180647   1.000   4.051  15.227  0.7783 -0.1106  0.0531
19744TIP3    H280648   1.104   4.062  15.117 -0.9287  0.1515 -1.5554
19745TIP3   OH280649   2.552   2.935   4.093 -0.0633 -0.6043  0.5549
19745TIP3    H180650   2.586   2.970   4.175  0.9806  0.4804 -0.3292
19745TIP3    H280651   2.627   2.891   4.053 -0.4792 -0.8187  0.0007
19746TIP3   OH280652   0.769   0.003  12.558  0.2005  0.2870  0.2519
19746TIP3    H180653   0.786  -0.091  12.551  0.7024  0.3874  0.0701
19746TIP3    H280654   0.737   0.016  12.647 -1.0319 -0.2340 -0.1159
19747TIP3   OH280655   1.833   2.050   1.984 -0.1657 -0.6958 -0.0588
19747TIP3    H180656   1.857   1.962   1.956 -2.9541 -1.1356 -1.2974
19747TIP3    H280657   1.770   2.037   2.055  0.6767  0.3358  0.8951
19748TIP3   OH280658   0.454   3.534  16.353  0.8469 -0.6019  0.5813
19748TIP3    H180659   0.444   3.559  16.445  0.8351  1.7157 -0.0151
19748TIP3    H280660   0.545   3.556  16.332 -0.1237  2.3009 -0.8996
19749TIP3   OH280661   3.198   2.539  14.046 -0.0618  0.3347 -0.0610
19749TIP3    H180662   3.189   2.582  13.961 -0.1104  0.0276 -0.2149
19749TIP3    H280663   3.125   2.571  14.097  0.4494  1.1739  0.1506
19750TIP3   OH280664   0.116   5.666   4.056  0.1129  0.5513  0.9019
19750TIP3    H180665   0.075   5.615   4.126  0.4700  1.0357  1.4693
19750TIP3    H280666   0.190   5.708   4.098  0.3960  0.7571  0.1966
19751TIP3   OH280667   0.561   0.444  16.001 -0.1863 -0.1449 -0.2246
19751TIP3    H180668   0.656   0.431  15.991 -0.5898 -1.9598 -1.9803
19751TIP3    H280669   0.546   0.435  16.095  1.0933 -2.0949 -0.1832
19752TIP3   OH280670   5.857   0.463   4.850 -0.0183 -0.4299  0.6742
19752TIP3    H180671   5.947   0.480   4.822 -0.5155  0.1986 -0.5987
19752TIP3    H280672   5.845   0.369   4.841 -0.1185 -0.2509 -1.1012
19753TIP3   OH280673   5.180   2.322  11.618 -0.0668  0.3237 -0.7928
19753TIP3    H180674   5.149   2.299  11.705 -0.1294  0.0340 -0.8901
19753TIP3    H280675   5.215   2.411  11.627 -0.1857  0.3405 -0.5025
19754TIP3   OH280676   4.136   0.207   1.795 -0.4091 -0.9544  0.1068
19754TIP3    H180677   4.217   0.159   1.807 -0.1460 -0.5852 -0.1940
19754TIP3    H280678   4.072   0.141   1.769 -0.1059 -1.1804 -0.0646
19755TIP3   OH280679   3.734   2.142   3.277  0.2117 -0.2149  0.2203
19755TIP3    H180680   3.705   2.093   3.200  1.1319 -1.9557  0.9535
19755TIP3    H280681   3.828   2.155   3.263  0.6664 -1.8246  1.7282
19756TIP3   OH280682   1.970   5.842  14.380 -0.3860  0.8347 -0.2263
19756TIP3    H180683   1.974   5.827  14.285  0.3221 -1.2021  0.1008
19756TIP3    H280684   1.883   5.812  14.405 -0.1546  0.2815 -0.0704
19757TIP3   OH280685   3.027   0.341  11.133  0.2794 -0.4474 -0.5130
19757TIP3    H180686   3.122   0.334  11.138  0.2505 -0.9443 -0.6727
19757TIP3    H280687   3.006   0.320  11.042  0.3903  3.9195 -1.6515
19758TIP3   OH280688   5.788   6.710   4.814 -0.1816 -0.5449  0.1149
19758TIP3    H180689   5.715   6.678   4.761 -0.3021  0.2046 -0.1803
19758TIP3    H280690   5.761   6.697   4.904 -1.1712  0.8078  0.0257
19759TIP3   OH280691   5.530   0.303   2.725 -0.2095 -0.3221 -0.0825
19759TIP3    H180692   5.530   0.349   2.809 -0.4005 -3.3974  1.6775
19759TIP3    H280693   5.620   0.273   2.714 -0.3676 -0.5998 -0.6209
19760TIP3   OH280694   2.396   5.096  13.263  0.3756  0.2215  0.1763
19760TIP3    H180695   2.425   5.185  13.245  1.1470  0.0994  0.8039
19760TIP3    H280696   2.302   5.104  13.279  0.3573  0.8546 -0.2264
19761TIP3   OH280697   0.531   4.869  12.769  0.6798  0.2758  0.4874
19761TIP3    H180698   0.514   4.962  12.752 -0.4830  0.1309  0.8402
19761TIP3    H280699   0.461   4.842  12.829  0.5880 -1.0054 -0.1790
19762TIP3   OH280700   3.667   5.714   2.278  0.1774 -0.8184  0.1830
19762TIP3    H180701   3.692   5.634   2.325  0.3257 -1.3732 -0.8339
19762TIP3    H280702   3.676   5.691   2.186 -0.5459  0.1346 -0.1233
19763TIP3   OH280703   5.954   5.628   4.724  0.2631  0.1541  0.1934
19763TIP3    H180704   5.880   5.580   4.688  0.2501  1.2616 -1.2726
19763TIP3    H280705   5.921   5.716   4.740  1.0377  0.4316  0.3016
19764TIP3   OH280706   0.948   0.929   0.492 -0.3575 -0.3924  0.3178
19764TIP3    H180707   0.994   0.846   0.491  2.0018  0.8663  0.7645
19764TIP3    H280708   0.945   0.956   0.400  1.3995  0.3594  0.4687
19765TIP3   OH280709   6.018   2.882   4.677 -0.3649  0.5419  0.1796
19765TIP3    H180710   6.036   2.813   4.614  0.0506  2.6471 -2.0666
19765TIP3    H280711   5.928   2.908   4.660 -0.0808  1.4822  0.0704
19766TIP3   OH280712   6.052   6.707  12.637 -0.1643  0.1861  0.4043
19766TIP3    H180713   6.049   6.698  12.542 -0.9865 -0.8409  0.5147
19766TIP3    H280714   6.141   6.684  12.661 -0.3423 -0.9610  0.0059
19767TIP3   OH280715   6.000   4.953   0.527 -0.1405 -0.0919 -0.1471
19767TIP3    H180716   5.917   4.977   0.486 -0.7968 -1.1815  0.5524
19767TIP3    H280717   6.067   4.986   0.466 -1.0730  0.6251 -0.7932
19768TIP3   OH280718   2.329   0.044  13.057 -0.0467 -0.3603  0.4344
19768TIP3    H180719   2.312   0.127  13.102 -0.0043  0.3784 -0.8585
19768TIP3    H280720   2.268  -0.018  13.096 -0.8635  0.5621  0.6483
19769TIP3   OH280721   4.059   2.346  15.598  0.3201 -0.0425  0.1537
19769TIP3    H180722   4.008   2.267  15.583  0.7275 -0.1404 -0.7373
19769TIP3    H280723   4.148   2.314  15.613  0.0938  0.1069  1.9459
19770TIP3   OH280724   0.437   3.659  16.067 -0.1119  0.6489  0.3520
19770TIP3    H180725   0.499   3.595  16.102  0.6863  1.2015 -0.0268
19770TIP3    H280726   0.381   3.682  16.141  0.6483  0.7417  0.8970
19771TIP3   OH280727   4.627   4.039   3.833 -0.1105  0.0244 -0.0774
19771TIP3    H180728   4.641   4.093   3.911 -1.4781 -0.2580  0.3882
19771TIP3    H280729   4.682   3.963   3.847 -1.4348 -0.7179  1.3410
19772TIP3   OH280730   5.686   0.904   4.346  0.3495  0.0069  0.2925
19772TIP3    H180731   5.596   0.929   4.330 -0.2077 -0.0004  3.1656
19772TIP3    H280732   5.687   0.809   4.335 -0.1403 -0.0710  0.9151
19773TIP3   OH280733   5.971   3.600  13.236 -0.3207  0.7841  0.5511
19773TIP3    H180734   5.948   3.508  13.249 -1.6359  1.1216  0.7000
19773TIP3    H280735   5.995   3.606  13.143 -2.9680  0.8410 -0.1623
19774TIP3   OH280736   6.017   0.896  15.731  0.2568 -0.4524 -0.1910
19774TIP3    H180737   5.968   0.828  15.685 -1.4096 -0.8699  2.1587
19774TIP3    H280738   5.951   0.960  15.757  1.1913 -0.1504  1.5142
19775TIP3   OH280739   4.888   1.746  15.673 -0.7000  0.1108  0.1608
19775TIP3    H180740   4.874   1.732  15.767 -1.4590 -1.2568 -0.1391
19775TIP3    H280741   4.859   1.835  15.657  0.6245  0.7969  1.4649
19776TIP3   OH280742   4.094   0.624   3.982 -0.1409  0.2502 -0.3461
19776TIP3    H180743   4.186   0.598   3.982  0.2130  1.3556  2.2567
19776TIP3    H280744   4.063   0.605   4.070 -2.5451 -0.4717 -1.2908
19777TIP3   OH280745   0.077   1.109   1.093 -0.3383  0.0947 -0.2984
19777TIP3    H180746   0.041   1.164   1.024  0.7427 -0.2934 -1.1917
19777TIP3    H280747   0.031   1.136   1.173  0.7331  2.8170 -0.5678
19778TIP3   OH280748   1.111   0.622   2.852 -0.4024  0.3917  0.1017
19778TIP3    H180749   1.030   0.674   2.851  0.3063  1.5585  1.3960
19778TIP3    H280750   1.093   0.552   2.915 -1.1338 -0.5918 -1.1751
19779TIP3   OH280751   0.367   5.166  16.233 -0.0651  0.1377 -0.0625
19779TIP3    H180752   0.334   5.166  16.323  3.2780 -3.9622  1.3025
19779TIP3    H280753   0.439   5.104  16.234  0.4034  0.3832 -5.5188
19780TIP3   OH280754   6.397   6.004   6.241  0.0808 -0.1000 -0.0871
19780TIP3    H180755   6.412   6.094   6.270 -0.3527  0.2272 -0.8418
19780TIP3    H280756   6.307   6.006   6.206  0.3924 -0.6038 -0.9259
19781TIP3   OH280757   4.031   1.097   3.492  0.2860  0.0816  0.1867
19781TIP3    H180758   3.980   1.052   3.559  1.6609 -0.3674  0.9380
19781TIP3    H280759   4.097   1.147   3.541 -0.4061  1.9098 -0.6953
19782TIP3   OH280760   3.826   0.170   5.899  0.4616 -0.0673 -0.0812
19782TIP3    H180761   3.862   0.160   5.811  1.9835  2.0067  0.2767
19782TIP3    H280762   3.761   0.100   5.906  2.3098 -2.0216 -1.8193
19783TIP3   OH280763   4.281   0.167  13.507 -0.2751 -0.0273 -0.0265
19783TIP3    H180764   4.316   0.255  13.489 -0.1765 -0.0908 -0.1421
19783TIP3    H280765   4.354   0.120  13.547 -0.1237 -0.2628 -0.5692
19784TIP3   OH280766   2.374   6.538   0.447 -0.5535 -0.3952 -0.2092
19784TIP3    H180767   2.460   6.572   0.422 -1.2838 -0.4207 -2.8564
19784TIP3    H280768   2.393   6.471   0.513  1.2911  0.9601  0.6834
19785TIP3   OH280769   1.542   6.051   1.544 -0.0850  0.2703 -0.6081
19785TIP3    H180770   1.509   5.976   1.494  2.0893  0.5631 -2.5849
19785TIP3    H280771   1.579   6.110   1.477 -0.8099  2.6319  0.9884
19786TIP3   OH280772   1.419   4.899  16.795  0.0477 -0.4360 -0.5169
19786TIP3    H180773   1.400   4.857  16.712 -0.1600 -0.5702 -0.4033
19786TIP3    H280774   1.379   4.986  16.788  1.1265  0.0203 -1.0354
19787TIP3   OH280775   3.533   5.957   2.265  0.1987 -0.5515  0.2733
19787TIP3    H180776   3.454   5.918   2.302 -0.8264 -1.2514 -2.5189
19787TIP3    H280777   3.600   5.890   2.274  0.5290  0.0538  2.6738
19788TIP3   OH280778   3.278   5.385   0.957  0.1314 -0.5128 -0.0707
19788TIP3    H180779   3.372   5.379   0.940  0.4232  2.7935  0.0345
19788TIP3    H280780   3.271   5.394   1.052 -0.4095 -2.0596  0.0565
19789TIP3   OH280781   1.797   1.077  11.602  0.3250  0.0054  0.1207
19789TIP3    H180782   1.729   1.053  11.539 -0.7280  1.7207  0.5694
19789TIP3    H280783   1.869   1.109  11.548 -0.5497  1.4109 -0.2319
19790TIP3   OH280784   5.363   2.348  13.945 -0.2557  0.3046 -0.1463
19790TIP3    H180785   5.417   2.408  13.894  0.1644 -0.4649 -0.5965
19790TIP3    H280786   5.421   2.276  13.969 -1.1690 -0.7121 -0.9517
19791TIP3   OH280787   4.532   4.992  12.733  0.6078  0.3597 -0.2037
19791TIP3    H180788   4.504   4.940  12.808 -0.9942  0.3030 -0.8276
19791TIP3    H280789   4.569   4.928  12.672 -3.1866 -0.4091 -1.8403
19792TIP3   OH280790   4.777   0.336  14.599  0.2534  0.0700 -0.2819
19792TIP3    H180791   4.768   0.325  14.504 -2.7274  1.6572 -0.2477
19792TIP3    H280792   4.692   0.308  14.634  1.2265 -0.2076  1.8816
19793TIP3   OH280793   6.667   2.192  14.171  0.3760  0.2918  1.1378
19793TIP3    H180794   6.725   2.268  14.165  0.0280  0.4962  0.3677
19793TIP3    H280795   6.715   2.123  14.126 -0.4440  0.7440 -0.4447
19794TIP3   OH280796   4.771   2.942  12.442 -0.6341  0.8373  0.5323
19794TIP3    H180797   4.779   2.864  12.388 -0.1275  0.3634  1.2979
19794TIP3    H280798   4.861   2.971  12.457 -0.8048  1.3844  0.5282
19795TIP3   OH280799   0.142   1.012   4.802  0.8551  0.5722  0.3557
19795TIP3    H180800   0.120   1.085   4.743 -2.5344 -0.4994  0.1987
19795TIP3    H280801   0.098   0.936   4.764  2.5259 -1.1406  1.7389
19796TIP3   OH280802   1.252   2.019  14.692  0.3976  0.1532 -0.6297
19796TIP3    H180803   1.264   1.952  14.625  1.3177 -0.5774  0.2534
19796TIP3    H280804   1.157   2.034  14.694  0.3037 -0.2729 -1.6463
19797TIP3   OH280805   3.074   4.736   2.911 -0.3894  0.3956  0.2981
19797TIP3    H180806   3.105   4.646   2.902 -1.1628  0.1286  0.2620
19797TIP3    H280807   3.144   4.790   2.873 -0.2532 -0.2383 -0.3557
19798TIP3   OH280808   2.316   1.901   5.169 -0.0718 -0.1509 -0.6159
19798TIP3    H180809   2.242   1.912   5.228 -0.0783  0.2913 -0.7067
19798TIP3    H280810   2.278   1.900   5.081 -0.1008 -1.1558 -0.6029
19799TIP3   OH280811   5.260   3.992   6.060  0.2623 -0.1344  0.2862
19799TIP3    H180812   5.317   4.043   6.004 -0.8003 -2.2681 -2.9218
19799TIP3    H280813   5.172   4.007   6.025 -0.6341 -0.3485  2.3541
19800TIP3   OH280814   2.386   2.193  11.202  0.1523  0.3306 -0.6823
19800TIP3    H180815   2.428   2.217  11.119  2.4476  0.7097  0.5504
19800TIP3    H280816   2.423   2.107  11.223 -0.3928  0.2599 -0.0220
19801TIP3   OH280817   3.825   3.567  11.673  0.3554 -0.0010 -0.2309
19801TIP3    H180818   3.735   3.588  11.697  0.3909  1.4038 -1.2125
19801TIP3    H280819   3.866   3.540  11.755 -0.6878  0.3733  0.4277
19802TIP3   OH280820   1.957   5.474   2.235 -0.2547  0.4493 -0.5075
19802TIP3    H180821   2.051   5.493   2.230  0.0343 -0.8866 -0.2451
19802TIP3    H280822   1.946   5.393   2.185 -1.0214 -0.2407  0.7624
19803TIP3   OH280823   2.725   5.214  16.365 -0.3330 -0.2463 -0.5785
19803TIP3    H180824   2.668   5.177  16.433 -0.1874  0.8929  0.1778
19803TIP3    H280825   2.807   5.165  16.374 -0.5098 -0.4957 -0.3011
19804TIP3   OH280826   6.538   0.763  13.866  0.9082  0.1223  0.2147
19804TIP3    H180827   6.625   0.803  13.873  0.1366  1.6674  1.0809
19804TIP3    H280828   6.504   0.762  13.955 -0.3912  0.4615 -0.2648
19805TIP3   OH280829   1.679   2.723  13.836 -0.2152  0.7157 -0.2364
19805TIP3    H180830   1.721   2.809  13.831  1.6986 -0.2018 -0.0498
19805TIP3    H280831   1.726   2.677  13.905 -1.9562 -0.1190  0.4377
19806TIP3   OH280832   2.389   1.619  12.075  0.2047  0.2628  0.4272
19806TIP3    H180833   2.331   1.562  12.025  0.0638 -0.3240  1.2401
19806TIP3    H280834   2.474   1.609  12.034 -0.0983  0.4857 -0.2587
19807TIP3   OH280835   0.479   2.971  15.321 -0.0437 -0.4887 -0.1478
19807TIP3    H180836   0.512   2.918  15.393  0.5793  0.2458  0.1137
19807TIP3    H280837   0.536   2.950  15.247  1.1240  0.8631  0.3342
19808TIP3   OH280838   2.767   6.398   6.183  0.3284  0.3720  0.0616
19808TIP3    H180839   2.783   6.316   6.135 -2.0875  0.5337 -1.1338
19808TIP3    H280840   2.854   6.433   6.201  1.3678 -0.6531 -2.6190
19809TIP3   OH280841   4.919   4.023  16.827 -0.1556  0.1763  0.2756
19809TIP3    H180842   4.883   4.087  16.765  0.8899  0.1737 -0.3518
19809TIP3    H280843   4.878   3.940  16.802 -0.7181  0.4085  0.4170
19810TIP3   OH280844   1.420   5.564   4.488  0.0478 -0.1887  0.1151
19810TIP3    H180845   1.338   5.568   4.439  0.3386 -0.7304 -0.4304
19810TIP3    H280846   1.421   5.476   4.526  0.3846 -0.1929  0.0989
19811TIP3   OH280847   6.411   5.225   3.505 -0.7601 -0.6083  0.0685
19811TIP3    H180848   6.424   5.247   3.597 -0.3176 -1.5232  0.2347
19811TIP3    H280849   6.318   5.243   3.488 -0.8750 -0.5843  0.7372
19812TIP3   OH280850   3.662   2.747   6.013 -0.3764 -0.2931  0.4235
19812TIP3    H180851   3.604   2.721   5.941  0.7233  0.1573 -0.6442
19812TIP3    H280852   3.619   2.823   6.052  1.0830  2.0941 -2.4475
19813TIP3   OH280853   6.378   5.579  12.978  0.2428  0.1755 -0.5761
19813TIP3    H180854   6.458   5.526  12.967  2.5825  3.3432  0.4400
19813TIP3    H280855   6.359   5.574  13.072 -1.6091 -1.6619 -1.0111
19814TIP3   OH280856   3.599   0.388   0.206 -0.2197  0.0449  0.4540
19814TIP3    H180857   3.660   0.421   0.141 -0.7040  0.0172 -0.0223
19814TIP3    H280858   3.567   0.466   0.252 -1.2276  0.2341 -0.5485
19815TIP3   OH280859   6.058   5.129   5.619  0.5489 -0.2193 -0.1763
19815TIP3    H180860   6.004   5.176   5.555  1.9362  0.3988 -0.9341
19815TIP3    H280861   6.002   5.120   5.696 -0.2480  1.4153 -0.5334
19816TIP3   OH280862   1.992   3.607  15.371  0.0301 -0.0456 -0.0863
19816TIP3    H180863   2.016   3.599  15.279  1.9555 -0.0469  0.4066
19816TIP3    H280864   2.072   3.588  15.419 -1.0262 -0.3426  1.6104
19817TIP3   OH280865   4.441   3.651   4.703 -0.4314  0.2223  0.2132
19817TIP3    H180866   4.415   3.561   4.716 -0.0233  0.0988  0.1891
19817TIP3    H280867   4.531   3.656   4.735 -0.8156  0.8832  1.2288
19818TIP3   OH280868   2.589   5.408   5.105 -0.1190 -0.1478 -0.1285
19818TIP3    H180869   2.627   5.493   5.125 -0.3846  0.3540 -1.7274
19818TIP3    H280870   2.637   5.376   5.029 -1.0503 -0.7241 -0.4913
19819TIP3   OH280871   2.012   1.266  16.894 -0.3209  0.0811 -0.2961
19819TIP3    H180872   2.086   1.235  16.946 -0.6402 -0.7671 -0.3305
19819TIP3    H280873   2.051   1.298  16.813 -0.1131 -1.8740 -0.9973
19820TIP3   OH280874   1.966   4.291  15.407 -0.3884 -0.5355  0.0308
19820TIP3    H180875   2.044   4.247  15.442  0.0074 -0.2388 -0.4586
19820TIP3    H280876   1.986   4.305  15.315 -1.1294 -0.6706 -0.1531
19821TIP3   OH280877   1.302   3.702   5.593 -0.2678 -0.7436 -0.3447
19821TIP3    H180878   1.352   3.763   5.538  0.1857  0.5380  1.4576
19821TIP3    H280879   1.278   3.754   5.670 -1.0014 -2.4856  0.6147
19822TIP3   OH280880   5.484   3.037  15.174  0.5173 -0.2025  0.5738
19822TIP3    H180881   5.516   3.006  15.089  1.9346 -3.4641  2.2027
19822TIP3    H280882   5.396   3.000  15.181  0.4027  0.0634  0.5362
19823TIP3   OH280883   5.418   5.752  16.179  0.3349 -0.5336  0.0847
19823TIP3    H180884   5.417   5.829  16.122  2.4206 -0.9273 -0.5198
19823TIP3    H280885   5.508   5.746  16.210  0.4534 -3.2845 -0.6426
19824TIP3   OH280886   3.685   0.582  16.640 -1.1293 -0.3141 -0.0517
19824TIP3    H180887   3.767   0.565  16.687  0.0317 -0.1621 -1.9661
19824TIP3    H280888   3.696   0.537  16.556 -3.4029 -1.0718  0.0182
19825TIP3   OH280889   4.751   6.531   0.912  0.0479 -0.7316 -0.3330
19825TIP3    H180890   4.838   6.511   0.947 -0.6687  1.1374  2.7101
19825TIP3    H280891   4.751   6.626   0.903 -2.5840 -0.3887  2.4530
19826TIP3   OH280892   5.028   2.300  13.200 -0.0063  0.1127  0.4738
19826TIP3    H180893   5.008   2.364  13.269  3.3345  0.7877  0.8674
19826TIP3    H280894   4.944   2.287  13.156 -1.4429  2.4021  2.3770
19827TIP3   OH280895   6.576   1.176   5.564 -0.3291  0.2310  0.5469
19827TIP3    H180896   6.559   1.097   5.614 -0.0032  0.3479  0.8425
19827TIP3    H280897   6.502   1.234   5.585 -0.4955  0.0613  0.4341
19828TIP3   OH280898   2.568   5.017   3.967  0.2594  0.4163 -0.1983
19828TIP3    H180899   2.561   5.113   3.971  0.5346  0.3827  3.1343
19828TIP3    H280900   2.494   4.986   4.019 -0.6471 -1.2694 -2.4295
19829TIP3   OH280901   6.566   0.524  15.174  0.1427  0.4534 -0.5852
19829TIP3    H180902   6.495   0.578  15.140 -1.1518 -0.1852  1.0344
19829TIP3    H280903   6.530   0.483  15.252  1.3934 -2.0566 -1.2675
19830TIP3   OH280904   2.707   0.223   3.057  0.0771 -0.0963 -0.0937
19830TIP3    H180905   2.663   0.250   3.138  0.6751  1.8296 -0.4041
19830TIP3    H280906   2.800   0.235   3.075  0.2524 -0.3481 -0.8188
19831TIP3   OH280907   1.288   3.135   0.779 -0.1359 -0.1471 -0.2020
19831TIP3    H180908   1.242   3.127   0.863 -0.2858  0.0739 -0.2627
19831TIP3    H280909   1.354   3.203   0.795 -1.4097  1.2721 -0.8097
19832TIP3   OH280910   4.029   0.546  15.942 -0.5750 -0.4394  0.2020
19832TIP3    H180911   4.009   0.631  15.980 -0.7324  0.1112 -1.0911
19832TIP3    H280912   3.967   0.486  15.983 -1.1429  0.2530  0.3632
19833TIP3   OH280913   4.402   2.272  14.412 -0.3993  0.4428  0.2215
19833TIP3    H180914   4.315   2.306  14.389 -0.1348  1.3012  0.4772
19833TIP3    H280915   4.410   2.192  14.361  0.1644  2.2932 -2.6923
19834TIP3   OH280916   1.212   2.196   3.200 -0.1337  0.1534  0.1819
19834TIP3    H180917   1.192   2.111   3.161 -2.8018  0.2686  1.1396
19834TIP3    H280918   1.293   2.182   3.248 -0.9327 -2.0737  0.9568
19835TIP3   OH280919   1.477   1.114  11.512 -0.0242  0.2683  0.1039
19835TIP3    H180920   1.388   1.102  11.548 -0.4458 -0.5584 -1.1914
19835TIP3    H280921   1.512   1.188  11.562 -1.6883  1.0446  0.1809
19836TIP3   OH280922   2.319   2.224   1.043 -0.0434  0.1247  0.5669
19836TIP3    H180923   2.328   2.282   1.118  0.9469 -1.1090  1.4213
19836TIP3    H280924   2.240   2.255   0.998  0.9036  2.5928  0.5707
19837TIP3   OH280925   2.362   4.264  16.332  0.1290  0.0644  0.1782
19837TIP3    H180926   2.452   4.292  16.351 -0.7771  3.0966  0.2212
19837TIP3    H280927   2.345   4.296  16.243 -0.9415 -0.4126  0.2020
19838TIP3   OH280928   5.799   5.462   2.591  0.1380 -0.1229 -0.2239
19838TIP3    H180929   5.843   5.383   2.625  1.2079  1.1921  1.5529
19838TIP3    H280930   5.706   5.440   2.592  0.4737 -1.6206 -0.4542
19839TIP3   OH280931   3.247   4.753  15.004  0.2313 -0.1557 -0.0328
19839TIP3    H180932   3.188   4.780  14.933 -0.0601  0.5880  0.4993
19839TIP3    H280933   3.190   4.714  15.070  0.4701 -0.5460 -0.0510
19840TIP3   OH280934   3.587   0.770  15.895 -0.1922 -0.2586  0.3090
19840TIP3    H180935   3.560   0.848  15.847  0.7868  0.0073  0.1932
19840TIP3    H280936   3.653   0.800  15.957  0.0212 -0.9489  0.4263
19841TIP3   OH280937   6.244   3.557  14.072  0.4240 -0.0947 -0.4011
19841TIP3    H180938   6.247   3.462  14.060  2.5027 -0.0266 -0.5346
19841TIP3    H280939   6.179   3.587  14.008  1.2256 -1.2171 -1.7667
19842TIP3   OH280940   2.743   2.963   0.680 -0.4082  0.0442 -0.3806
19842TIP3    H180941   2.706   2.888   0.634  0.2606 -0.9504  0.6796
19842TIP3    H280942   2.776   2.927   0.762  0.1748  1.4538  0.0185
19843TIP3   OH280943   2.680   3.803  15.748 -0.2572 -0.3443  0.1755
19843TIP3    H180944   2.671   3.775  15.839  0.7133 -1.1992  0.0314
19843TIP3    H280945   2.733   3.882  15.752  0.0520 -0.5550  0.3458
19844TIP3   OH280946   1.828   6.481  10.281  0.0148 -0.2615 -0.2791
19844TIP3    H180947   1.860   6.446  10.364  0.4400  0.2818 -0.2070
19844TIP3    H280948   1.902   6.471  10.221 -0.2212 -0.4664 -0.5353
19845TIP3   OH280949   1.872   1.745  13.202 -0.3949  0.6032 -0.4442
19845TIP3    H180950   1.967   1.746  13.215 -0.3983 -0.6067 -0.2766
19845TIP3    H280951   1.849   1.652  13.205 -1.6490  0.9269 -0.0216
19846TIP3   OH280952   0.746   2.068  14.012 -0.0235  0.0586  0.0032
19846TIP3    H180953   0.798   2.017  14.074 -2.0788 -1.9548  0.1293
19846TIP3    H280954   0.661   2.079  14.055 -0.5623  1.0286 -1.2749
19847TIP3   OH280955   4.728   5.691   1.973  0.0236  0.0436 -0.0500
19847TIP3    H180956   4.700   5.749   2.043 -1.7828 -1.1785  0.2707
19847TIP3    H280957   4.804   5.644   2.009  0.4294  0.9523  0.2953
19848TIP3   OH280958   1.620   0.771   3.571 -0.3081 -0.2180 -0.8097
19848TIP3    H180959   1.651   0.728   3.651 -0.8371 -0.0006 -0.4838
19848TIP3    H280960   1.681   0.743   3.503  1.5904  1.4633  0.1267
19849TIP3   OH280961   4.494   3.946   5.642 -0.2130 -0.1243  0.1644
19849TIP3    H180962   4.500   3.904   5.556 -0.2978 -0.5736  0.3746
19849TIP3    H280963   4.410   3.916   5.677 -0.2540  0.1905  0.3355
19850TIP3   OH280964   0.503   0.611   2.476  0.2217  0.6778  0.0706
19850TIP3    H180965   0.522   0.532   2.526 -1.0310  0.7536  0.6778
19850TIP3    H280966   0.589   0.645   2.452  0.7812 -0.6081  0.2069
19851TIP3   OH280967   0.638   0.679  14.090  0.5111  0.5182  0.9785
19851TIP3    H180968   0.653   0.735  14.166  0.6008 -0.0537  1.3811
19851TIP3    H280969   0.548   0.698  14.064  1.1079  2.1434  0.0456
19852TIP3   OH280970   1.658   0.133  13.900 -0.1486 -0.1876  0.4946
19852TIP3    H180971   1.708   0.202  13.857  2.2446 -0.9094  2.0004
19852TIP3    H280972   1.611   0.089  13.829  0.3452  1.3332 -0.7968
19853TIP3   OH280973   2.676   2.129   5.321  0.1153  0.2628 -0.0802
19853TIP3    H180974   2.759   2.092   5.290 -1.2059 -2.0725 -0.8893
19853TIP3    H280975   2.620   2.054   5.337 -1.3441  1.7339  2.0480
19854TIP3   OH280976   3.574   1.160   3.091 -0.6385  0.9910  0.0887
19854TIP3    H180977   3.578   1.073   3.051 -1.7877  1.7198 -1.6745
19854TIP3    H280978   3.494   1.159   3.143 -0.7856  1.0893 -0.1380
19855TIP3   OH280979   1.480   2.003   3.165 -0.7041  0.4587  0.1176
19855TIP3    H180980   1.531   1.933   3.206 -2.5960 -0.0541  1.6888
19855TIP3    H280981   1.512   2.083   3.206 -0.9083  0.1697  0.8610
19856TIP3   OH280982   3.420   5.906  14.851  0.4950 -0.6131  0.2200
19856TIP3    H180983   3.503   5.873  14.885 -0.7628 -1.1124  2.8980
19856TIP3    H280984   3.391   5.839  14.789  1.3570 -1.1744  0.4173
19857TIP3   OH280985   0.648   4.869  12.044 -0.2724 -0.6860 -0.3856
19857TIP3    H180986   0.695   4.951  12.028  0.0606 -0.4813  1.4744
19857TIP3    H280987   0.555   4.893  12.044 -0.1157  0.1824  2.3961
19858TIP3   OH280988   4.335   5.865  11.281  0.1848 -0.3913 -0.0914
19858TIP3    H180989   4.336   5.790  11.222  0.0438  2.0198 -3.3107
19858TIP3    H280990   4.394   5.929  11.240 -0.6752  1.7523  1.8705
19859TIP3   OH280991   1.689   5.156  14.271 -0.3945 -0.2304 -0.8463
19859TIP3    H180992   1.639   5.128  14.194 -0.4602  0.0713 -0.9137
19859TIP3    H280993   1.735   5.234  14.243 -1.3716  0.5837 -0.2229
19860TIP3   OH280994   3.068   0.440   1.975 -0.9046  0.1936  0.5982
19860TIP3    H180995   3.034   0.384   2.044 -2.8438  0.1386 -0.3366
19860TIP3    H280996   3.049   0.392   1.894 -0.2507  1.0280 -0.0570
19861TIP3   OH280997   2.011   4.583  17.095 -0.3816 -0.1194 -0.3517
19861TIP3    H180998   2.082   4.644  17.075 -0.8496  0.0473 -1.5513
19861TIP3    H280999   2.024   4.560  17.187  0.2630  1.1714 -0.1159
19862TIP3   OH281000   6.406   5.701  15.424  0.1433 -0.3172 -0.6522
19862TIP3    H181001   6.312   5.712  15.434  0.1566 -0.0174 -0.8592
19862TIP3    H281002   6.433   5.653  15.502  0.1240  1.3025  0.3789
19863TIP3   OH281003   2.044   0.346   2.784 -0.1609  0.0799 -0.1309
19863TIP3    H181004   2.032   0.425   2.731 -0.6672  1.4638  1.9594
19863TIP3    H281005   1.956   0.317   2.805  0.0316 -0.1893  0.3165
19864TIP3   OH281006   0.023   2.482  16.231  0.0157 -0.8071  0.4623
19864TIP3    H181007  -0.006   2.531  16.307  1.2551  0.2985  0.2600
19864TIP3    H281008   0.114   2.510  16.218 -0.7978  0.7172 -2.6941
19865TIP3   OH281009   6.381   4.435  13.730  0.7867 -0.0105 -0.0843
19865TIP3    H181010   6.411   4.389  13.808  1.0398 -0.8494 -0.6678
19865TIP3    H281011   6.437   4.402  13.660  2.1470  2.4268 -0.2345
19866TIP3   OH281012   0.895   0.342  15.402 -0.1140 -0.1867  0.7543
19866TIP3    H181013   0.962   0.280  15.430 -0.4400 -1.0094 -0.2405
19866TIP3    H281014   0.941   0.405  15.348 -0.2531 -1.1667 -0.5292
19867TIP3   OH281015   0.599   1.370  14.503  0.3561 -0.4228  0.0931
19867TIP3    H181016   0.579   1.279  14.523  1.0566 -0.2571  1.5869
19867TIP3    H281017   0.599   1.414  14.588  1.8134  0.6067 -0.4228
19868TIP3   OH281018   1.025   3.379   1.088  0.3589  0.0533 -0.1846
19868TIP3    H181019   1.083   3.347   1.157  0.3732  0.2103 -0.1215
19868TIP3    H281020   0.941   3.392   1.131 -0.2859 -2.1619 -0.7547
19869TIP3   OH281021   2.258   2.928  16.223  0.1702  0.2726  0.4111
19869TIP3    H181022   2.231   3.001  16.279 -0.4815  1.3734 -1.2922
19869TIP3    H281023   2.320   2.966  16.162  1.8048 -1.1848  1.1247
19870TIP3   OH281024   0.469   1.075   3.597 -0.8606  0.0729  0.2303
19870TIP3    H181025   0.518   1.046   3.520  0.7790  1.0921  0.8686
19870TIP3    H281026   0.449   1.167   3.580 -3.0635 -0.4679 -0.2666
19871TIP3   OH281027   6.721   1.229  11.801 -0.3166  0.8995  0.0780
19871TIP3    H181028   6.673   1.245  11.720  0.3125  0.2164 -0.4475
19871TIP3    H281029   6.692   1.142  11.829 -0.1242  0.9024  0.2917
19872TIP3   OH281030   0.186   2.249  16.353  0.4468 -0.7629  0.1874
19872TIP3    H181031   0.132   2.246  16.432  2.3608 -0.4560  1.5515
19872TIP3    H281032   0.205   2.342  16.341 -0.1023 -0.7752 -0.8474
19873TIP3   OH281033   1.055   6.270  14.250 -0.1452 -0.0406 -0.0954
19873TIP3    H181034   1.086   6.255  14.161  0.2550 -0.5245  0.1195
19873TIP3    H281035   0.960   6.258  14.245 -0.4346  2.3356 -0.9429
19874TIP3   OH281036   1.045   2.111   5.416 -0.1506 -0.3954  0.2788
19874TIP3    H181037   1.052   2.044   5.484 -0.7332 -0.5520  0.1949
19874TIP3    H281038   0.975   2.079   5.359 -0.8982  0.6109  0.6064
19875TIP3   OH281039   1.104   2.539  17.159  0.0209  0.6259  0.0253
19875TIP3    H181040   1.048   2.513  17.086  1.7268 -0.4478 -0.9518
19875TIP3    H281041   1.187   2.563  17.118  0.7797  0.6933  1.5582
19876TIP3   OH281042   4.297   6.617  12.075 -0.3151  0.1177 -0.5266
19876TIP3    H181043   4.318   6.586  11.987  2.2050 -0.1272  0.1450
19876TIP3    H281044   4.267   6.707  12.062 -0.1164  0.0305 -1.6353
19877TIP3   OH281045   5.071   2.654  13.649  0.0319 -0.5929  0.0032
19877TIP3    H181046   5.153   2.667  13.600  0.6082 -0.0617  1.0916
19877TIP3    H281047   5.003   2.683  13.588  0.6987 -0.4595 -0.6946
19878TIP3   OH281048   0.227   6.439   2.351  0.4125  0.0752  0.4712
19878TIP3    H181049   0.224   6.381   2.427 -0.3776 -0.5575 -0.0417
19878TIP3    H281050   0.199   6.524   2.385 -0.6663 -0.3760  0.7318
19879TIP3   OH281051   6.450   3.332  16.208  0.4987  0.2172 -0.5133
19879TIP3    H181052   6.513   3.312  16.139 -0.2613 -1.6592 -0.6932
19879TIP3    H281053   6.392   3.398  16.170  0.2887 -0.5553 -1.5530
19880TIP3   OH281054   5.708   6.616  12.228 -0.4609 -0.4664 -0.2241
19880TIP3    H181055   5.758   6.551  12.277  1.2629  0.9248 -0.1111
19880TIP3    H281056   5.711   6.585  12.137 -0.5648 -1.0975 -0.0168
19881TIP3   OH281057   6.539   2.229   5.517  0.1163  0.4897  0.2485
19881TIP3    H181058   6.570   2.282   5.443  0.0868  0.0119 -0.1187
19881TIP3    H281059   6.462   2.274   5.550 -0.0481  0.5489 -0.2136
19882TIP3   OH281060   2.056   6.302   0.187  0.6969 -0.1285 -0.4908
19882TIP3    H181061   2.050   6.207   0.181  0.0863 -0.1787  0.7200
19882TIP3    H281062   2.140   6.323   0.147  1.6561 -1.3552  0.8060
19883TIP3   OH281063   1.847   6.542   6.687  0.4542  0.2220 -0.4535
19883TIP3    H181064   1.807   6.540   6.600  0.3559  0.3959 -0.4141
19883TIP3    H281065   1.772   6.545   6.747  0.5101 -1.0085 -0.3209
19884TIP3   OH281066   5.350   3.997  13.205 -0.1493 -0.2188 -0.5646
19884TIP3    H181067   5.413   3.995  13.133 -0.8678  1.4714 -1.2729
19884TIP3    H281068   5.393   4.049  13.273  0.3659 -1.4784  0.0915
19885TIP3   OH281069   2.578   3.200   3.958 -0.6549  0.6484 -0.2661
19885TIP3    H181070   2.615   3.249   4.032  0.4861  0.1666 -0.5056
19885TIP3    H281071   2.554   3.115   3.995 -1.4671  0.9331 -0.1281
19886TIP3   OH281072   6.756   4.844   1.133  0.7815 -0.0710  0.1771
19886TIP3    H181073   6.757   4.939   1.145 -1.5166 -0.1468  1.3539
19886TIP3    H281074   6.847   4.817   1.141  1.1998  1.7935  2.1168
19887TIP3   OH281075   1.248   5.522  13.470  0.6540 -0.1269  0.8135
19887TIP3    H181076   1.194   5.496  13.544  0.9137 -0.2456  0.9641
19887TIP3    H281077   1.320   5.459  13.469  1.1279  0.4051  1.0036
19888TIP3   OH281078   3.778   3.324   4.911  0.4586  0.1998 -0.0319
19888TIP3    H181079   3.834   3.265   4.962  1.2710  1.5477  0.6707
19888TIP3    H281080   3.750   3.390   4.974 -0.0510  0.8437 -0.9239
19889TIP3   OH281081   4.015   4.813  17.145 -0.1375  0.4961  0.1398
19889TIP3    H181082   4.097   4.805  17.194 -0.0730  1.4657  0.2024
19889TIP3    H281083   4.036   4.778  17.058 -0.2438 -1.1975  0.7740
19890TIP3   OH281084   6.356   4.571  11.187 -0.0415 -0.1233  0.4452
19890TIP3    H181085   6.298   4.632  11.232 -0.1882 -0.2048  0.3671
19890TIP3    H281086   6.423   4.548  11.252 -0.7925 -0.9762  0.9223
19891TIP3   OH281087   4.969   0.160  16.799  0.6294 -0.1017 -0.0428
19891TIP3    H181088   4.936   0.075  16.770  0.8753 -0.1904 -0.0633
19891TIP3    H281089   4.899   0.221  16.779 -0.7648 -0.7558  2.6495
19892TIP3   OH281090   0.950   3.091  13.525  0.2501  0.2470 -0.1706
19892TIP3    H181091   1.031   3.124  13.485  1.3735 -1.6749  0.4495
19892TIP3    H281092   0.924   3.019  13.469  0.0888 -0.4370  0.7806
19893TIP3   OH281093   6.386   1.779  14.462 -0.0876  0.0940  0.4626
19893TIP3    H181094   6.384   1.711  14.529  0.7034  0.1241  0.5228
19893TIP3    H281095   6.470   1.822  14.475 -0.0596  0.2892 -0.3703
19894TIP3   OH281096   6.731   2.063   3.537  0.0678 -0.2569 -0.3214
19894TIP3    H181097   6.707   2.012   3.615  1.6278 -2.4599 -1.2215
19894TIP3    H281098   6.794   2.128   3.569 -0.1946 -0.3789  0.4577
19895TIP3   OH281099   4.616   5.280   2.893  0.1354 -0.2202 -0.5495
19895TIP3    H181100   4.696   5.228   2.904 -0.3877 -0.7194  1.1057
19895TIP3    H281101   4.568   5.266   2.975 -0.6548  1.7718 -0.6601
19896TIP3   OH281102   0.120   3.242   2.111 -1.2674  0.3057  0.3936
19896TIP3    H181103   0.106   3.252   2.017 -1.4831  0.3754  0.4339
19896TIP3    H281104   0.069   3.313   2.151 -0.9736  0.4317  0.5482
19897TIP3   OH281105   0.538   0.509  11.631 -0.5978 -0.6658  0.0771
19897TIP3    H181106   0.601   0.451  11.673  0.6732 -0.3577 -1.3768
19897TIP3    H281107   0.478   0.534  11.701  0.7896 -1.0857  1.4336
19898TIP3   OH281108   6.400   5.177  11.174 -0.4216  0.6031  0.4547
19898TIP3    H181109   6.372   5.217  11.092  0.2561 -0.9775 -0.5988
19898TIP3    H281110   6.397   5.083  11.156  1.0641  0.2747  1.7914
19899TIP3   OH281111   6.567   4.761   3.338  0.0145 -0.0384  0.1549
19899TIP3    H181112   6.491   4.703   3.329 -0.4663  0.5779  0.1346
19899TIP3    H281113   6.528   4.847   3.356  0.6895  0.3933 -0.4426
19900TIP3   OH281114   6.487   0.697  11.817 -0.0195  0.0492  0.1795
19900TIP3    H181115   6.527   0.783  11.800 -1.6705  0.9057  0.4762
19900TIP3    H281116   6.519   0.673  11.904 -0.8887  1.1663  0.8168
19901TIP3   OH281117   2.578   4.037  15.996 -0.3208 -0.4031 -0.1162
19901TIP3    H181118   2.508   4.020  15.933 -0.3446 -2.4147  0.4127
19901TIP3    H281119   2.591   4.132  15.993 -2.9526 -0.0205 -0.3320
19902TIP3   OH281120   4.735   3.445   5.020  0.2858  0.7399 -0.0601
19902TIP3    H181121   4.737   3.528   5.068 -0.7998  1.0896 -0.6073
19902TIP3    H281122   4.660   3.398   5.056 -1.2311  1.4771 -2.1538
19903TIP3   OH281123   4.370   2.155   4.458  0.2962  0.3390 -0.2934
19903TIP3    H181124   4.396   2.241   4.489  0.6425  0.4239 -0.8138
19903TIP3    H281125   4.414   2.145   4.373  0.4600 -0.4452 -0.1294
19904TIP3   OH281126   2.459   1.104   0.481 -0.1634  0.7998 -0.1482
19904TIP3    H181127   2.492   1.036   0.541  0.8008  0.6093 -0.8837
19904TIP3    H281128   2.471   1.186   0.529 -2.1293  0.3967  1.0963
19905TIP3   OH281129   4.333   4.082  12.774  0.1336 -0.0973 -0.1884
19905TIP3    H181130   4.251   4.131  12.772  0.7309  0.8879 -3.1379
19905TIP3    H281131   4.312   3.997  12.737  0.3134 -0.0658 -0.3661
19906TIP3   OH281132   6.784   0.527   0.423  0.5286  0.2280 -0.7945
19906TIP3    H181133   6.800   0.441   0.462  0.7860  0.5700 -0.1300
19906TIP3    H281134   6.871   0.559   0.398  0.8097  1.5629  1.7065
19907TIP3   OH281135   5.490   3.552  15.459  0.3628 -0.3168 -1.0437
19907TIP3    H181136   5.499   3.567  15.365 -1.9108 -1.2727 -1.4404
19907TIP3    H281137   5.397   3.558  15.476  0.6808 -0.7840  1.0521
19908TIP3   OH281138   5.513   1.308  14.280 -0.6894 -0.4536  0.2610
19908TIP3    H181139   5.455   1.315  14.205 -1.2387  0.5349  0.7557
19908TIP3    H281140   5.519   1.214  14.298 -0.2506 -0.7202 -1.2361
19909TIP3   OH281141   5.223   1.641  15.207  0.3798  0.2264  0.7758
19909TIP3    H181142   5.224   1.600  15.293  2.3248  1.0306  1.1586
19909TIP3    H281143   5.169   1.720  15.219 -3.1384 -1.9660  0.0974
19910TIP3   OH281144   6.195   2.713  11.253 -0.3632 -0.1467  0.1220
19910TIP3    H181145   6.265   2.656  11.285 -0.4245  0.7001  1.7866
19910TIP3    H281146   6.127   2.652  11.223  1.3777 -0.9963 -2.2826
19911TIP3   OH281147   3.179   2.784  15.728  0.0995 -0.4681 -0.2828
19911TIP3    H181148   3.188   2.804  15.634  1.9188 -1.0283 -0.2461
19911TIP3    H281149   3.110   2.843  15.758 -2.1379 -1.8897 -2.4471
19912TIP3   OH281150   3.715   0.452  17.202 -0.1166  0.3975  0.4314
19912TIP3    H181151   3.791   0.400  17.230  0.6589  1.2319 -0.0922
19912TIP3    H281152   3.683   0.407  17.124 -0.7374 -0.4874  1.1865
19913TIP3   OH281153   5.646   4.737   1.644 -0.3572  0.0722  0.6405
19913TIP3    H181154   5.556   4.725   1.673 -0.2811  0.0778  0.8820
19913TIP3    H281155   5.686   4.794   1.711 -0.3762  0.6680  0.1501
19914TIP3   OH281156   0.379   0.310   3.169  0.5246  0.0975 -0.3851
19914TIP3    H181157   0.286   0.315   3.193  0.6719  2.2863 -0.1633
19914TIP3    H281158   0.379   0.316   3.073  0.3550 -1.5452 -0.4993
19915TIP3   OH281159   2.700   6.537   3.359 -0.1035 -0.0388  0.4490
19915TIP3    H181160   2.609   6.567   3.366 -0.4445 -1.2401  1.3653
19915TIP3    H281161   2.751   6.617   3.351 -1.1557  0.7062  1.0377
19916TIP3   OH281162   3.446   1.044  16.670 -0.0015 -0.5963  0.2343
19916TIP3    H181163   3.537   1.056  16.643 -0.3814 -0.8585 -1.2149
19916TIP3    H281164   3.435   0.949  16.675  0.0838 -0.5451  1.3869
19917TIP3   OH281165   0.414   1.926   2.362 -0.1938 -0.1661  0.3112
19917TIP3    H181166   0.323   1.947   2.338  0.0342  0.8101  0.2845
19917TIP3    H281167   0.427   1.971   2.445 -0.3495 -1.9165  1.3213
19918TIP3   OH281168   1.627   5.716  16.220 -0.0311 -0.6337 -0.1131
19918TIP3    H181169   1.701   5.775  16.228  1.0952 -1.9571 -0.4840
19918TIP3    H281170   1.634   5.679  16.132 -0.1174 -2.0561  0.4491
19919TIP3   OH281171   0.796   4.415  15.958 -0.3142  0.1479 -0.7819
19919TIP3    H181172   0.710   4.409  15.999 -1.0005 -0.6728 -2.3253
19919TIP3    H281173   0.847   4.346  16.000  0.2231  1.9222  1.5684
19920TIP3   OH281174   6.475   1.651  13.646  0.2316 -0.5845 -0.0173
19920TIP3    H181175   6.411   1.603  13.594  0.7766 -1.3724  0.0483
19920TIP3    H281176   6.520   1.707  13.583 -0.6274  0.1012 -0.0413
19921TIP3   OH281177   1.439   3.714   0.841 -0.7577  0.7101 -0.1095
19921TIP3    H181178   1.413   3.627   0.812 -0.0071  0.5782 -0.4194
19921TIP3    H281179   1.468   3.758   0.761  0.5254  0.6409  0.3046
19922TIP3   OH281180   4.748   6.673  11.262  0.6502  0.6082  0.2638
19922TIP3    H181181   4.762   6.605  11.196  1.3897  1.8153 -0.8565
19922TIP3    H281182   4.836   6.703  11.284  0.4310 -0.0956  2.1493
19923TIP3   OH281183   6.024   0.881   5.501  0.3434 -0.0079  0.2556
19923TIP3    H181184   5.945   0.873   5.554  0.3371 -2.3552 -0.0501
19923TIP3    H281185   5.997   0.852   5.413  0.7270  2.3664 -0.6689
19924TIP3   OH281186   4.570   1.848   1.191 -0.3329  0.7179  0.1649
19924TIP3    H181187   4.527   1.833   1.276  0.9837 -0.7714  0.5839
19924TIP3    H281188   4.517   1.916   1.150 -0.8659  1.6137  2.2728
19925TIP3   OH281189   6.287   4.871  11.468 -0.3864 -0.2114 -0.0645
19925TIP3    H181190   6.253   4.960  11.465 -0.8921 -0.2955  1.9263
19925TIP3    H281191   6.382   4.880  11.471 -0.4562  0.3019  0.7391
19926TIP3   OH281192   3.707   6.012  13.002  0.2387 -0.8309 -0.3865
19926TIP3    H181193   3.713   5.926  13.044  0.6440 -0.0287  1.2153
19926TIP3    H281194   3.632   6.054  13.044  1.3609  0.4237  0.3862
19927TIP3   OH281195   2.046   4.847   0.730 -0.1448  0.4757  0.0946
19927TIP3    H181196   2.097   4.780   0.684 -0.6257  0.5549 -0.5490
19927TIP3    H281197   2.112   4.904   0.769  0.2677  0.3066 -0.3496
19928TIP3   OH281198   2.039   6.294  13.062 -0.1375  0.3852  0.0701
19928TIP3    H181199   2.032   6.293  12.966  0.6770  2.7690 -0.0340
19928TIP3    H281200   2.104   6.225  13.082 -1.4414 -1.1717 -0.9574
19929TIP3   OH281201   3.571   2.015   0.094  0.1018  0.5544 -0.2890
19929TIP3    H181202   3.593   1.927   0.128  0.7361  0.7561 -0.1679
19929TIP3    H281203   3.487   2.036   0.136 -0.5445 -0.3989 -1.0711
19930TIP3   OH281204   5.231   3.653  15.762 -0.4634  0.0729 -0.2872
19930TIP3    H181205   5.202   3.744  15.769 -1.1699 -0.1404 -0.4252
19930TIP3    H281206   5.325   3.656  15.780 -0.6415  0.7207  0.5935
19931TIP3   OH281207   5.757   0.234  14.062 -0.0683 -0.5052 -0.4313
19931TIP3    H181208   5.757   0.293  13.987 -1.3048 -0.9917 -0.8360
19931TIP3    H281209   5.840   0.187  14.057  0.0481 -0.2084 -1.2427
19932TIP3   OH281210   6.307   2.517  11.713 -0.2634 -0.1926 -0.2646
19932TIP3    H181211   6.402   2.522  11.702 -0.2547 -0.2871 -0.2349
19932TIP3    H281212   6.292   2.431  11.752 -0.1074  1.1035  2.7888
19933TIP3   OH281213   1.569   1.699  14.827  0.3404  0.1802 -0.2489
19933TIP3    H181214   1.615   1.616  14.838 -0.9309 -0.4928  0.1071
19933TIP3    H281215   1.556   1.731  14.916  0.5724  0.6168 -0.3718
19934TIP3   OH281216   3.338   0.173  15.861  0.9098  0.3895  0.4977
19934TIP3    H181217   3.293   0.099  15.902  2.3922 -1.4921 -1.1700
19934TIP3    H281218   3.411   0.192  15.919 -0.4611  1.7006  1.8248
19935TIP3   OH281219   3.786   3.920  16.591 -0.4030  0.5520  0.2993
19935TIP3    H181220   3.723   3.967  16.644 -2.7594  0.1714 -2.0475
19935TIP3    H281221   3.842   3.874  16.654 -1.9290  1.5667  2.4383
19936TIP3   OH281222   0.284   1.507  15.768 -0.2727 -0.5254  0.4520
19936TIP3    H181223   0.248   1.571  15.707 -1.5666 -0.4130  1.3249
19936TIP3    H281224   0.252   1.423  15.736 -1.0110 -0.4591  1.0250
19937TIP3   OH281225   6.391   6.465   5.526  0.1143 -0.0125 -0.0365
19937TIP3    H181226   6.468   6.423   5.566  1.7615 -0.1923 -3.1795
19937TIP3    H281227   6.385   6.425   5.439 -3.7482 -0.1784  0.2170
19938TIP3   OH281228   1.953   4.990   1.819  0.0865  0.8864  0.1019
19938TIP3    H181229   1.878   4.957   1.770  1.6316 -0.9971 -1.0621
19938TIP3    H281230   1.915   5.027   1.898 -2.1205  0.4977 -0.7305
19939TIP3   OH281231   0.687   3.406   4.579 -0.3202 -0.0067 -0.0148
19939TIP3    H181232   0.765   3.460   4.585 -0.2196 -0.1869  0.3118
19939TIP3    H281233   0.629   3.454   4.520 -0.0561  0.2391 -0.0740
19940TIP3   OH281234   4.814   5.343   0.484  0.2614 -0.1812  0.6882
19940TIP3    H181235   4.758   5.344   0.406 -0.8897  0.4513  1.5041
19940TIP3    H281236   4.841   5.252   0.493 -2.1532 -0.8647  1.3208
19941TIP3   OH281237   4.993   1.680   1.508 -0.3016  0.5064  0.4825
19941TIP3    H181238   5.066   1.740   1.511 -0.4584  0.7613 -0.6138
19941TIP3    H281239   5.033   1.593   1.496 -0.1239  0.5049  1.0945
19942TIP3   OH281240   1.218   4.543   5.152 -0.8748 -0.2266  0.0462
19942TIP3    H181241   1.178   4.485   5.217  2.5429 -1.3566  1.2196
19942TIP3    H281242   1.256   4.485   5.087 -3.0071  0.8781 -2.2633
19943TIP3   OH281243   3.641   4.605  14.892 -0.6042 -0.2295  0.3836
19943TIP3    H181244   3.590   4.577  14.968 -1.5415  1.0519  0.2556
19943TIP3    H281245   3.576   4.637  14.829  0.1557 -1.3953 -1.0188
19944TIP3   OH281246   3.927   0.452  16.713 -0.4314  0.2973  0.3914
19944TIP3    H181247   3.972   0.429  16.795  1.6185  1.3708 -0.4191
19944TIP3    H281248   3.914   0.368  16.670  2.1523  0.0664 -0.0333
19945TIP3   OH281249   6.516   2.110  14.547 -0.4023 -0.0923 -0.1405
19945TIP3    H181250   6.583   2.132  14.611  0.3704 -0.1709 -0.9035
19945TIP3    H281251   6.560   2.050  14.486 -1.2685 -0.4331 -0.4448
19946TIP3   OH281252   2.771   2.390   0.487  0.1951  0.7085  0.6185
19946TIP3    H181253   2.775   2.420   0.578 -0.8054 -0.8979  1.2173
19946TIP3    H281254   2.732   2.303   0.492  0.6791  0.3508 -1.3040
19947TIP3   OH281255   1.039   6.533   5.627  0.1447 -0.1188  0.4533
19947TIP3    H181256   1.012   6.493   5.710 -1.8484 -0.4237 -0.3164
19947TIP3    H281257   0.957   6.558   5.585  1.1844  0.8670 -1.0277
19948TIP3   OH281258   5.876   4.546  12.773 -0.3259 -0.0932 -0.2778
19948TIP3    H181259   5.814   4.543  12.700 -1.0379  0.7127  0.2936
19948TIP3    H281260   5.960   4.566  12.732 -0.6818  0.1242 -0.9084
19949TIP3   OH281261   4.238   1.144   1.121  0.5654 -0.3200 -0.2980
19949TIP3    H181262   4.292   1.169   1.047  0.7422  0.9007  0.2326
19949TIP3    H281263   4.197   1.061   1.094  1.9207 -0.7419 -1.0783
19950TIP3   OH281264   6.263   2.081   4.771  0.0223  0.3356  0.3613
19950TIP3    H181265   6.348   2.118   4.794  1.0016 -3.2556  2.8071
19950TIP3    H281266   6.208   2.095   4.848 -0.2041 -1.4841  0.5420
19951TIP3   OH281267   3.951   3.547  15.404 -0.3674  0.3935  0.3148
19951TIP3    H181268   3.918   3.584  15.322 -0.7198  0.6280  0.5567
19951TIP3    H281269   4.012   3.479  15.377 -0.5942  0.3674 -0.1414
19952TIP3   OH281270   6.075   6.095   4.928  0.7574  0.2051 -0.4749
19952TIP3    H181271   6.024   6.061   5.002  0.4189  1.6169 -0.0514
19952TIP3    H281272   6.012   6.144   4.876  1.5703  1.5253 -0.2237
19953TIP3   OH281273   0.391   4.948  12.010 -0.4964 -0.2933  0.3858
19953TIP3    H181274   0.351   5.023  12.053 -1.2756 -0.3263 -0.2764
19953TIP3    H281275   0.322   4.883  12.005 -0.0629 -0.7469  0.1953
19954TIP3   OH281276   6.214   0.022   1.912 -0.3472  0.3390  0.4664
19954TIP3    H181277   6.132  -0.026   1.925 -0.6950  1.1819  1.4164
19954TIP3    H281278   6.188   0.102   1.867  0.3839 -0.8610 -2.2038
19955TIP3   OH281279   6.504   3.900  16.411  0.5584  0.1718  0.0080
19955TIP3    H181280   6.469   3.885  16.323  0.3206  0.0833  0.1200
19955TIP3    H281281   6.430   3.885  16.470  0.3577  1.5807  0.1387
19956TIP3   OH281282   4.195   6.287  13.989 -0.3909 -0.7311  0.5223
19956TIP3    H181283   4.122   6.228  14.008 -0.6317 -0.2216  1.1823
19956TIP3    H281284   4.154   6.364  13.949 -0.1798 -0.5999  0.5547
19957TIP3   OH281285   1.336   4.186  12.611  0.4329  0.4311 -0.0795
19957TIP3    H181286   1.261   4.127  12.614 -0.0554  1.1167  1.8913
19957TIP3    H281287   1.390   4.153  12.539 -0.0184 -2.1627  0.7315
19958TIP3   OH281288   5.770   4.911   1.366 -0.1066  0.0871 -0.3994
19958TIP3    H181289   5.760   4.819   1.391  1.3605 -0.1899 -0.7747
19958TIP3    H281290   5.746   4.912   1.273 -0.6411  0.1932 -0.2647
19959TIP3   OH281291   2.624   2.763  11.970  0.2055 -0.3156 -0.4220
19959TIP3    H181292   2.697   2.793  12.023 -0.0357  0.6024 -0.5896
19959TIP3    H281293   2.556   2.739  12.033  0.6667 -1.2159 -0.2663
19960TIP3   OH281294   4.015   3.768   5.480  0.2262 -0.1407 -0.3018
19960TIP3    H181295   4.028   3.699   5.544 -0.0083  1.7227  1.8222
19960TIP3    H281296   3.944   3.821   5.516  1.7046  2.3260 -0.8778
19961TIP3   OH281297   0.954   3.099   1.178  0.0505  0.7137 -0.2518
19961TIP3    H181298   0.903   3.103   1.259 -2.6788 -0.3594 -1.8607
19961TIP3    H281299   1.040   3.068   1.206 -1.1320 -0.5817  2.1219
19962TIP3   OH281300   0.283   3.401   3.347  0.1996  0.1221  0.0611
19962TIP3    H181301   0.378   3.407   3.356  0.2798 -0.0321 -0.6961
19962TIP3    H281302   0.267   3.310   3.321 -0.0548  0.4814 -1.0710
19963TIP3   OH281303   6.383   5.428  16.769 -0.5181  0.0791 -0.4881
19963TIP3    H181304   6.356   5.472  16.849 -1.4451 -0.3871 -0.5374
19963TIP3    H281305   6.348   5.339  16.777  1.8606 -0.8626 -0.0937
19964TIP3   OH281306   0.474   1.782   3.943  0.7883  0.6454 -0.0163
19964TIP3    H181307   0.476   1.754   3.851  2.0455  1.3479 -0.2076
19964TIP3    H281308   0.496   1.703   3.992  2.2950  0.7714 -0.4507
19965TIP3   OH281309   1.014   1.705  16.302  0.1332 -0.1104 -0.4885
19965TIP3    H181310   1.025   1.667  16.215  0.2209 -2.2133  0.4104
19965TIP3    H281311   1.046   1.637  16.362 -0.5982  1.0213  1.2248
19966TIP3   OH281312   0.215   1.176   2.267  0.1818  0.6667  0.3391
19966TIP3    H181313   0.188   1.085   2.255  0.2214  0.1151  3.8924
19966TIP3    H281314   0.310   1.173   2.275  0.0001  0.6316  2.9925
19967TIP3   OH281315   2.663   5.383   4.279  0.2198 -0.0657 -0.1879
19967TIP3    H181316   2.570   5.384   4.257  0.0826 -1.8863  0.2230
19967TIP3    H281317   2.699   5.460   4.234 -1.3222  0.2013 -1.0090
19968TIP3   OH281318   5.480   5.800   3.957  0.7500 -0.1062 -0.2271
19968TIP3    H181319   5.573   5.782   3.970  0.4342 -3.0467 -1.5312
19968TIP3    H281320   5.435   5.729   4.003 -0.8250  0.8812 -0.2170
19969TIP3   OH281321   6.200   2.762   3.370  0.1330  0.1339 -0.2954
19969TIP3    H181322   6.108   2.763   3.399  0.8143 -0.6557  2.0509
19969TIP3    H281323   6.229   2.672   3.386  1.2944  0.3539 -1.1225
19970TIP3   OH281324   6.120   2.793   1.898 -0.4986 -0.5330 -0.3401
19970TIP3    H181325   6.211   2.801   1.925 -0.9566  2.3082  0.5350
19970TIP3    H281326   6.115   2.836   1.813 -1.2740  0.5061  0.2214
19971TIP3   OH281327   5.858   4.560   3.367 -0.3285  0.2443  0.4313
19971TIP3    H181328   5.875   4.467   3.379  0.1142  0.2935  0.1826
19971TIP3    H281329   5.890   4.601   3.448 -0.1786  0.2259  0.3799
19972TIP3   OH281330   2.568   6.035   0.571 -0.1383  0.4164 -0.5885
19972TIP3    H181331   2.552   6.101   0.638  0.2760  1.1055 -1.1652
19972TIP3    H281332   2.555   5.951   0.616  0.4841  0.8685  0.4419
19973TIP3   OH281333   5.300   4.301   2.930  0.2976  0.2813  0.2787
19973TIP3    H181334   5.212   4.286   2.896 -0.1860  1.4438  0.9715
19973TIP3    H281335   5.289   4.301   3.025  1.3614 -1.3602  0.4312
19974TIP3   OH281336   5.077   6.266  10.948  0.1969 -0.0322  0.4763
19974TIP3    H181337   5.164   6.227  10.961  0.7654  0.9352 -0.2718
19974TIP3    H281338   5.088   6.322  10.871 -0.5151  1.7687  1.6583
19975TIP3   OH281339   5.722   3.280   3.805 -0.7762 -0.3151  0.6066
19975TIP3    H181340   5.642   3.332   3.799 -0.3018  0.4022  0.5558
19975TIP3    H281341   5.701   3.199   3.757 -1.4457 -0.1065  0.5392
19976TIP3   OH281342   0.825   3.133  14.184  0.1583  0.3581  0.1675
19976TIP3    H181343   0.895   3.197  14.200  0.7880 -0.6047  1.3318
19976TIP3    H281344   0.835   3.109  14.092  0.9479  0.6967  0.1609
19977TIP3   OH281345   0.966   0.528   2.491 -0.1459  0.6720  0.0127
19977TIP3    H181346   0.903   0.494   2.554  1.1174  0.9540  1.4594
19977TIP3    H281347   0.952   0.475   2.413  0.8262 -2.2675  1.7475
19978TIP3   OH281348   5.895   6.454  12.361  0.3603 -0.2285  0.6204
19978TIP3    H181349   5.881   6.410  12.445 -0.0012 -0.9713  0.1760
19978TIP3    H281350   5.987   6.481  12.363  0.5309 -0.8280  0.9740
19979TIP3   OH281351   1.148   4.855   5.542  0.6042 -0.1174 -0.2596
19979TIP3    H181352   1.224   4.866   5.599  1.3709  0.1474 -1.3316
19979TIP3    H281353   1.161   4.769   5.502  1.3523  0.7718 -1.9446
19980TIP3   OH281354   0.826   3.055   5.606  0.3870  0.2540  0.1830
19980TIP3    H181355   0.897   3.045   5.670  0.0073  0.6940  0.6785
19980TIP3    H281356   0.746   3.046   5.658  0.0344  3.5567  0.2813
19981TIP3   OH281357   0.253   1.776   2.936 -0.1705  0.0517 -0.2331
19981TIP3    H181358   0.257   1.699   2.879 -1.1981  0.4050 -0.7842
19981TIP3    H281359   0.186   1.753   3.001 -0.4917  0.4869 -0.4107
19982TIP3   OH281360   2.380   6.673  13.406  0.4069 -0.0988 -0.6662
19982TIP3    H181361   2.331   6.680  13.324  0.5883 -2.3111 -0.9873
19982TIP3    H281362   2.314   6.649  13.471  0.8067 -1.6799 -0.8284
19983TIP3   OH281363   4.082   1.617   3.331 -0.0467 -0.8583  0.2065
19983TIP3    H181364   4.150   1.598   3.266  0.9460  0.6582  0.7877
19983TIP3    H281365   4.035   1.534   3.341 -0.0729 -1.2006 -2.2614
19984TIP3   OH281366   1.376   2.143  15.405 -0.1078  0.1277 -0.2768
19984TIP3    H181367   1.379   2.215  15.468 -1.9427  0.7404 -0.8582
19984TIP3    H281368   1.352   2.185  15.323  0.9280 -0.8655 -1.0956
19985TIP3   OH281369   0.375   1.834  13.267  0.1004 -0.4292 -0.8593
19985TIP3    H181370   0.332   1.916  13.244  1.1847  0.3136 -0.2621
19985TIP3    H281371   0.303   1.776  13.293 -0.5222  1.0433  0.8315
19986LIG      O81372   1.897   1.820  16.579  0.1116  0.0279 -0.3265
19986LIG     C181373   1.776   1.756  16.602 -0.0784 -0.3449 -0.5948
19986LIG     C281374   1.810   1.609  16.618 -0.0849 -0.4074  0.3695
19986LIG     C381375   1.719   1.816  16.730  0.3974 -0.6874  0.2505
19986LIG     H181376   1.699   1.770  16.523  0.3082  1.7626 -0.6496
19986LIG     H281377   1.887   1.588  16.696  0.1763  0.7051  0.4074
19986LIG     H381378   1.839   1.571  16.518 -0.0771 -2.9771  1.2890
19986LIG     H481379   1.718   1.556  16.651 -0.7096 -0.4819 -1.4516
19986LIG     H581380   1.616   1.775  16.741 -0.5277 -0.2319 -5.1585
19986LIG     H681381   1.701   1.924  16.715 -1.1901 -1.1870 -1.7117
19986LIG     H781382   1.775   1.783  16.820  1.7670 -5.1854 -2.1085
19986LIG     H881383   1.939   1.766  16.511 -0.0729  0.7678 -1.0384
   6.78697   6.78697  17.23950
